 Q-Chem 4.4, Q-Chem, Inc., Pleasanton, CA (2016)
 Q-Chem 4.4.2 for Intel X86 Linux

User input:
--------------------------------------------------------------
$comment
SP
$end

$rem
MEM_STATIC 5000
MEM_TOTAL 20000
JOBTYPE SP
EXCHANGE B3LYP
BASIS 6-31g(d,p)
$end

$molecule
0 1
C          -2.102000     19.403000     -3.314000
C          -2.290000     20.764000     -3.073000
N          -1.228000     18.913000     -4.176000
C          -1.425000     21.683000     -3.597000
C          -0.322000     19.821000     -4.698000
C          -0.416000     21.221000     -4.435000
C           0.544000     22.269000     -4.994000
C           0.075000     23.429000     -5.639000
C           1.995000     22.144000     -4.990000
N           0.809000     24.448000     -6.034000
N           2.555000     21.012000     -4.523000
C           2.768000     23.206000     -5.184000
C           2.139000     24.384000     -5.655000
S           4.180000     21.360000     -4.601000
N           4.107000     22.920000     -5.129000
C           2.937000     25.598000     -5.885000
S           2.604000     26.789000     -7.138000
C           3.636000     26.175000     -4.849000
C           3.465000     28.042000     -6.199000
S           4.196000     25.455000     -3.356000
C           3.930000     27.503000     -5.006000
C           3.819000     29.339000     -6.584000
C           4.786000     27.049000     -2.881000
C           4.596000     28.025000     -3.836000
N           2.884000     30.026000     -7.296000
S           5.326000     30.103000     -6.243000
C           3.444000     31.344000     -7.607000
C           4.702000     31.575000     -7.081000
C          -3.160000     18.447000     -2.845000
H          -3.036000     20.961000     -2.309000
H          -1.535000     22.701000     -3.235000
H           0.392000     19.461000     -5.437000
H          -0.986000     23.675000     -5.632000
H           5.084000     27.285000     -1.868000
H           4.785000     29.085000     -3.713000
H           2.865000     32.049000     -8.188000
H           5.331000     32.456000     -7.071000
H          -3.913000     18.950000     -2.226000
C          -2.815000     17.125000     -2.122000
H          -3.767000     18.067000     -3.676000
H          -2.499000     17.346000     -1.095000
H          -1.929000     16.661000     -2.573000
C          -3.852000     16.028000     -2.305000
H          -4.828000     16.392000     -1.960000
C          -3.534000     14.699000     -1.606000
H          -4.011000     15.910000     -3.384000
H          -4.292000     13.974000     -1.926000
H          -3.586000     14.769000     -0.512000
C          -2.125000     14.216000     -1.995000
H          -1.876000     14.240000     -3.063000
C          -1.944000     12.772000     -1.615000
H          -1.375000     14.840000     -1.493000
H          -2.572000     12.056000     -2.160000
H          -2.335000     12.646000     -0.598000
H          -0.872000     12.541000     -1.655000
C           2.922000     19.255000     -8.600000
C           2.704000     19.118000     -9.986000
N           2.230000     20.087000     -7.805000
C           1.656000     19.853000    -10.533000
C           1.193000     20.699000     -8.319000
C           0.853000     20.691000     -9.704000
C          -0.352000     21.366000    -10.221000
C          -0.392000     21.596000    -11.594000
C          -1.524000     21.649000     -9.484000
N          -1.484000     22.097000    -12.188000
N          -1.655000     21.564000     -8.124000
C          -2.708000     22.021000    -10.122000
C          -2.654000     22.260000    -11.479000
S          -3.163000     22.030000     -7.791000
N          -3.730000     22.264000     -9.308000
C          -3.749000     22.608000    -12.327000
S          -3.852000     22.087000    -14.084000
C          -4.669000     23.670000    -12.243000
C          -4.882000     23.449000    -14.560000
S          -5.120000     24.627000    -10.848000
C          -5.296000     24.095000    -13.390000
C          -5.217000     23.743000    -15.901000
C          -6.318000     25.495000    -11.830000
C          -6.193000     25.208000    -13.227000
N          -6.373000     24.369000    -16.178000
S          -4.371000     23.016000    -17.247000
C          -6.517000     24.281000    -17.532000
C          -5.513000     23.709000    -18.249000
C           4.164000     18.660000     -8.054000
H           3.258000     18.370000    -10.544000
H           1.472000     19.714000    -11.594000
H           0.641000     21.322000     -7.617000
H           0.517000     21.509000    -12.188000
H          -6.991000     26.126000    -11.264000
H          -6.722000     25.690000    -14.041000
H          -7.451000     24.651000    -17.932000
H          -5.517000     23.436000    -19.296000
H           4.792000     18.586000     -8.950000
C           4.010000     17.209000     -7.423000
H           4.675000     19.293000     -7.317000
H           3.560000     16.520000     -8.149000
H           3.238000     17.255000     -6.645000
C           5.198000     16.485000     -6.752000
H           4.861000     15.519000     -6.358000
C           6.050000     17.306000     -5.758000
H           5.901000     16.182000     -7.539000
H           6.191000     18.373000     -5.971000
H           7.066000     16.891000     -5.741000
C           5.456000     17.196000     -4.361000
H           5.981000     17.896000     -3.698000
C           5.244000     15.784000     -3.704000
H           4.455000     17.638000     -4.430000
H           5.193000     15.906000     -2.615000
H           6.052000     15.058000     -3.860000
H           4.290000     15.267000     -3.863000
$end

--------------------------------------------------------------

             Standard Nuclear Orientation (Angstroms)
    I     Atom           X                Y                Z
 ----------------------------------------------------------------
    1      C      -3.0187542054     3.8427589453     3.0591791219
    2      C      -2.7893479693     2.7177021527     3.8512435084
    3      N      -2.9394162714     3.8535647915     1.7398578093
    4      C      -2.6471635954     1.4865151362     3.2756358866
    5      C      -2.8244234413     2.6142869112     1.1326091087
    6      C      -2.6563200477     1.4139937202     1.8869581689
    7      C      -2.5099236969     0.0235684922     1.2724089082
    8      C      -1.4656791400    -0.8424051972     1.6482132118
    9      C      -3.3580599298    -0.5030648895     0.2120484922
   10      N      -1.3290804389    -2.0990274252     1.2802684184
   11      N      -4.3057018284     0.2887356413    -0.3247380122
   12      C      -3.3930006522    -1.8052363221    -0.0451240296
   13      C      -2.3927322504    -2.6080932176     0.5549175771
   14      S      -5.0771307867    -0.7426665885    -1.3777906238
   15      N      -4.2558953447    -2.1356513410    -1.0570433273
   16      C      -2.3779766395    -4.0593494862     0.3158830300
   17      S      -0.9203998539    -5.0437538509     0.2397452534
   18      C      -3.4599473037    -4.8319468517     0.6726165338
   19      C      -1.8600252871    -6.4985684614     0.6798242173
   20      S      -5.1266967520    -4.3575643963     0.9133582266
   21      C      -3.1933109549    -6.1597861114     0.8736562256
   22      C      -1.4533159329    -7.8365721082     0.6889752998
   23      C      -5.4666606682    -6.0222089313     1.3907931518
   24      C      -4.3758237468    -6.8617709261     1.3139070823
   25      N      -0.2032808207    -8.0767448848     1.1715385139
   26      S      -2.3947152253    -9.1677306977     0.1296809391
   27      C       0.0336931933    -9.5205332114     1.0892974973
   28      C      -1.0378837745   -10.2549036658     0.6149307217
   29      C      -3.0172999422     5.1893105823     3.7225474764
   30      H      -2.9306890531     2.9082298144     4.9108391427
   31      H      -2.6370595384     0.6407078343     3.9567936627
   32      H      -2.7226557365     2.5852303595     0.0489504673
   33      H      -0.8176039080    -0.5954025867     2.4880192634
   34      H      -6.3837745544    -6.3137268571     1.8853519639
   35      H      -4.3344314265    -7.8889716012     1.6568290106
   36      H       0.9836920294    -9.9269640278     1.4088959999
   37      H      -1.1956697359   -11.3210979497     0.5137608683
   38      H      -2.9687802112     5.1012801588     4.8148274223
   39      C      -4.0912188489     6.2590487326     3.4195681510
   40      H      -2.1042093040     5.7551760789     3.5001250712
   41      H      -5.0330408579     5.9737598255     3.9043439167
   42      H      -4.3388725456     6.2620570728     2.3507596572
   43      C      -3.6166364911     7.6897634074     3.6198032750
   44      H      -3.2573663062     7.8106621530     4.6495631633
   45      C      -4.6579391762     8.7764506406     3.3185300183
   46      H      -2.6979932650     7.8109618107     3.0325626342
   47      H      -4.1454158429     9.7439199032     3.3810764698
   48      H      -5.4809339737     8.7919444434     4.0443946788
   49      C      -5.2533382392     8.5693460723     1.9140733071
   50      H      -4.5400188744     8.3841633270     1.1016178716
   51      C      -5.9909797584     9.8033052130     1.4718891509
   52      H      -5.9292130549     7.7051453442     1.9292501014
   53      H      -5.3708748160    10.6940834452     1.3104921202
   54      H      -6.6075612525    10.1398664812     2.3142666042
   55      H      -6.6155736499     9.5363433863     0.6100545648
   56      C      -1.6823295078     1.4958903082    -3.7165461255
   57      C      -0.4911995020     1.6445673161    -4.4557304440
   58      N      -1.7316850099     1.0949830167    -2.4359406523
   59      C       0.7025145483     1.4194688951    -3.7759396917
   60      C      -0.5988202470     0.9769703605    -1.7903405888
   61      C       0.6899833126     1.0637774855    -2.3947733044
   62      C       1.9342920407     0.9631105008    -1.6095975615
   63      C       3.0999343432     0.7050841248    -2.3267651932
   64      C       2.0738669021     1.2627516797    -0.2357067281
   65      N       4.3015467069     0.7067437407    -1.7331104342
   66      N       1.0482718747     1.4654323103     0.6480700547
   67      C       3.3322919487     1.4183318498     0.3469125409
   68      C       4.4344511893     1.1116581219    -0.4229460390
   69      S       1.7398672846     1.7285334729     2.0814515696
   70      N       3.3171262494     1.6916790339     1.6473664303
   71      C       5.8039711595     1.2389406551    -0.0389574869
   72      S       7.1360613017     1.6624379073    -1.2286149714
   73      C       6.5004783924     0.6962766532     1.0572603088
   74      C       8.4084027218     0.8709506738    -0.2814004920
   75      S       5.8682236881     0.1075573476     2.5800664580
   76      C       7.8619719093     0.5333434207     0.9615985867
   77      C       9.7293605210     0.6870634845    -0.7485171740
   78      C       7.5223898608    -0.1927258916     3.1514824618
   79      C       8.4946356275    -0.0611683684     2.1088733369
   80      N      10.7442545879     0.6208879024     0.1292936400
   81      S      10.1538038308     0.8981631878    -2.4311477906
   82      C      11.8797057706     0.6946764067    -0.6237680230
   83      C      11.7518507796     0.7290842941    -1.9771926418
   84      C      -2.9519525011     1.5100194289    -4.4798041571
   85      H      -0.5329285743     2.0429281610    -5.4643687943
   86      H       1.6160686077     1.5714104858    -4.3427118977
   87      H      -0.7014559075     0.6970665597    -0.7430790248
   88      H       3.0401141582     0.3527804857    -3.3558374411
   89      H       7.5976147874    -0.4334041206     4.2040323183
   90      H       9.5498643761    -0.3015008278     2.1679799946
   91      H      12.8081405428     0.7540129721    -0.0726382326
   92      H      12.5220480321     0.9225988230    -2.7121091808
   93      H      -2.6109979060     1.2545104949    -5.4903194458
   94      C      -3.7020616763     2.9104554670    -4.5380547250
   95      H      -3.6778804894     0.7548737605    -4.1515320516
   96      H      -3.0321321792     3.6894983106    -4.9235203092
   97      H      -3.8748412073     3.2484988401    -3.5088521640
   98      C      -5.0703985941     3.0703233712    -5.2365225715
   99      H      -5.4172069856     4.1045821175    -5.1270064299
  100      C      -6.1486039043     2.0095074531    -4.9200989676
  101      H      -4.9111492070     2.9925858924    -6.3200277709
  102      H      -5.8118729273     0.9801679140    -4.7445673113
  103      H      -6.8295362236     1.9350278962    -5.7777433998
  104      C      -6.9489686298     2.4403334925    -3.6992999547
  105      H      -7.6085210228     1.6152195960    -3.4003489576
  106      C      -7.6780723053     3.8326624526    -3.6864587209
  107      H      -6.2289446880     2.4813743203    -2.8734626985
  108      H      -8.4856256092     3.8008491564    -2.9446692793
  109      H      -8.1766733037     4.1198013907    -4.6209234203
  110      H      -7.1349860932     4.7081221673    -3.3105416365
 ----------------------------------------------------------------

   10   -5663.4691733568      3.35E-06 Convergence criterion met
 Total energy in the final basis set = -5663.4691733568

                    Orbital Energies (a.u.)
 --------------------------------------------------------------

 Alpha MOs
 -- Occupied --
-88.989 -88.985 -88.927 -88.926 -88.923 -88.915 -88.911 -88.903
-14.385 -14.382 -14.381 -14.378 -14.347 -14.346 -14.344 -14.342
-14.328 -14.327 -10.266 -10.262 -10.260 -10.254 -10.254 -10.249
-10.246 -10.244 -10.238 -10.237 -10.235 -10.234 -10.233 -10.233
-10.232 -10.229 -10.228 -10.228 -10.228 -10.228 -10.226 -10.226
-10.224 -10.223 -10.221 -10.221 -10.221 -10.219 -10.216 -10.215
-10.214 -10.205 -10.205 -10.205 -10.204 -10.202 -10.201 -10.190
-10.186 -10.183 -10.179 -10.179 -10.178 -10.178 -10.175 -10.174
-10.172 -10.170 -10.170 -10.164  -8.045  -8.040  -7.990  -7.987
 -7.981  -7.974  -7.971  -7.964  -6.010  -6.005  -6.004  -6.003
 -5.999  -5.998  -5.954  -5.951  -5.950  -5.947  -5.947  -5.946
 -5.944  -5.942  -5.939  -5.938  -5.936  -5.935  -5.932  -5.931
 -5.928  -5.927  -5.924  -5.920  -1.041  -1.031  -0.975  -0.955
 -0.952  -0.948  -0.943  -0.935  -0.912  -0.907  -0.901  -0.894
 -0.843  -0.837  -0.830  -0.826  -0.823  -0.813  -0.812  -0.806
 -0.805  -0.798  -0.797  -0.792  -0.786  -0.782  -0.764  -0.763
 -0.746  -0.744  -0.738  -0.735  -0.727  -0.714  -0.709  -0.709
 -0.691  -0.688  -0.674  -0.672  -0.665  -0.651  -0.650  -0.642
 -0.638  -0.627  -0.625  -0.625  -0.616  -0.604  -0.597  -0.597
 -0.590  -0.590  -0.587  -0.584  -0.581  -0.576  -0.557  -0.551
 -0.549  -0.543  -0.541  -0.537  -0.526  -0.520  -0.518  -0.508
 -0.508  -0.507  -0.503  -0.496  -0.484  -0.483  -0.474  -0.471
 -0.470  -0.469  -0.463  -0.459  -0.458  -0.457  -0.449  -0.446
 -0.444  -0.442  -0.435  -0.434  -0.432  -0.430  -0.427  -0.426
 -0.424  -0.421  -0.421  -0.420  -0.417  -0.414  -0.414  -0.413
 -0.410  -0.408  -0.405  -0.400  -0.400  -0.397  -0.397  -0.397
 -0.393  -0.392  -0.391  -0.389  -0.388  -0.387  -0.383  -0.379
 -0.377  -0.373  -0.371  -0.370  -0.368  -0.358  -0.355  -0.354
 -0.352  -0.350  -0.347  -0.344  -0.341  -0.339  -0.338  -0.337
 -0.335  -0.334  -0.333  -0.328  -0.327  -0.326  -0.323  -0.313
 -0.311  -0.309  -0.308  -0.303  -0.302  -0.301  -0.298  -0.297
 -0.296  -0.293  -0.292  -0.291  -0.285  -0.284  -0.282  -0.278
 -0.276  -0.272  -0.268  -0.261  -0.255  -0.251  -0.250  -0.249
 -0.245  -0.240  -0.229  -0.224  -0.195  -0.187

          Ground-State Mulliken Net Atomic Charges

     Atom                 Charge (a.u.)
  ----------------------------------------
      1 C                     0.294817
      2 C                    -0.115720
      3 N                    -0.488439
      4 C                    -0.073537
      5 C                     0.087224
      6 C                     0.021105
      7 C                    -0.006227
      8 C                     0.065081
      9 C                     0.233697
     10 N                    -0.460398
     11 N                    -0.535105
     12 C                     0.244574
     13 C                     0.194326
     14 S                     0.608239
     15 N                    -0.525837
     16 C                    -0.209760
     17 S                     0.353493
     18 C                    -0.129651
     19 C                    -0.198451
     20 S                     0.269586
     21 C                     0.145616
     22 C                     0.025385
     23 C                    -0.307063
     24 C                    -0.071596
     25 N                    -0.430281
     26 S                     0.270713
     27 C                     0.109022
     28 C                    -0.298631
     29 C                    -0.235455
     30 H                     0.087935
     31 H                     0.105135
     32 H                     0.133753
     33 H                     0.096690
     34 H                     0.129787
     35 H                     0.116599
     36 H                     0.120980
     37 H                     0.135728
     38 H                     0.086756
     39 C                    -0.176564
     40 H                     0.115680
     41 H                     0.084257
     42 H                     0.122354
     43 C                    -0.190069
     44 H                     0.077912
     45 C                    -0.173916
     46 H                     0.097639
     47 H                     0.090408
     48 H                     0.095525
     49 C                    -0.173516
     50 H                     0.099476
     51 C                    -0.319052
     52 H                     0.103091
     53 H                     0.101289
     54 H                     0.093158
     55 H                     0.095713
     56 C                     0.285130
     57 C                    -0.123633
     58 N                    -0.492353
     59 C                    -0.077275
     60 C                     0.085794
     61 C                     0.020105
     62 C                     0.057506
     63 C                     0.055437
     64 C                     0.231048
     65 N                    -0.510071
     66 N                    -0.555719
     67 C                     0.251325
     68 C                     0.240472
     69 S                     0.616413
     70 N                    -0.556499
     71 C                    -0.222967
     72 S                     0.291903
     73 C                    -0.111798
     74 C                    -0.232985
     75 S                     0.268064
     76 C                     0.160986
     77 C                     0.048195
     78 C                    -0.318607
     79 C                    -0.053100
     80 N                    -0.421947
     81 S                     0.296433
     82 C                     0.116173
     83 C                    -0.299483
     84 C                    -0.231570
     85 H                     0.100917
     86 H                     0.099484
     87 H                     0.127997
     88 H                     0.118079
     89 H                     0.135728
     90 H                     0.131556
     91 H                     0.107249
     92 H                     0.136208
     93 H                     0.096462
     94 C                    -0.184547
     95 H                     0.115261
     96 H                     0.087584
     97 H                     0.110962
     98 C                    -0.184305
     99 H                     0.105072
    100 C                    -0.175852
    101 H                     0.083180
    102 H                     0.092251
    103 H                     0.089655
    104 C                    -0.179409
    105 H                     0.086031
    106 C                    -0.330001
    107 H                     0.106373
    108 H                     0.102409
    109 H                     0.101906
    110 H                     0.109301
  ----------------------------------------
  Sum of atomic charges =     0.000000

                    Cartesian Multipole Moments
 -----------------------------------------------------------------
    Charge (ESU x 10^10)
                 0.0000
    Dipole Moment (Debye)
         X      -0.4223      Y      -1.4678      Z      -0.7475
       Tot       1.7005
    Quadrupole Moments (Debye-Ang)
        XX    -403.3631     XY      14.1001     YY    -415.9322
        XZ     -15.0158     YZ      -8.2789     ZZ    -416.5298

 Total job time:  94.81s(wall), 1128.26s(cpu)
        *  Thank you very much for using Q-Chem.  Have a nice day.  *
