 Q-Chem 4.4, Q-Chem, Inc., Pleasanton, CA (2016)
 Q-Chem 4.4.2 for Intel X86 Linux

User input:
--------------------------------------------------------------
$comment
SP
$end

$rem
MEM_STATIC 5000
MEM_TOTAL 20000
JOBTYPE SP
EXCHANGE B3LYP
BASIS 6-31g(d,p)
$end

$molecule
0 1
C          27.225000    -15.363000     -1.356000
C          26.037000    -15.827000     -1.970000
N          27.530000    -14.058000     -1.434000
C          25.328000    -14.921000     -2.754000
C          26.796000    -13.211000     -2.190000
C          25.623000    -13.557000     -2.825000
C          24.710000    -12.566000     -3.416000
C          24.492000    -11.355000     -2.834000
C          24.267000    -12.715000     -4.756000
N          23.710000    -10.439000     -3.380000
N          24.541000    -13.726000     -5.557000
C          23.406000    -11.721000     -5.366000
C          23.091000    -10.571000     -4.578000
S          23.852000    -13.419000     -6.968000
N          23.142000    -12.000000     -6.675000
C          22.408000     -9.328000     -5.062000
S          21.785000     -9.030000     -6.749000
C          22.067000     -8.278000     -4.197000
C          21.082000     -7.481000     -6.195000
S          22.259000     -7.949000     -2.468000
C          21.298000     -7.318000     -4.869000
C          20.239000     -6.714000     -7.016000
C          21.424000     -6.429000     -2.745000
C          20.916000     -6.270000     -3.993000
N          19.058000     -6.353000     -6.563000
S          20.580000     -6.378000     -8.704000
C          18.377000     -5.704000     -7.528000
C          19.076000     -5.516000     -8.706000
C          28.073000    -16.206000     -0.394000
H          25.710000    -16.862000     -1.928000
H          24.420000    -15.269000     -3.239000
H          27.068000    -12.157000     -2.147000
H          24.967000    -11.042000     -1.905000
H          21.385000     -5.720000     -1.929000
H          20.292000     -5.450000     -4.331000
H          17.386000     -5.293000     -7.391000
H          18.767000     -4.932000     -9.563000
H          27.903000    -17.288000     -0.459000
C          28.097000    -15.761000      1.079000
H          29.115000    -16.049000     -0.698000
H          28.056000    -14.673000      1.212000
H          29.013000    -16.190000      1.503000
C          26.920000    -16.276000      1.970000
H          26.939000    -17.373000      1.981000
C          25.472000    -15.742000      1.624000
H          27.092000    -16.092000      3.038000
H          25.175000    -16.117000      0.637000
H          25.462000    -14.650000      1.525000
C          24.409000    -16.051000      2.668000
H          23.421000    -15.870000      2.228000
C          24.472000    -15.170000      3.893000
H          24.457000    -17.121000      2.905000
H          24.580000    -14.092000      3.722000
H          25.179000    -15.492000      4.668000
H          23.484000    -15.152000      4.370000
C           8.266000    -18.490000     -2.068000
C           9.353000    -18.076000     -1.296000
N           8.289000    -18.783000     -3.381000
C          10.513000    -17.723000     -1.987000
C           9.409000    -18.388000     -4.004000
C          10.551000    -17.794000     -3.437000
C          11.696000    -17.200000     -4.199000
C          12.996000    -17.408000     -3.841000
C          11.464000    -16.332000     -5.296000
N          14.058000    -16.990000     -4.587000
N          10.246000    -15.985000     -5.782000
C          12.529000    -15.811000     -5.988000
C          13.810000    -16.153000     -5.585000
S          10.575000    -14.942000     -6.960000
N          12.229000    -14.951000     -6.985000
C          14.977000    -15.763000     -6.423000
S          15.087000    -14.339000     -7.592000
C          16.282000    -16.342000     -6.251000
C          16.894000    -14.629000     -7.694000
S          16.787000    -17.770000     -5.438000
C          17.253000    -15.778000     -6.976000
C          17.848000    -13.665000     -8.155000
C          18.379000    -17.564000     -6.039000
C          18.504000    -16.448000     -6.855000
N          17.318000    -12.753000     -8.952000
S          19.481000    -13.305000     -7.541000
C          18.352000    -11.967000     -9.402000
C          19.568000    -12.145000     -8.812000
C           7.007000    -19.026000     -1.365000
H           9.264000    -18.000000     -0.216000
H          11.358000    -17.311000     -1.443000
H           9.445000    -18.490000     -5.088000
H          13.229000    -17.999000     -2.956000
H          19.169000    -18.259000     -5.785000
H          19.387000    -16.170000     -7.420000
H          18.111000    -11.293000    -10.214000
H          20.546000    -11.752000     -9.060000
H           6.777000    -18.214000     -0.664000
C           7.295000    -20.393000     -0.666000
H           6.133000    -19.088000     -2.025000
H           8.102000    -20.105000      0.018000
H           7.661000    -21.120000     -1.401000
C           6.075000    -21.069000      0.079000
H           5.321000    -21.302000     -0.684000
C           5.380000    -20.173000      1.165000
H           6.466000    -21.969000      0.570000
H           4.484000    -20.766000      1.387000
H           4.979000    -19.220000      0.799000
C           6.207000    -19.951000      2.424000
H           6.334000    -20.933000      2.898000
C           5.438000    -19.074000      3.430000
H           7.174000    -19.503000      2.165000
H           4.496000    -19.569000      3.694000
H           5.187000    -18.107000      2.977000
H           6.035000    -18.917000      4.338000
$end

--------------------------------------------------------------

             Standard Nuclear Orientation (Angstroms)
    I     Atom           X                Y                Z
 ----------------------------------------------------------------
    1      C      -7.2877352364     6.1534845798    -1.4025168374
    2      C      -6.0752407328     5.5659020721    -1.8363830327
    3      N      -8.1244399408     5.4305430813    -0.6413238083
    4      C      -5.8920179541     4.2114086735    -1.5719023215
    5      C      -7.8911080321     4.1225185102    -0.3916661591
    6      C      -6.7441858592     3.4550387007    -0.7630288297
    7      C      -6.3961613830     2.1181872436    -0.2564341735
    8      C      -6.6629481756     1.7450773551     1.0251206706
    9      C      -6.0534122552     1.0800306278    -1.1613119975
   10      N      -6.3969899537     0.5313745193     1.4777658414
   11      N      -5.9416729611     1.1956233018    -2.4701094088
   12      C      -5.7551922709    -0.2540695470    -0.6789236015
   13      C      -5.8902865442    -0.4759156678     0.7264954947
   14      S      -5.5776554570    -0.2508667005    -3.0489435216
   15      N      -5.5155961550    -1.1297232859    -1.6971781035
   16      C      -5.8470384347    -1.8037591635     1.4198606596
   17      S      -5.5632690237    -3.4216212299     0.6293549635
   18      C      -5.9093110268    -1.9196851390     2.8161734084
   19      C      -5.5395108249    -4.1860317757     2.2466484018
   20      S      -6.0678408444    -0.7947696782     4.1741054771
   21      C      -5.6850215645    -3.2461730544     3.2094532672
   22      C      -5.1797859661    -5.5320533150     2.4249824746
   23      C      -5.9870368199    -2.1903740756     5.2371732433
   24      C      -5.7085359446    -3.3673684989     4.6223802781
   25      N      -4.2292544247    -5.8334136161     3.2828651925
   26      S      -5.7804735525    -6.8340454629     1.4137891842
   27      C      -3.9780955796    -7.1567923364     3.2407344758
   28      C      -4.7927391919    -7.8756657140     2.3856287211
   29      C      -7.6070533504     7.6484617990    -1.5377058015
   30      H      -5.3367736077     6.0949435195    -2.4319495294
   31      H      -4.9695231676     3.7469943046    -1.9097124200
   32      H      -8.5805350872     3.6244350347     0.2890336184
   33      H      -7.1409550784     2.3995391418     1.7530108894
   34      H      -6.1806362044    -2.0333745912     6.2897550407
   35      H      -5.5254803841    -4.3179010996     5.1112549416
   36      H      -3.2481544959    -7.6498588693     3.8683031242
   37      H      -4.8393280873    -8.9514083526     2.2779567642
   38      H      -6.9995448262     8.1830928336    -2.2786187855
   39      C      -7.6864650360     8.4600613269    -0.2325889521
   40      H      -8.6394176885     7.7017317487    -1.9040597096
   41      H      -8.1004236341     7.8969026089     0.6127538998
   42      H      -8.2911306660     9.3437877395    -0.4698232322
   43      C      -6.3278558687     8.9967640030     0.3246958656
   44      H      -5.8774026876     9.6618288220    -0.4227475892
   45      C      -5.2817535226     7.9201321301     0.8228019705
   46      H      -6.4656988232     9.7218055050     1.1367168876
   47      H      -4.9428649760     7.3230351706    -0.0325533790
   48      H      -5.7460402286     7.1974533179     1.5043723550
   49      C      -4.0997770923     8.4856297523     1.5964492787
   50      H      -3.3262133421     7.7120241374     1.6715390710
   51      C      -4.4218910999     8.8728001976     3.0202107097
   52      H      -3.6667541390     9.3085958382     1.0145635997
   53      H      -4.9929237442     8.1477784261     3.6128776904
   54      H      -4.8525066687     9.8738163100     3.1494197439
   55      H      -3.4971515824     8.8600852078     3.6107123218
   56      C      11.0537160331     0.8221687231     0.8103976576
   57      C       9.9675536915     1.5183161462     1.3438572463
   58      N      11.0404294810     0.0528815471    -0.2933992931
   59      C       8.7110092623     1.2165571643     0.8168585610
   60      C       9.8081158429    -0.2385936570    -0.7349865466
   61      C       8.5775627436     0.2216839755    -0.2326195784
   62      C       7.2256868601    -0.2796713624    -0.6395340913
   63      C       6.1752920405     0.5603023605    -0.8687564021
   64      C       6.9675354730    -1.6705591387    -0.7367249093
   65      N       4.9744538524     0.1456891010    -1.3639003115
   66      N       7.8735336653    -2.6568188712    -0.5208823378
   67      C       5.7250065704    -2.1060698632    -1.1252893634
   68      C       4.7527339573    -1.1607346820    -1.4105284928
   69      S       7.0284681320    -4.0127847904    -0.6969353699
   70      N       5.5404260715    -3.4436990312    -1.1422377672
   71      C       3.4610274515    -1.5884509475    -2.0145037400
   72      S       2.6519532970    -3.2408347158    -1.8679981271
   73      C       2.5473240963    -0.6614847931    -2.6258382861
   74      C       1.1387592484    -2.5070965013    -2.5971243192
   75      S       2.7724383275     0.9517448966    -3.1753758654
   76      C       1.3682197352    -1.1794626602    -2.9835725938
   77      C      -0.1716015648    -3.0769815099    -2.4965329866
   78      C       1.1973786607     0.9543085733    -3.8516017698
   79      C       0.5373029671    -0.2544819813    -3.6782164364
   80      N      -0.1533034712    -4.3814789119    -2.2825126419
   81      S      -1.7406415317    -2.2711911855    -2.2473331967
   82      C      -1.4590245681    -4.8097162942    -2.3165297154
   83      C      -2.4258191041    -3.8490259361    -2.3452065537
   84      C      12.4783284679     1.2062939879     1.2457287864
   85      H      10.1117809719     2.2242665233     2.1568329881
   86      H       7.8232992219     1.6636010021     1.2548399432
   87      H       9.7223233120    -0.9506708953    -1.5549509656
   88      H       6.2958051064     1.6337417217    -0.7273366763
   89      H       0.8041555521     1.8282783542    -4.3547850454
   90      H      -0.4266218022    -0.5179482229    -4.0996812376
   91      H      -1.6011190495    -5.8823017336    -2.3492502539
   92      H      -3.4959220135    -3.9176304459    -2.4955733872
   93      H      12.4026759657     1.1517303454     2.3388639600
   94      C      12.8627588813     2.6244402645     0.7153436475
   95      H      13.2329387349     0.4575058339     0.9751744566
   96      H      12.0745090088     3.2330477509     1.1739372214
   97      H      12.7767385261     2.6518219948    -0.3776159763
   98      C      14.3155412946     3.1357150428     1.0737043045
   99      H      15.0256137178     2.4559175313     0.5851897221
  100      C      14.6573168131     3.1466484572     2.6061229664
  101      H      14.3900143032     4.1625416062     0.6941743588
  102      H      15.7363129054     3.3438462934     2.5810341996
  103      H      14.5804647427     2.1754265413     3.1098964763
  104      C      13.9304479986     4.2179362227     3.4075580855
  105      H      14.2760462169     5.1881941165     3.0277022038
  106      C      14.3398107295     4.1561527441     4.8911789792
  107      H      12.8458772193     4.1048843866     3.2900867824
  108      H      15.4223024401     4.3094875183     4.9735509608
  109      H      14.1141446453     3.1663783210     5.3067754299
  110      H      13.8164037998     4.9308136088     5.4669113221
 ----------------------------------------------------------------

    9   -5663.5266957694      7.15E-06 Convergence criterion met
 Total energy in the final basis set = -5663.5266957694

                    Orbital Energies (a.u.)
 --------------------------------------------------------------

 Alpha MOs
 -- Occupied --
-88.993 -88.987 -88.932 -88.929 -88.927 -88.925 -88.913 -88.909
-14.393 -14.389 -14.384 -14.382 -14.347 -14.347 -14.346 -14.337
-14.329 -14.327 -10.270 -10.268 -10.263 -10.262 -10.259 -10.256
-10.252 -10.249 -10.247 -10.244 -10.239 -10.238 -10.237 -10.236
-10.234 -10.234 -10.232 -10.231 -10.226 -10.224 -10.224 -10.224
-10.223 -10.222 -10.221 -10.221 -10.220 -10.220 -10.216 -10.215
-10.208 -10.206 -10.205 -10.201 -10.201 -10.200 -10.200 -10.195
-10.189 -10.183 -10.183 -10.182 -10.180 -10.179 -10.176 -10.176
-10.175 -10.173 -10.172 -10.169  -8.049  -8.043  -7.993  -7.987
 -7.986  -7.983  -7.973  -7.970  -6.014  -6.008  -6.008  -6.006
 -6.002  -6.001  -5.957  -5.954  -5.952  -5.950  -5.950  -5.948
 -5.947  -5.947  -5.944  -5.944  -5.943  -5.939  -5.937  -5.935
 -5.934  -5.931  -5.929  -5.927  -1.050  -1.043  -0.982  -0.968
 -0.963  -0.962  -0.940  -0.938  -0.916  -0.914  -0.910  -0.908
 -0.845  -0.839  -0.838  -0.834  -0.814  -0.810  -0.807  -0.806
 -0.802  -0.801  -0.796  -0.792  -0.783  -0.783  -0.773  -0.764
 -0.752  -0.744  -0.743  -0.739  -0.727  -0.724  -0.710  -0.707
 -0.696  -0.689  -0.679  -0.670  -0.657  -0.655  -0.652  -0.645
 -0.638  -0.637  -0.627  -0.625  -0.615  -0.609  -0.597  -0.597
 -0.594  -0.594  -0.586  -0.585  -0.577  -0.577  -0.558  -0.557
 -0.553  -0.543  -0.542  -0.538  -0.529  -0.524  -0.519  -0.517
 -0.512  -0.506  -0.500  -0.495  -0.492  -0.487  -0.480  -0.476
 -0.474  -0.473  -0.470  -0.466  -0.460  -0.455  -0.453  -0.450
 -0.447  -0.446  -0.446  -0.439  -0.435  -0.434  -0.431  -0.430
 -0.429  -0.428  -0.422  -0.421  -0.420  -0.417  -0.414  -0.413
 -0.410  -0.410  -0.406  -0.402  -0.401  -0.398  -0.397  -0.396
 -0.392  -0.391  -0.390  -0.388  -0.388  -0.386  -0.384  -0.382
 -0.381  -0.378  -0.377  -0.374  -0.367  -0.360  -0.358  -0.357
 -0.355  -0.353  -0.350  -0.347  -0.346  -0.345  -0.344  -0.344
 -0.341  -0.340  -0.336  -0.334  -0.329  -0.325  -0.323  -0.320
 -0.317  -0.315  -0.312  -0.311  -0.304  -0.302  -0.300  -0.298
 -0.298  -0.296  -0.296  -0.293  -0.290  -0.283  -0.282  -0.279
 -0.276  -0.269  -0.268  -0.267  -0.256  -0.255  -0.253  -0.251
 -0.247  -0.246  -0.239  -0.235  -0.197  -0.186

          Ground-State Mulliken Net Atomic Charges

     Atom                 Charge (a.u.)
  ----------------------------------------
      1 C                     0.273336
      2 C                    -0.114337
      3 N                    -0.480982
      4 C                    -0.071400
      5 C                     0.057247
      6 C                     0.066597
      7 C                     0.019915
      8 C                     0.065181
      9 C                     0.232502
     10 N                    -0.508009
     11 N                    -0.537188
     12 C                     0.184577
     13 C                     0.292273
     14 S                     0.606525
     15 N                    -0.566890
     16 C                    -0.225635
     17 S                     0.304216
     18 C                    -0.098445
     19 C                    -0.221817
     20 S                     0.286049
     21 C                     0.175873
     22 C                     0.017432
     23 C                    -0.321314
     24 C                    -0.032393
     25 N                    -0.404609
     26 S                     0.270971
     27 C                     0.123672
     28 C                    -0.299998
     29 C                    -0.217162
     30 H                     0.093395
     31 H                     0.094557
     32 H                     0.094417
     33 H                     0.121462
     34 H                     0.129492
     35 H                     0.112756
     36 H                     0.116156
     37 H                     0.131884
     38 H                     0.093847
     39 C                    -0.173001
     40 H                     0.120038
     41 H                     0.119005
     42 H                     0.090908
     43 C                    -0.187474
     44 H                     0.079125
     45 C                    -0.166904
     46 H                     0.089745
     47 H                     0.086679
     48 H                     0.090158
     49 C                    -0.175063
     50 H                     0.091250
     51 C                    -0.318430
     52 H                     0.091106
     53 H                     0.102463
     54 H                     0.104600
     55 H                     0.096880
     56 C                     0.240812
     57 C                    -0.094680
     58 N                    -0.462534
     59 C                    -0.089701
     60 C                     0.092987
     61 C                     0.032892
     62 C                     0.029164
     63 C                     0.047027
     64 C                     0.229680
     65 N                    -0.534222
     66 N                    -0.530855
     67 C                     0.236695
     68 C                     0.307883
     69 S                     0.605273
     70 N                    -0.566275
     71 C                    -0.245226
     72 S                     0.356244
     73 C                    -0.115408
     74 C                    -0.236914
     75 S                     0.296778
     76 C                     0.156887
     77 C                     0.050905
     78 C                    -0.316892
     79 C                    -0.076326
     80 N                    -0.423457
     81 S                     0.272701
     82 C                     0.123938
     83 C                    -0.308975
     84 C                    -0.222867
     85 H                     0.098768
     86 H                     0.096353
     87 H                     0.098019
     88 H                     0.112075
     89 H                     0.131067
     90 H                     0.110290
     91 H                     0.108243
     92 H                     0.146780
     93 H                     0.091454
     94 C                    -0.170367
     95 H                     0.108602
     96 H                     0.088103
     97 H                     0.106434
     98 C                    -0.187332
     99 H                     0.095261
    100 C                    -0.171238
    101 H                     0.093743
    102 H                     0.087857
    103 H                     0.091639
    104 C                    -0.169286
    105 H                     0.094576
    106 C                    -0.316737
    107 H                     0.091790
    108 H                     0.104197
    109 H                     0.100935
    110 H                     0.098002
  ----------------------------------------
  Sum of atomic charges =     0.000000

                    Cartesian Multipole Moments
 -----------------------------------------------------------------
    Charge (ESU x 10^10)
                 0.0000
    Dipole Moment (Debye)
         X      -1.4807      Y      -0.3540      Z       0.6882
       Tot       1.6707
    Quadrupole Moments (Debye-Ang)
        XX    -468.3107     XY      34.3636     YY    -405.2419
        XZ      18.0952     YZ     -11.9822     ZZ    -430.9200

 Total job time:  81.45s(wall), 962.64s(cpu)
        *  Thank you very much for using Q-Chem.  Have a nice day.  *
