 Q-Chem 4.4, Q-Chem, Inc., Pleasanton, CA (2016)
 Q-Chem 4.4.2 for Intel X86 Linux

User input:
--------------------------------------------------------------
$comment
SP
$end

$rem
MEM_STATIC 5000
MEM_TOTAL 20000
JOBTYPE SP
EXCHANGE B3LYP
BASIS 6-31g(d,p)
$end

$molecule
0 1
C          10.750000    -15.784000    -10.305000
C          11.325000    -16.931000     -9.711000
N           9.511000    -15.371000    -10.071000
C          10.460000    -17.662000     -8.910000
C           8.662000    -16.220000     -9.408000
C           9.100000    -17.352000     -8.722000
C           8.234000    -18.203000     -7.768000
C           8.529000    -19.600000     -7.583000
C           7.143000    -17.691000     -6.978000
N           7.814000    -20.416000     -6.790000
N           6.817000    -16.392000     -6.969000
C           6.465000    -18.519000     -6.170000
C           6.727000    -19.913000     -6.138000
S           5.405000    -16.410000     -5.958000
N           5.499000    -17.947000     -5.452000
C           6.043000    -20.960000     -5.386000
S           6.900000    -22.306000     -4.644000
C           4.722000    -21.132000     -5.221000
C           5.370000    -22.870000     -3.837000
S           3.341000    -20.215000     -5.886000
C           4.365000    -22.186000     -4.377000
C           5.313000    -23.737000     -2.738000
C           2.232000    -21.367000     -5.068000
C           2.939000    -22.282000     -4.337000
N           4.213000    -23.830000     -1.944000
S           6.768000    -24.253000     -2.045000
C           4.569000    -24.669000     -0.937000
C           5.870000    -25.078000     -0.881000
C          11.613000    -14.866000    -11.196000
H          12.370000    -17.209000     -9.812000
H          10.806000    -18.569000     -8.423000
H           7.633000    -15.886000     -9.284000
H           9.369000    -20.089000     -8.072000
H           1.157000    -21.306000     -5.175000
H           2.469000    -23.061000     -3.747000
H           3.790000    -24.853000     -0.209000
H           6.422000    -25.711000     -0.199000
H          12.343000    -15.448000    -11.772000
C          12.254000    -13.779000    -10.364000
H          11.008000    -14.526000    -12.047000
H          12.890000    -14.249000     -9.603000
H          11.459000    -13.131000     -9.975000
C          13.195000    -12.859000    -11.210000
H          12.715000    -12.393000    -12.079000
C          14.504000    -13.437000    -11.660000
H          13.417000    -12.038000    -10.518000
H          14.279000    -14.185000    -12.430000
H          14.973000    -13.897000    -10.781000
C          15.432000    -12.351000    -12.290000
H          14.945000    -11.826000    -13.121000
C          16.753000    -13.015000    -12.764000
H          15.687000    -11.614000    -11.520000
H          17.249000    -13.465000    -11.895000
H          17.393000    -12.266000    -13.246000
H          16.493000    -13.803000    -13.482000
C           8.266000    -18.490000     -2.068000
C           9.353000    -18.076000     -1.296000
N           8.289000    -18.783000     -3.381000
C          10.513000    -17.723000     -1.987000
C           9.409000    -18.388000     -4.004000
C          10.551000    -17.794000     -3.437000
C          11.696000    -17.200000     -4.199000
C          12.996000    -17.408000     -3.841000
C          11.464000    -16.332000     -5.296000
N          14.058000    -16.990000     -4.587000
N          10.246000    -15.985000     -5.782000
C          12.529000    -15.811000     -5.988000
C          13.810000    -16.153000     -5.585000
S          10.575000    -14.942000     -6.960000
N          12.229000    -14.951000     -6.985000
C          14.977000    -15.763000     -6.423000
S          15.087000    -14.339000     -7.592000
C          16.282000    -16.342000     -6.251000
C          16.894000    -14.629000     -7.694000
S          16.787000    -17.770000     -5.438000
C          17.253000    -15.778000     -6.976000
C          17.848000    -13.665000     -8.155000
C          18.379000    -17.564000     -6.039000
C          18.504000    -16.448000     -6.855000
N          17.318000    -12.753000     -8.952000
S          19.481000    -13.305000     -7.541000
C          18.352000    -11.967000     -9.402000
C          19.568000    -12.145000     -8.812000
C           7.007000    -19.026000     -1.365000
H           9.264000    -18.000000     -0.216000
H          11.358000    -17.311000     -1.443000
H           9.445000    -18.490000     -5.088000
H          13.229000    -17.999000     -2.956000
H          19.169000    -18.259000     -5.785000
H          19.387000    -16.170000     -7.420000
H          18.111000    -11.293000    -10.214000
H          20.546000    -11.752000     -9.060000
H           6.777000    -18.214000     -0.664000
C           7.295000    -20.393000     -0.666000
H           6.133000    -19.088000     -2.025000
H           8.102000    -20.105000      0.018000
H           7.661000    -21.120000     -1.401000
C           6.075000    -21.069000      0.079000
H           5.321000    -21.302000     -0.684000
C           5.380000    -20.173000      1.165000
H           6.466000    -21.969000      0.570000
H           4.484000    -20.766000      1.387000
H           4.979000    -19.220000      0.799000
C           6.207000    -19.951000      2.424000
H           6.334000    -20.933000      2.898000
C           5.438000    -19.074000      3.430000
H           7.174000    -19.503000      2.165000
H           4.496000    -19.569000      3.694000
H           5.187000    -18.107000      2.977000
H           6.035000    -18.917000      4.338000
$end

--------------------------------------------------------------

             Standard Nuclear Orientation (Angstroms)
    I     Atom           X                Y                Z
 ----------------------------------------------------------------
    1      C      -3.2940558095     3.7397704412     0.4380796624
    2      C      -2.8889430128     2.7302674346     1.3413278572
    3      N      -2.4743865801     4.3465627710    -0.4106790918
    4      C      -1.5271506778     2.4662476234     1.3398528533
    5      C      -1.1250140681     4.1619516746    -0.2485570175
    6      C      -0.5851561088     3.1615561336     0.5586766199
    7      C       0.9041314178     2.7552389004     0.5933460459
    8      C       1.4669626763     2.1888994134     1.7914026221
    9      C       1.8044878997     2.8518944100    -0.5276093136
   10      N       2.7559528591     1.8290500747     1.9136432126
   11      N       1.3982830560     3.2646839271    -1.7352352654
   12      C       3.0783685384     2.4565126995    -0.3896476470
   13      C       3.5980006509     2.0314364619     0.8602310110
   14      S       2.9011428026     3.2780070977    -2.6055364060
   15      N       3.8238763072     2.5484541382    -1.4903878246
   16      C       4.9622982605     1.6451477020     1.2052556864
   17      S       5.3209797600     0.3189769552     2.3049591611
   18      C       6.1077512334     2.2505003352     0.8540638923
   19      C       7.0983545023     0.4659555605     1.9449851135
   20      S       6.3900152417     3.7435577058    -0.0847554289
   21      C       7.2710673983     1.6000048996     1.2714991433
   22      C       8.0539232282    -0.5281378033     2.1927870383
   23      C       8.1534305459     3.5329459916     0.1837928362
   24      C       8.4025383988     2.3791396388     0.8752486757
   25      N       9.2672271194    -0.5368626063     1.5788631461
   26      S       7.5266776605    -2.0152051039     2.8044838219
   27      C       9.8601240241    -1.6926792084     1.9754324875
   28      C       9.1178709389    -2.5651866823     2.7175976077
   29      C      -4.7874988541     4.1096682016     0.3190102739
   30      H      -3.5738774462     2.1544082566     1.9567634988
   31      H      -1.1180728643     1.7173421075     2.0116637425
   32      H      -0.4702472750     4.7201894010    -0.9159580121
   33      H       0.8731702330     2.0028962479     2.6839581424
   34      H       8.8797930710     4.2529636474    -0.1694309703
   35      H       9.4017532266     2.0449072281     1.1315676635
   36      H      10.8506843789    -1.8514995640     1.5701581629
   37      H       9.3196512611    -3.5399890356     3.1413452608
   38      H      -5.2900014099     4.0401476650     1.2916654422
   39      C      -5.4528313733     3.2694182780    -0.7468164967
   40      H      -4.8754974176     5.1974998025     0.1977474973
   41      H      -5.3616075104     2.2120156605    -0.4673618290
   42      H      -5.0160629106     3.5369841545    -1.7168122759
   43      C      -6.9860632173     3.5586269014    -0.8615138582
   44      H      -7.2387081319     4.6105567141    -1.0413226907
   45      C      -7.8686856590     3.0535211004     0.2411695756
   46      H      -7.2650732096     3.0256647404    -1.7781892420
   47      H      -7.6580005249     3.6631643675     1.1282861751
   48      H      -7.6065020618     2.0010977479     0.4081032399
   49      C      -9.3820700150     3.2081254208    -0.1098935171
   50      H      -9.6426966775     4.2444021045    -0.3580051405
   51      C     -10.2407875394     2.6998512992     1.0795915104
   52      H      -9.6096413784     2.5791103246    -0.9780209751
   53      H     -10.0081537263     1.6414726266     1.2510356540
   54      H     -11.3051257779     2.8442371393     0.8576414185
   55      H      -9.9612600657     3.2813956768     1.9671378632
   56      C       3.4966632707    -1.8433842553    -1.5757174993
   57      C       2.8106733870    -3.0144182525    -1.9028967423
   58      N       3.0575056501    -0.8654874657    -0.7625720921
   59      C       1.4663409458    -3.0762047241    -1.5332445824
   60      C       1.7514223992    -0.9506225053    -0.4702493821
   61      C       0.8448285186    -1.9587406458    -0.8447815576
   62      C      -0.6403755227    -1.9126094692    -0.6536118156
   63      C      -1.3520679993    -2.9888073818    -0.2100806761
   64      C      -1.3795783066    -0.7521285085    -0.9964239857
   65      N      -2.6797202037    -2.9384496191     0.0963303547
   66      N      -0.8546415672     0.4028459706    -1.4766368263
   67      C      -2.7378918386    -0.7281303714    -0.7990957360
   68      C      -3.3484277904    -1.8528462921    -0.2675000726
   69      S      -2.1363450396     1.3330338394    -1.7518835114
   70      N      -3.3788758539     0.3909546444    -1.1995919527
   71      C      -4.7803653234    -1.7953245162     0.1355869488
   72      S      -6.0862332277    -0.6774793011    -0.5364012146
   73      C      -5.3897425045    -2.7925115223     0.9735174507
   74      C      -7.3350893347    -1.6971071442     0.3356483742
   75      S      -4.6959114046    -3.9852793386     1.9987400319
   76      C      -6.7137521485    -2.6800787553     1.1181526317
   77      C      -8.7332130712    -1.7135453307     0.0243401611
   78      C      -6.2501112810    -4.3955077122     2.5939512764
   79      C      -7.2590883625    -3.6215474476     2.0372756457
   80      N      -9.1417261070    -0.6105994183    -0.5793819719
   81      S      -9.8686345392    -3.0856434610    -0.0137362190
   82      C     -10.5052879037    -0.7138343335    -0.7190020952
   83      C     -11.0686812941    -1.9202747525    -0.4265479909
   84      C       5.0122943654    -1.7661459383    -1.8276750892
   85      H       3.3073237690    -3.8073898501    -2.4548310169
   86      H       0.8633508755    -3.9259205400    -1.8399871574
   87      H       1.3057354196    -0.1283164671     0.0882592533
   88      H      -0.8449632134    -3.9322330477    -0.0111139727
   89      H      -6.3806286789    -5.1794283129     3.3288490249
   90      H      -8.3039973277    -3.6359361919     2.3273725582
   91      H     -11.0165268186     0.1909702623    -1.0217634128
   92      H     -12.1049935475    -2.2212827912    -0.3377331606
   93      H       5.0795469742    -2.0454171340    -2.8865092055
   94      C       5.7881733324    -2.7315060349    -0.8756636856
   95      H       5.4105029470    -0.7452731624    -1.7769927355
   96      H       5.3367078901    -3.6924171128    -1.1493018680
   97      H       5.5617484679    -2.4890904521     0.1696479741
   98      C       7.3633297382    -2.7351433567    -1.0144803529
   99      H       7.7132406929    -1.7324675101    -0.7366720188
  100      C       7.9028217327    -3.0354223481    -2.4580931525
  101      H       7.7369858085    -3.5121121121    -0.3357589858
  102      H       8.9672269596    -2.7968794331    -2.3402466822
  103      H       7.5641764755    -2.3425583498    -3.2379808815
  104      C       7.7189938343    -4.4765462581    -2.9137939094
  105      H       8.3238629970    -5.1012839773    -2.2437453454
  106      C       8.2886617973    -4.6736670676    -4.3312380171
  107      H       6.6584520227    -4.7526609989    -2.8703690805
  108      H       9.3563410362    -4.4243863201    -4.3289682736
  109      H       7.7931282633    -3.9962820522    -5.0375630538
  110      H       8.1572282733    -5.7138940933    -4.6570830165
 ----------------------------------------------------------------

   10   -5663.4960887662      3.99E-06 Convergence criterion met
 Total energy in the final basis set = -5663.4960887662

                    Orbital Energies (a.u.)
 --------------------------------------------------------------

 Alpha MOs
 -- Occupied --
-88.983 -88.983 -88.930 -88.929 -88.922 -88.916 -88.911 -88.905
-14.387 -14.384 -14.383 -14.380 -14.347 -14.346 -14.342 -14.341
-14.332 -14.329 -10.267 -10.260 -10.259 -10.256 -10.250 -10.249
-10.249 -10.247 -10.243 -10.240 -10.239 -10.235 -10.234 -10.232
-10.231 -10.229 -10.227 -10.227 -10.226 -10.226 -10.226 -10.225
-10.225 -10.224 -10.224 -10.222 -10.221 -10.220 -10.217 -10.216
-10.216 -10.208 -10.204 -10.202 -10.201 -10.201 -10.200 -10.194
-10.180 -10.178 -10.178 -10.177 -10.175 -10.172 -10.172 -10.172
-10.171 -10.164 -10.164 -10.162  -8.039  -8.037  -7.990  -7.986
 -7.986  -7.975  -7.972  -7.965  -6.004  -6.002  -5.998  -5.997
 -5.996  -5.995  -5.954  -5.950  -5.950  -5.949  -5.947  -5.946
 -5.946  -5.943  -5.942  -5.940  -5.936  -5.936  -5.932  -5.931
 -5.929  -5.928  -5.926  -5.920  -1.039  -1.035  -0.974  -0.972
 -0.962  -0.953  -0.941  -0.938  -0.915  -0.913  -0.905  -0.901
 -0.841  -0.839  -0.833  -0.823  -0.819  -0.811  -0.811  -0.805
 -0.801  -0.800  -0.799  -0.793  -0.782  -0.779  -0.765  -0.763
 -0.746  -0.745  -0.739  -0.736  -0.726  -0.721  -0.705  -0.705
 -0.691  -0.689  -0.674  -0.669  -0.654  -0.651  -0.644  -0.643
 -0.636  -0.631  -0.626  -0.624  -0.609  -0.606  -0.598  -0.597
 -0.594  -0.592  -0.586  -0.584  -0.577  -0.576  -0.554  -0.554
 -0.551  -0.543  -0.540  -0.538  -0.525  -0.523  -0.519  -0.512
 -0.507  -0.506  -0.496  -0.495  -0.487  -0.480  -0.473  -0.473
 -0.471  -0.469  -0.466  -0.465  -0.460  -0.459  -0.450  -0.447
 -0.446  -0.440  -0.439  -0.437  -0.436  -0.433  -0.431  -0.428
 -0.426  -0.425  -0.423  -0.419  -0.418  -0.414  -0.413  -0.411
 -0.410  -0.405  -0.403  -0.401  -0.398  -0.397  -0.395  -0.394
 -0.393  -0.391  -0.386  -0.386  -0.383  -0.382  -0.380  -0.377
 -0.377  -0.375  -0.372  -0.366  -0.359  -0.357  -0.356  -0.354
 -0.351  -0.349  -0.348  -0.344  -0.343  -0.341  -0.339  -0.338
 -0.336  -0.331  -0.329  -0.329  -0.326  -0.323  -0.320  -0.315
 -0.313  -0.310  -0.308  -0.305  -0.303  -0.302  -0.299  -0.297
 -0.295  -0.295  -0.293  -0.292  -0.288  -0.285  -0.283  -0.281
 -0.277  -0.275  -0.269  -0.265  -0.258  -0.255  -0.250  -0.249
 -0.246  -0.242  -0.236  -0.229  -0.191  -0.188

          Ground-State Mulliken Net Atomic Charges

     Atom                 Charge (a.u.)
  ----------------------------------------
      1 C                     0.237671
      2 C                    -0.087997
      3 N                    -0.463132
      4 C                    -0.116497
      5 C                     0.044034
      6 C                     0.070156
      7 C                     0.028778
      8 C                     0.053379
      9 C                     0.282788
     10 N                    -0.508380
     11 N                    -0.591329
     12 C                     0.257848
     13 C                     0.275543
     14 S                     0.583134
     15 N                    -0.532101
     16 C                    -0.204035
     17 S                     0.308674
     18 C                    -0.110337
     19 C                    -0.263308
     20 S                     0.240260
     21 C                     0.200340
     22 C                     0.055635
     23 C                    -0.300893
     24 C                    -0.050159
     25 N                    -0.439883
     26 S                     0.290528
     27 C                     0.123121
     28 C                    -0.312230
     29 C                    -0.213008
     30 H                     0.107590
     31 H                     0.088772
     32 H                     0.119384
     33 H                     0.113114
     34 H                     0.134405
     35 H                     0.118461
     36 H                     0.105491
     37 H                     0.135409
     38 H                     0.092063
     39 C                    -0.187007
     40 H                     0.107917
     41 H                     0.125181
     42 H                     0.105822
     43 C                    -0.184547
     44 H                     0.082217
     45 C                    -0.169645
     46 H                     0.088683
     47 H                     0.082691
     48 H                     0.109169
     49 C                    -0.178741
     50 H                     0.087805
     51 C                    -0.321496
     52 H                     0.097528
     53 H                     0.114285
     54 H                     0.088706
     55 H                     0.097794
     56 C                     0.243939
     57 C                    -0.095380
     58 N                    -0.476782
     59 C                    -0.088365
     60 C                     0.098017
     61 C                     0.032611
     62 C                     0.026901
     63 C                     0.045507
     64 C                     0.226518
     65 N                    -0.534556
     66 N                    -0.543005
     67 C                     0.235508
     68 C                     0.308220
     69 S                     0.644108
     70 N                    -0.583245
     71 C                    -0.247990
     72 S                     0.358796
     73 C                    -0.116425
     74 C                    -0.245372
     75 S                     0.295696
     76 C                     0.156090
     77 C                     0.056810
     78 C                    -0.315740
     79 C                    -0.077319
     80 N                    -0.429939
     81 S                     0.273580
     82 C                     0.125972
     83 C                    -0.312167
     84 C                    -0.226477
     85 H                     0.099913
     86 H                     0.096725
     87 H                     0.094355
     88 H                     0.110997
     89 H                     0.133052
     90 H                     0.112189
     91 H                     0.114143
     92 H                     0.139186
     93 H                     0.089796
     94 C                    -0.179386
     95 H                     0.118507
     96 H                     0.084441
     97 H                     0.114782
     98 C                    -0.191204
     99 H                     0.110826
    100 C                    -0.174296
    101 H                     0.091241
    102 H                     0.088463
    103 H                     0.091463
    104 C                    -0.167973
    105 H                     0.092122
    106 C                    -0.316297
    107 H                     0.090769
    108 H                     0.103627
    109 H                     0.100778
    110 H                     0.096617
  ----------------------------------------
  Sum of atomic charges =     0.000000

                    Cartesian Multipole Moments
 -----------------------------------------------------------------
    Charge (ESU x 10^10)
                 0.0000
    Dipole Moment (Debye)
         X      -0.1774      Y      -3.9119      Z       0.5206
       Tot       3.9504
    Quadrupole Moments (Debye-Ang)
        XX    -393.0222     XY       5.0095     YY    -430.5273
        XZ     -11.4527     YZ      -8.5274     ZZ    -442.2620

 Total job time:  105.74s(wall), 1273.42s(cpu)
        *  Thank you very much for using Q-Chem.  Have a nice day.  *
