 Q-Chem 4.4, Q-Chem, Inc., Pleasanton, CA (2016)
 Q-Chem 4.4.2 for Intel X86 Linux

User input:
--------------------------------------------------------------
$comment
SP
$end

$rem
MEM_STATIC 5000
MEM_TOTAL 20000
JOBTYPE SP
EXCHANGE B3LYP
BASIS 6-31g(d,p)
$end

$molecule
0 1
C         -29.784000      1.649000     -0.675000
C         -29.032000      1.161000     -1.727000
N         -29.894000      2.962000     -0.298000
C         -28.309000      2.146000     -2.477000
C         -29.209000      3.865000     -1.100000
C         -28.406000      3.529000     -2.277000
C         -27.758000      4.491000     -3.251000
C         -26.873000      4.053000     -4.260000
C         -28.054000      5.887000     -3.279000
N         -26.484000      4.799000     -5.255000
N         -28.994000      6.608000     -2.510000
C         -27.514000      6.691000     -4.339000
C         -26.842000      6.068000     -5.443000
S         -28.918000      8.110000     -3.120000
N         -27.973000      7.930000     -4.365000
C         -26.644000      6.715000     -6.817000
S         -27.139000      8.324000     -7.318000
C         -26.219000      5.979000     -7.903000
C         -26.789000      7.964000     -9.011000
S         -25.751000      4.318000     -8.040000
C         -26.244000      6.662000     -9.119000
C         -27.151000      8.688000    -10.195000
C         -25.798000      4.509000     -9.781000
C         -26.044000      5.749000    -10.220000
N         -26.509000      8.492000    -11.344000
S         -28.395000      9.892000    -10.292000
C         -27.112000      9.128000    -12.405000
C         -28.142000      9.904000    -12.090000
C         -30.614000      0.668000      0.211000
H         -28.953000      0.100000     -1.942000
H         -27.674000      1.782000     -3.279000
H         -29.353000      4.867000     -0.698000
H         -26.560000      3.014000     -4.351000
H         -25.689000      3.604000    -10.364000
H         -26.210000      5.931000    -11.276000
H         -26.766000      9.064000    -13.428000
H         -28.766000     10.505000    -12.738000
H         -31.484000      1.236000      0.563000
C         -29.919000      0.177000      1.442000
H         -31.064000     -0.162000     -0.347000
H         -29.452000      1.036000      1.941000
H         -29.085000     -0.440000      1.086000
C         -30.825000     -0.612000      2.372000
H         -31.362000      0.108000      3.002000
C         -30.066000     -1.635000      3.297000
H         -31.619000     -1.094000      1.788000
H         -29.859000     -2.482000      2.631000
H         -30.800000     -1.983000      4.035000
C         -28.784000     -1.063000      4.063000
H         -28.005000     -0.645000      3.414000
C         -28.254000     -2.033000      5.142000
H         -29.221000     -0.200000      4.580000
H         -28.001000     -2.929000      4.562000
H         -29.019000     -2.192000      5.913000
H         -27.436000     -1.639000      5.758000
C         -30.383000     -5.273000     -0.068000
C         -29.495000     -6.233000     -0.511000
N         -29.990000     -3.985000      0.114000
C         -28.242000     -5.911000     -1.010000
C         -28.727000     -3.712000     -0.213000
C         -27.727000     -4.611000     -0.777000
C         -26.280000     -4.252000     -1.204000
C         -25.246000     -5.172000     -1.258000
C         -25.937000     -2.912000     -1.480000
N         -23.955000     -4.882000     -1.528000
N         -26.828000     -1.919000     -1.613000
C         -24.648000     -2.568000     -1.777000
C         -23.621000     -3.611000     -1.790000
S         -25.892000     -0.555000     -1.927000
N         -24.406000     -1.283000     -2.097000
C         -22.158000     -3.385000     -2.063000
S         -21.465000     -1.814000     -2.455000
C         -21.173000     -4.303000     -1.777000
C         -19.799000     -2.478000     -2.419000
S         -21.269000     -5.989000     -1.458000
C         -19.874000     -3.813000     -2.089000
C         -18.619000     -1.664000     -2.444000
C         -19.463000     -5.964000     -1.349000
C         -18.923000     -4.775000     -1.816000
N         -18.825000     -0.435000     -2.259000
S         -17.115000     -2.161000     -3.164000
C         -17.741000      0.267000     -2.749000
C         -16.658000     -0.536000     -3.173000
C         -31.819000     -5.656000      0.302000
H         -29.943000     -7.215000     -0.629000
H         -27.615000     -6.691000     -1.430000
H         -28.479000     -2.710000      0.132000
H         -25.390000     -6.227000     -1.032000
H         -18.969000     -6.865000     -1.008000
H         -17.853000     -4.600000     -1.800000
H         -17.648000      1.342000     -2.664000
H         -15.625000     -0.345000     -3.433000
H         -32.416000     -5.726000     -0.615000
C         -32.555000     -4.697000      1.290000
H         -31.798000     -6.628000      0.810000
H         -32.696000     -3.707000      0.840000
H         -31.933000     -4.524000      2.177000
C         -33.950000     -5.299000      1.748000
H         -34.523000     -4.547000      2.304000
C         -33.914000     -6.602000      2.525000
H         -34.430000     -5.467000      0.776000
H         -33.604000     -6.432000      3.564000
H         -33.200000     -7.368000      2.198000
C         -35.262000     -7.298000      2.543000
H         -36.000000     -6.495000      2.661000
C         -35.442000     -8.463000      3.574000
H         -35.430000     -7.682000      1.529000
H         -36.478000     -8.820000      3.521000
H         -35.271000     -8.037000      4.571000
H         -34.778000     -9.310000      3.360000
$end

--------------------------------------------------------------

             Standard Nuclear Orientation (Angstroms)
    I     Atom           X                Y                Z
 ----------------------------------------------------------------
    1      C       0.5800013699     3.7926508630    -1.4212868905
    2      C       0.3189130810     2.7762736815    -0.5217523829
    3      N      -0.2589221013     4.2343324686    -2.4108942716
    4      C      -0.9593147948     2.1422857703    -0.6619195185
    5      C      -1.4986581534     3.6106555357    -2.4547075633
    6      C      -1.9587962344     2.5529810217    -1.5532467661
    7      C      -3.3442943982     1.9450926523    -1.4833141652
    8      C      -3.6287928867     0.8188958062    -0.6808858048
    9      C      -4.4752184829     2.5076949509    -2.1479233498
   10      N      -4.8359770914     0.4123909215    -0.4064371310
   11      N      -4.5566592110     3.6998639668    -2.9008525932
   12      C      -5.7762255283     1.9557418297    -1.8942613313
   13      C      -5.9533478625     0.9793160843    -0.8580425115
   14      S      -6.1343385161     3.8187679426    -3.2623354487
   15      N      -6.7689914078     2.6436215458    -2.4306524243
   16      C      -7.2894990067     0.6664293703    -0.1779755853
   17      S      -8.8566617685     1.3762635398    -0.5315902479
   18      C      -7.3498550878    -0.0920622325     0.9721394663
   19      C      -9.5707939485     0.6540749847     0.9129885559
   20      S      -6.1102419755    -0.9042793644     1.8667771932
   21      C      -8.6100227624    -0.1540258845     1.5670410866
   22      C     -10.8256073500     0.9304119620     1.5502931945
   23      C      -7.2756414174    -1.1418062437     3.1533214491
   24      C      -8.5222183826    -0.7348127341     2.8864148116
   25      N     -11.3734452606     0.0611268986     2.3958687986
   26      S     -11.7847659103     2.3529809172     1.2995474585
   27      C     -12.4710123496     0.5740857458     3.0485905665
   28      C     -12.8559558860     1.7801306865     2.6491220764
   29      C       1.9404830475     4.5554581058    -1.3623656280
   30      H       1.0495844611     2.4454234566     0.2095782284
   31      H      -1.1685289584     1.3097308387     0.0029163407
   32      H      -2.0687894175     4.0265753721    -3.2843490710
   33      H      -2.8576688600     0.2903763153    -0.1224899924
   34      H      -6.8874475618    -1.5378158068     4.0824484352
   35      H      -9.2745849567    -0.7332486592     3.6672848980
   36      H     -13.0350203465     0.0394856225     3.8012117778
   37      H     -13.6835214976     2.3824429227     2.9996019311
   38      H       1.7362784724     5.5722858641    -1.7198426223
   39      C       3.0139398768     4.0148238239    -2.2539215763
   40      H       2.3155454774     4.7168390704    -0.3445010211
   41      H       2.5800113290     3.8320824020    -3.2455276413
   42      H       3.2576907179     3.0219392828    -1.8567480432
   43      C       4.2488212191     4.8977804627    -2.3148530503
   44      H       4.0633970386     5.6765355308    -3.0650712966
   45      C       5.5718483018     4.1312049785    -2.6892811017
   46      H       4.3469143881     5.4557471564    -1.3752430786
   47      H       5.8588856089     3.6373912063    -1.7524932161
   48      H       6.3271270671     4.9027455117    -2.8862155889
   49      C       5.4777550778     3.1558096205    -3.9530905655
   50      H       4.7148360613     2.3716245637    -3.8771012832
   51      C       6.8610060667     2.6486363206    -4.4172381127
   52      H       5.1046590573     3.8465367954    -4.7190685870
   53      H       7.2351086989     2.1165280242    -3.5339867433
   54      H       7.4840472568     3.4944123998    -4.7357180951
   55      H       6.8514836563     2.0556512004    -5.3403274750
   56      C       6.5826512887     3.0769054874     2.0568212891
   57      C       7.0507438173     1.9464639564     2.6966527747
   58      N       5.6206868554     2.9938005162     1.1006649249
   59      C       6.4248794452     0.7146821217     2.5796002252
   60      C       5.1340753315     1.7742228365     0.8716092376
   61      C       5.4756317297     0.5261060062     1.5438001367
   62      C       4.8501618613    -0.8714382144     1.2974739404
   63      C       5.5035595493    -2.0623429450     1.5681940615
   64      C       3.5824279230    -0.9804803561     0.6888809129
   65      N       5.0346752236    -3.2948745379     1.2771711040
   66      N       2.7525110833     0.0531852167     0.4879020014
   67      C       3.0541530064    -2.2051222167     0.3901436944
   68      C       3.8315831831    -3.4066707320     0.6977643791
   69      S       1.4080358934    -0.6282657610    -0.2625638731
   70      N       1.8114049774    -2.2363162648    -0.1263766516
   71      C       3.4026595434    -4.8181403272     0.3981778420
   72      S       1.8593152082    -5.2383300926    -0.3390350337
   73      C       4.2552244616    -5.8987402689     0.4116621414
   74      C       2.3200010080    -6.9684619747    -0.4493086229
   75      S       5.8139511939    -6.0894590395     1.1099245022
   76      C       3.5992181117    -7.1061579799     0.0420094125
   77      C       1.5753185972    -7.9427403304    -1.1921752277
   78      C       5.7500328731    -7.8010071336     0.5262640105
   79      C       4.4819175269    -8.1653857338     0.0990384208
   80      N       0.6984663254    -7.4612273722    -1.9579280368
   81      S       1.4701693621    -9.6228043730    -0.7520008860
   82      C      -0.2203255951    -8.4517602640    -2.2453754186
   83      C       0.1199336124    -9.7343746134    -1.7589619090
   84      C       7.1937586648     4.4484795042     2.3585123419
   85      H       7.8050471815     2.1563368291     3.4489371704
   86      H       6.7758506925    -0.1240155126     3.1723349566
   87      H       4.5075267642     1.8026503368    -0.0178635107
   88      H       6.4992541514    -2.0961007978     2.0067025182
   89      H       6.6499337528    -8.3958326567     0.6183455167
   90      H       4.2858589814    -9.1559077759    -0.2961933225
   91      H      -1.0482110054    -8.3074783435    -2.9274952577
   92      H      -0.2475425596   -10.7370316770    -1.9344899004
   93      H       6.7522227787     4.8390727950     3.2830018997
   94      C       7.0346610007     5.5331768143     1.2469185857
   95      H       8.2764829446     4.3249512289     2.4839631260
   96      H       5.9782101989     5.7864631893     1.0977920774
   97      H       7.3737195810     5.1338924181     0.2829718807
   98      C       7.8721669065     6.8371561055     1.5881148134
   99      H       7.6198558869     7.6433571000     0.8885806070
  100      C       9.3790092043     6.6817414759     1.6781513749
  101      H       7.4711627341     7.0852053571     2.5786072276
  102      H       9.8274658375     6.6099497573     0.6790249578
  103      H       9.7675948591     5.7793911072     2.1662558729
  104      C      10.0338787800     7.8402165615     2.4067975956
  105      H       9.4950681355     8.7345604408     2.0703319733
  106      C      11.5894389789     7.9674056841     2.2777960659
  107      H       9.7651103295     7.7366682787     3.4655314021
  108      H      11.9095520639     8.8814883278     2.7930964961
  109      H      11.8140726836     8.0734481313     1.2086746050
  110      H      12.1124488590     7.1175748239     2.7342488832
 ----------------------------------------------------------------

   10   -5663.5206022670      3.56E-06 Convergence criterion met
 Total energy in the final basis set = -5663.5206022670

                    Orbital Energies (a.u.)
 --------------------------------------------------------------

 Alpha MOs
 -- Occupied --
-88.990 -88.987 -88.932 -88.927 -88.921 -88.920 -88.911 -88.905
-14.395 -14.387 -14.385 -14.384 -14.352 -14.346 -14.344 -14.337
-14.333 -14.332 -10.270 -10.270 -10.270 -10.264 -10.261 -10.258
-10.256 -10.254 -10.247 -10.244 -10.242 -10.242 -10.239 -10.236
-10.236 -10.234 -10.233 -10.231 -10.230 -10.229 -10.229 -10.228
-10.227 -10.227 -10.227 -10.226 -10.226 -10.225 -10.225 -10.215
-10.214 -10.213 -10.212 -10.205 -10.202 -10.199 -10.195 -10.193
-10.190 -10.180 -10.179 -10.177 -10.176 -10.175 -10.173 -10.171
-10.171 -10.168 -10.168 -10.166  -8.046  -8.042  -7.991  -7.989
 -7.982  -7.978  -7.971  -7.965  -6.011  -6.007  -6.005  -6.004
 -6.002  -5.999  -5.955  -5.953  -5.951  -5.950  -5.947  -5.947
 -5.946  -5.943  -5.943  -5.939  -5.939  -5.935  -5.935  -5.932
 -5.930  -5.927  -5.926  -5.921  -1.047  -1.035  -0.992  -0.969
 -0.965  -0.961  -0.941  -0.921  -0.914  -0.913  -0.906  -0.904
 -0.849  -0.841  -0.830  -0.829  -0.825  -0.808  -0.807  -0.804
 -0.800  -0.796  -0.795  -0.790  -0.784  -0.775  -0.767  -0.764
 -0.748  -0.748  -0.742  -0.738  -0.729  -0.719  -0.708  -0.706
 -0.694  -0.693  -0.679  -0.675  -0.658  -0.648  -0.640  -0.640
 -0.638  -0.629  -0.624  -0.622  -0.612  -0.607  -0.606  -0.597
 -0.592  -0.587  -0.583  -0.580  -0.580  -0.575  -0.564  -0.550
 -0.549  -0.548  -0.541  -0.540  -0.527  -0.524  -0.519  -0.509
 -0.509  -0.503  -0.501  -0.497  -0.484  -0.482  -0.479  -0.476
 -0.473  -0.472  -0.468  -0.465  -0.458  -0.456  -0.455  -0.454
 -0.449  -0.442  -0.440  -0.439  -0.435  -0.434  -0.433  -0.427
 -0.427  -0.424  -0.422  -0.419  -0.418  -0.416  -0.415  -0.414
 -0.410  -0.409  -0.408  -0.406  -0.403  -0.400  -0.397  -0.396
 -0.394  -0.392  -0.390  -0.389  -0.385  -0.383  -0.383  -0.380
 -0.377  -0.373  -0.370  -0.365  -0.363  -0.358  -0.357  -0.355
 -0.353  -0.351  -0.350  -0.348  -0.344  -0.343  -0.341  -0.339
 -0.337  -0.334  -0.334  -0.331  -0.328  -0.319  -0.318  -0.317
 -0.316  -0.310  -0.308  -0.306  -0.305  -0.304  -0.302  -0.301
 -0.298  -0.297  -0.293  -0.292  -0.290  -0.284  -0.282  -0.280
 -0.272  -0.270  -0.268  -0.265  -0.258  -0.256  -0.254  -0.253
 -0.249  -0.242  -0.232  -0.231  -0.197  -0.196

          Ground-State Mulliken Net Atomic Charges

     Atom                 Charge (a.u.)
  ----------------------------------------
      1 C                     0.246720
      2 C                    -0.113631
      3 N                    -0.475520
      4 C                    -0.110272
      5 C                     0.057581
      6 C                     0.057860
      7 C                     0.045354
      8 C                     0.061080
      9 C                     0.202538
     10 N                    -0.516670
     11 N                    -0.544923
     12 C                     0.156844
     13 C                     0.323193
     14 S                     0.618212
     15 N                    -0.525758
     16 C                    -0.213525
     17 S                     0.334892
     18 C                    -0.106968
     19 C                    -0.221956
     20 S                     0.281826
     21 C                     0.126907
     22 C                     0.052528
     23 C                    -0.305343
     24 C                    -0.033642
     25 N                    -0.441137
     26 S                     0.238264
     27 C                     0.139305
     28 C                    -0.299881
     29 C                    -0.237246
     30 H                     0.121546
     31 H                     0.090531
     32 H                     0.129060
     33 H                     0.113360
     34 H                     0.126256
     35 H                     0.120358
     36 H                     0.117233
     37 H                     0.129970
     38 H                     0.111010
     39 C                    -0.161926
     40 H                     0.102107
     41 H                     0.107265
     42 H                     0.091834
     43 C                    -0.188358
     44 H                     0.090072
     45 C                    -0.195712
     46 H                     0.098173
     47 H                     0.112512
     48 H                     0.085357
     49 C                    -0.183750
     50 H                     0.097480
     51 C                    -0.313637
     52 H                     0.092554
     53 H                     0.107320
     54 H                     0.101890
     55 H                     0.098464
     56 C                     0.266200
     57 C                    -0.104726
     58 N                    -0.479802
     59 C                    -0.088220
     60 C                     0.086843
     61 C                     0.033299
     62 C                     0.062520
     63 C                     0.044887
     64 C                     0.262069
     65 N                    -0.535607
     66 N                    -0.579408
     67 C                     0.205359
     68 C                     0.321199
     69 S                     0.589069
     70 N                    -0.561610
     71 C                    -0.228159
     72 S                     0.352916
     73 C                    -0.110691
     74 C                    -0.237636
     75 S                     0.285397
     76 C                     0.150572
     77 C                     0.073755
     78 C                    -0.314342
     79 C                    -0.074343
     80 N                    -0.404170
     81 S                     0.279334
     82 C                     0.091824
     83 C                    -0.307461
     84 C                    -0.241776
     85 H                     0.084166
     86 H                     0.098304
     87 H                     0.113406
     88 H                     0.111409
     89 H                     0.127333
     90 H                     0.108197
     91 H                     0.115345
     92 H                     0.145857
     93 H                     0.117261
     94 C                    -0.183616
     95 H                     0.111263
     96 H                     0.109459
     97 H                     0.102427
     98 C                    -0.187432
     99 H                     0.095952
    100 C                    -0.163365
    101 H                     0.089493
    102 H                     0.088241
    103 H                     0.086963
    104 C                    -0.179839
    105 H                     0.090847
    106 C                    -0.321771
    107 H                     0.089775
    108 H                     0.104993
    109 H                     0.105828
    110 H                     0.104611
  ----------------------------------------
  Sum of atomic charges =     0.000000

                    Cartesian Multipole Moments
 -----------------------------------------------------------------
    Charge (ESU x 10^10)
                 0.0000
    Dipole Moment (Debye)
         X       0.0650      Y      -2.8532      Z       2.9186
       Tot       4.0821
    Quadrupole Moments (Debye-Ang)
        XX    -393.8350     XY     -16.1165     YY    -407.6798
        XZ       0.0274     YZ      12.1180     ZZ    -434.0888

 Total job time:  89.55s(wall), 1053.22s(cpu)
        *  Thank you very much for using Q-Chem.  Have a nice day.  *
