 Q-Chem 4.4, Q-Chem, Inc., Pleasanton, CA (2016)
 Q-Chem 4.4.2 for Intel X86 Linux

User input:
--------------------------------------------------------------
$comment
SP
$end

$rem
MEM_STATIC 5000
MEM_TOTAL 20000
JOBTYPE SP
EXCHANGE B3LYP
BASIS 6-31g(d,p)
$end

$molecule
0 1
C         -21.650000    -13.269000     -3.833000
C         -21.188000    -12.256000     -3.038000
N         -22.944000    -13.624000     -3.807000
C         -22.017000    -11.747000     -2.011000
C         -23.726000    -12.999000     -2.853000
C         -23.336000    -12.107000     -1.936000
C         -24.358000    -11.366000     -1.040000
C         -25.618000    -11.915000     -0.733000
C         -24.153000    -10.150000     -0.339000
N         -26.605000    -11.348000      0.015000
N         -22.997000     -9.409000     -0.402000
C         -25.096000     -9.549000      0.442000
C         -26.389000    -10.189000      0.614000
S         -23.174000     -8.111000      0.528000
N         -24.727000     -8.357000      1.066000
C         -27.462000     -9.553000      1.384000
S         -27.359000     -7.944000      2.183000
C         -28.627000    -10.175000      1.693000
C         -29.032000     -8.121000      2.806000
S         -29.288000    -11.629000      1.067000
C         -29.508000     -9.380000      2.395000
C         -29.788000     -7.140000      3.496000
C         -30.758000    -11.264000      1.926000
C         -30.780000    -10.045000      2.603000
N         -30.817000     -7.452000      4.290000
S         -29.291000     -5.428000      3.475000
C         -31.315000     -6.300000      4.793000
C         -30.566000     -5.158000      4.637000
C         -20.803000    -13.896000     -4.992000
H         -20.140000    -11.988000     -3.128000
H         -21.527000    -11.176000     -1.228000
H         -24.745000    -13.360000     -2.980000
H         -25.972000    -12.873000     -1.109000
H         -31.520000    -12.029000      1.869000
H         -31.645000     -9.580000      3.061000
H         -32.222000     -6.397000      5.376000
H         -30.720000     -4.205000      5.124000
H         -19.758000    -13.700000     -4.721000
C         -21.245000    -13.384000     -6.352000
H         -20.854000    -14.992000     -4.996000
H         -21.060000    -12.306000     -6.446000
H         -22.339000    -13.449000     -6.414000
C         -20.547000    -14.134000     -7.480000
H         -19.486000    -13.859000     -7.423000
C         -21.054000    -13.579000     -8.861000
H         -20.729000    -15.214000     -7.533000
H         -20.750000    -12.526000     -8.834000
H         -22.138000    -13.416000     -8.818000
C         -20.581000    -14.309000    -10.106000
H         -19.620000    -14.748000     -9.810000
C         -20.281000    -13.477000    -11.429000
H         -21.353000    -15.072000    -10.264000
H         -19.624000    -14.040000    -12.104000
H         -19.642000    -12.620000    -11.185000
H         -21.139000    -13.078000    -11.984000
C         -30.383000     -5.273000     -0.068000
C         -29.495000     -6.233000     -0.511000
N         -29.990000     -3.985000      0.114000
C         -28.242000     -5.911000     -1.010000
C         -28.727000     -3.712000     -0.213000
C         -27.727000     -4.611000     -0.777000
C         -26.280000     -4.252000     -1.204000
C         -25.246000     -5.172000     -1.258000
C         -25.937000     -2.912000     -1.480000
N         -23.955000     -4.882000     -1.528000
N         -26.828000     -1.919000     -1.613000
C         -24.648000     -2.568000     -1.777000
C         -23.621000     -3.611000     -1.790000
S         -25.892000     -0.555000     -1.927000
N         -24.406000     -1.283000     -2.097000
C         -22.158000     -3.385000     -2.063000
S         -21.465000     -1.814000     -2.455000
C         -21.173000     -4.303000     -1.777000
C         -19.799000     -2.478000     -2.419000
S         -21.269000     -5.989000     -1.458000
C         -19.874000     -3.813000     -2.089000
C         -18.619000     -1.664000     -2.444000
C         -19.463000     -5.964000     -1.349000
C         -18.923000     -4.775000     -1.816000
N         -18.825000     -0.435000     -2.259000
S         -17.115000     -2.161000     -3.164000
C         -17.741000      0.267000     -2.749000
C         -16.658000     -0.536000     -3.173000
C         -31.819000     -5.656000      0.302000
H         -29.943000     -7.215000     -0.629000
H         -27.615000     -6.691000     -1.430000
H         -28.479000     -2.710000      0.132000
H         -25.390000     -6.227000     -1.032000
H         -18.969000     -6.865000     -1.008000
H         -17.853000     -4.600000     -1.800000
H         -17.648000      1.342000     -2.664000
H         -15.625000     -0.345000     -3.433000
H         -32.416000     -5.726000     -0.615000
C         -32.555000     -4.697000      1.290000
H         -31.798000     -6.628000      0.810000
H         -32.696000     -3.707000      0.840000
H         -31.933000     -4.524000      2.177000
C         -33.950000     -5.299000      1.748000
H         -34.523000     -4.547000      2.304000
C         -33.914000     -6.602000      2.525000
H         -34.430000     -5.467000      0.776000
H         -33.604000     -6.432000      3.564000
H         -33.200000     -7.368000      2.198000
C         -35.262000     -7.298000      2.543000
H         -36.000000     -6.495000      2.661000
C         -35.442000     -8.463000      3.574000
H         -35.430000     -7.682000      1.529000
H         -36.478000     -8.820000      3.521000
H         -35.271000     -8.037000      4.571000
H         -34.778000     -9.310000      3.360000
$end

--------------------------------------------------------------

             Standard Nuclear Orientation (Angstroms)
    I     Atom           X                Y                Z
 ----------------------------------------------------------------
    1      C      -4.7969732386    -6.0440825013    -0.7457663420
    2      C      -4.7554579533    -4.8519691108    -1.4156768921
    3      N      -3.6844795592    -6.5647794374    -0.2050542984
    4      C      -3.5023065406    -4.2887543988    -1.7525028484
    5      C      -2.5058689583    -5.8949812414    -0.4780239451
    6      C      -2.3433269749    -4.8090944038    -1.2416225829
    7      C      -0.9855349638    -4.0698472376    -1.3209666559
    8      C       0.2368226060    -4.7249826335    -1.0762431698
    9      C      -0.7663144374    -2.7322652101    -1.7391755515
   10      N       1.4835748419    -4.1766752066    -1.0876373770
   11      N      -1.7686093855    -1.8611849721    -2.0941545032
   12      C       0.4606557450    -2.1388741431    -1.7924879618
   13      C       1.6392980711    -2.9112036052    -1.4384505776
   14      S      -1.1018625871    -0.4560424847    -2.4967166684
   15      N       0.4990228003    -0.8155985538    -2.2327954495
   16      C       2.9730355399    -2.3036897543    -1.4102320519
   17      S       3.3412186299    -0.5799565821    -1.7722764735
   18      C       4.1129219905    -3.0164220483    -1.2306170277
   19      C       5.0906308445    -0.8738413980    -1.5047402737
   20      S       4.3163977699    -4.6358118789    -0.7023299999
   21      C       5.2516181787    -2.2394359148    -1.2050526131
   22      C       6.1212792534     0.0995702426    -1.4895535983
   23      C       6.0285229112    -4.3315927098    -0.6124178337
   24      C       6.4300645730    -3.0268230448    -0.8972237590
   25      N       7.4027843222    -0.2062037526    -1.7150930016
   26      S       5.7329698456     1.8327815059    -1.3359680492
   27      C       8.1209623396     0.9364070833    -1.6327655281
   28      C       7.4310724921     2.1252477510    -1.6182443277
   29      C      -6.1367779040    -6.7431935431    -0.3334725026
   30      H      -5.6924640981    -4.4615052304    -1.8001056147
   31      H      -3.5034858567    -3.5255337754    -2.5249812554
   32      H      -1.7079478877    -6.4105416342     0.0533238190
   33      H       0.3197616041    -5.7741815815    -0.7991895828
   34      H       6.6307019998    -5.1927172693    -0.3575397483
   35      H       7.4202194833    -2.6124391566    -0.7485857871
   36      H       9.1954770798     0.8195850440    -1.6937383423
   37      H       7.8405171282     3.1188313412    -1.7375788966
   38      H      -6.8876082880    -6.3592365569    -1.0354075189
   39      C      -6.4427813188    -6.5469672237     1.1413037996
   40      H      -6.1261710667    -7.8188211623    -0.5496800876
   41      H      -6.6191557075    -5.4876865157     1.3692543571
   42      H      -5.5387597917    -6.7729967012     1.7214423640
   43      C      -7.6424104016    -7.3810784686     1.5740121248
   44      H      -8.5147667524    -6.9559065897     1.0613540803
   45      C      -7.9022785761    -7.1556962797     3.1082566949
   46      H      -7.5442589048    -8.4679770076     1.4674717589
   47      H      -8.1191405637    -6.0828009934     3.1700675593
   48      H      -6.9463728378    -7.1395636975     3.6462696679
   49      C      -8.9686444481    -8.0222821353     3.7552086110
   50      H      -9.6526069766    -8.2642247317     2.9320943786
   51      C      -9.8825762723    -7.4048223842     4.9023899727
   52      H      -8.4097761944    -8.9007671817     4.1002409259
   53      H     -10.8088080606    -7.9820374659     5.0171088630
   54      H     -10.2805519061    -6.4379334516     4.5721670374
   55      H      -9.4212264635    -7.2335296160     5.8828006731
   56      C       4.8514067700     1.2036734718     2.2131737661
   57      C       3.8352262628     0.3128561214     1.9299519008
   58      N       4.6446231860     2.5453778913     2.1532838678
   59      C       2.5137015700     0.7117815813     1.7990895163
   60      C       3.4015894513     2.9284701439     1.8621920258
   61      C       2.2289096755     2.0911445921     1.6385739055
   62      C       0.7791678064     2.5657966340     1.3593375324
   63      C      -0.1609834413     1.8032247284     0.6862315079
   64      C       0.3811897329     3.8699598897     1.7201652688
   65      N      -1.3982241229     2.2168775164     0.3372216703
   66      N       1.1046688705     4.6903021696     2.4955590276
   67      C      -0.8666914146     4.3311570441     1.4068669660
   68      C      -1.7832430620     3.4550495784     0.6753508785
   69      S       0.1795260494     6.0933329362     2.5994985701
   70      N      -1.2022803290     5.5599203647     1.8424238307
   71      C      -3.1712733969     3.8296640728     0.2292457677
   72      S      -3.9223700663     5.3868412110     0.5654111339
   73      C      -3.8945216246     3.1225794123    -0.7043967141
   74      C      -5.3507187775     4.9772987071    -0.4394982633
   75      S      -3.6959552916     1.5231843009    -1.3011208456
   76      C      -5.1545517588     3.7247510009    -0.9774506259
   77      C      -6.3519761316     5.9295747475    -0.8219574818
   78      C      -5.1872471065     1.8173094863    -2.2827934479
   79      C      -5.8565879832     2.9677752155    -1.8931507953
   80      N      -6.0454422970     7.1312679958    -0.6004346946
   81      S      -8.0255042556     5.5261265217    -1.0748569620
   82      C      -7.2067104191     7.8785950479    -0.5701258592
   83      C      -8.3758206616     7.1711555220    -0.9309368318
   84      C       6.2617275383     0.6970485655     2.5294197697
   85      H       4.1307359265    -0.7269784535     2.0317855670
   86      H       1.7381705744    -0.0357692747     1.6662422637
   87      H       3.3948155962     4.0003395891     1.6735574387
   88      H       0.0487794816     0.7954618198     0.3323241240
   89      H      -5.4608583099     1.0684643859    -3.0152454428
   90      H      -6.7605763321     3.2894883933    -2.3982118770
   91      H      -7.2122592422     8.9539594335    -0.4474080982
   92      H      -9.3895732447     7.4543508772    -1.1824842251
   93      H       6.2999092066     0.3833430012     3.5793383281
   94      C       7.4278556136     1.7046787929     2.2797246823
   95      H       6.4774270034    -0.1569260672     1.8755925238
   96      H       7.3453532972     2.5698436057     2.9484280653
   97      H       7.3557353475     2.1168815630     1.2655898078
   98      C       8.8420815655     1.0059803563     2.4528675466
   99      H       9.6404699174     1.7578715168     2.4385594289
  100      C       9.1738787052    -0.1206774870     1.4919373919
  101      H       8.7489137854     0.6032560099     3.4690077267
  102      H       9.4472771879     0.2723119516     0.5043476133
  103      H       8.3719955856    -0.8260214180     1.2410302348
  104      C      10.3188844578    -0.9825222344     1.9899629513
  105      H      11.0349098077    -0.2815437835     2.4364088155
  106      C      10.9703600921    -1.9596038343     0.9538755781
  107      H       9.9305606746    -1.5598880541     2.8383315914
  108      H      11.8210209018    -2.4604929262     1.4324571328
  109      H      11.3485600600    -1.3439175749     0.1276666370
  110      H      10.2671509135    -2.7307483041     0.6148563193
 ----------------------------------------------------------------

   10   -5663.5229337859      4.11E-06 Convergence criterion met
 Total energy in the final basis set = -5663.5229337859

                    Orbital Energies (a.u.)
 --------------------------------------------------------------

 Alpha MOs
 -- Occupied --
-88.992 -88.986 -88.928 -88.926 -88.924 -88.922 -88.914 -88.909
-14.394 -14.390 -14.385 -14.381 -14.353 -14.350 -14.345 -14.344
-14.328 -14.326 -10.270 -10.268 -10.264 -10.262 -10.258 -10.257
-10.255 -10.253 -10.242 -10.241 -10.241 -10.240 -10.239 -10.237
-10.237 -10.235 -10.234 -10.231 -10.229 -10.229 -10.227 -10.226
-10.224 -10.224 -10.224 -10.223 -10.223 -10.222 -10.221 -10.215
-10.210 -10.210 -10.207 -10.207 -10.205 -10.200 -10.195 -10.190
-10.186 -10.184 -10.181 -10.179 -10.178 -10.177 -10.176 -10.176
-10.174 -10.173 -10.170 -10.169  -8.046  -8.041  -7.991  -7.985
 -7.983  -7.980  -7.974  -7.970  -6.011  -6.006  -6.005  -6.004
 -6.001  -5.999  -5.954  -5.951  -5.948  -5.948  -5.948  -5.945
 -5.944  -5.944  -5.942  -5.940  -5.940  -5.938  -5.936  -5.935
 -5.934  -5.931  -5.930  -5.926  -1.033  -1.032  -0.993  -0.970
 -0.962  -0.961  -0.938  -0.936  -0.914  -0.914  -0.905  -0.893
 -0.844  -0.843  -0.837  -0.828  -0.826  -0.810  -0.806  -0.804
 -0.803  -0.801  -0.800  -0.799  -0.781  -0.781  -0.767  -0.766
 -0.750  -0.750  -0.741  -0.739  -0.725  -0.721  -0.707  -0.706
 -0.695  -0.693  -0.675  -0.672  -0.656  -0.651  -0.651  -0.639
 -0.637  -0.636  -0.627  -0.621  -0.612  -0.611  -0.607  -0.597
 -0.596  -0.590  -0.583  -0.582  -0.581  -0.577  -0.569  -0.561
 -0.552  -0.550  -0.541  -0.538  -0.527  -0.522  -0.520  -0.511
 -0.509  -0.506  -0.497  -0.492  -0.488  -0.480  -0.476  -0.473
 -0.472  -0.471  -0.466  -0.466  -0.460  -0.456  -0.452  -0.448
 -0.447  -0.443  -0.442  -0.440  -0.436  -0.434  -0.432  -0.430
 -0.424  -0.424  -0.422  -0.419  -0.415  -0.413  -0.413  -0.412
 -0.410  -0.410  -0.406  -0.403  -0.402  -0.400  -0.398  -0.397
 -0.394  -0.394  -0.393  -0.390  -0.389  -0.388  -0.382  -0.379
 -0.378  -0.377  -0.373  -0.371  -0.365  -0.362  -0.359  -0.358
 -0.356  -0.355  -0.352  -0.350  -0.350  -0.347  -0.341  -0.339
 -0.337  -0.333  -0.331  -0.329  -0.328  -0.324  -0.317  -0.316
 -0.315  -0.311  -0.308  -0.306  -0.306  -0.304  -0.302  -0.301
 -0.300  -0.297  -0.296  -0.294  -0.294  -0.288  -0.285  -0.281
 -0.281  -0.274  -0.269  -0.267  -0.256  -0.255  -0.253  -0.251
 -0.248  -0.243  -0.237  -0.231  -0.198  -0.194

          Ground-State Mulliken Net Atomic Charges

     Atom                 Charge (a.u.)
  ----------------------------------------
      1 C                     0.250779
      2 C                    -0.112627
      3 N                    -0.479810
      4 C                    -0.091761
      5 C                     0.024530
      6 C                     0.115747
      7 C                     0.076147
      8 C                     0.025176
      9 C                     0.208017
     10 N                    -0.541479
     11 N                    -0.559806
     12 C                     0.179904
     13 C                     0.334302
     14 S                     0.644613
     15 N                    -0.584009
     16 C                    -0.224408
     17 S                     0.336088
     18 C                    -0.106241
     19 C                    -0.227534
     20 S                     0.300934
     21 C                     0.131271
     22 C                     0.034466
     23 C                    -0.319101
     24 C                    -0.053434
     25 N                    -0.416356
     26 S                     0.279818
     27 C                     0.128327
     28 C                    -0.308772
     29 C                    -0.213540
     30 H                     0.085452
     31 H                     0.119749
     32 H                     0.098971
     33 H                     0.115523
     34 H                     0.127493
     35 H                     0.127827
     36 H                     0.109647
     37 H                     0.136514
     38 H                     0.085046
     39 C                    -0.171386
     40 H                     0.113062
     41 H                     0.092858
     42 H                     0.121261
     43 C                    -0.181159
     44 H                     0.096044
     45 C                    -0.184064
     46 H                     0.097664
     47 H                     0.083116
     48 H                     0.088557
     49 C                    -0.175987
     50 H                     0.095602
     51 C                    -0.329708
     52 H                     0.100120
     53 H                     0.103607
     54 H                     0.102583
     55 H                     0.107032
     56 C                     0.267679
     57 C                    -0.103655
     58 N                    -0.477021
     59 C                    -0.083400
     60 C                     0.091854
     61 C                     0.032166
     62 C                     0.061201
     63 C                     0.046076
     64 C                     0.252572
     65 N                    -0.543728
     66 N                    -0.558218
     67 C                     0.208377
     68 C                     0.319896
     69 S                     0.588043
     70 N                    -0.561632
     71 C                    -0.226647
     72 S                     0.353847
     73 C                    -0.119933
     74 C                    -0.238700
     75 S                     0.290811
     76 C                     0.151508
     77 C                     0.073498
     78 C                    -0.320523
     79 C                    -0.071518
     80 N                    -0.404684
     81 S                     0.279133
     82 C                     0.091498
     83 C                    -0.307478
     84 C                    -0.244313
     85 H                     0.091166
     86 H                     0.099533
     87 H                     0.104728
     88 H                     0.113179
     89 H                     0.126647
     90 H                     0.108784
     91 H                     0.114679
     92 H                     0.145801
     93 H                     0.115456
     94 C                    -0.184768
     95 H                     0.116218
     96 H                     0.105332
     97 H                     0.105784
     98 C                    -0.187381
     99 H                     0.090840
    100 C                    -0.164971
    101 H                     0.088810
    102 H                     0.083396
    103 H                     0.095357
    104 C                    -0.181884
    105 H                     0.088493
    106 C                    -0.321826
    107 H                     0.089884
    108 H                     0.104565
    109 H                     0.102796
    110 H                     0.106011
  ----------------------------------------
  Sum of atomic charges =     0.000000

                    Cartesian Multipole Moments
 -----------------------------------------------------------------
    Charge (ESU x 10^10)
                 0.0000
    Dipole Moment (Debye)
         X      -2.9680      Y       2.1514      Z      -1.5546
       Tot       3.9818
    Quadrupole Moments (Debye-Ang)
        XX    -390.9158     XY     -16.1714     YY    -441.3172
        XZ      16.8939     YZ      -6.9056     ZZ    -449.1231

 Total job time:  96.94s(wall), 1163.79s(cpu)
        *  Thank you very much for using Q-Chem.  Have a nice day.  *
