 Q-Chem 4.4, Q-Chem, Inc., Pleasanton, CA (2016)
 Q-Chem 4.4.2 for Intel X86 Linux

User input:
--------------------------------------------------------------
$comment
SP
$end

$rem
MEM_STATIC 5000
MEM_TOTAL 20000
JOBTYPE SP
EXCHANGE B3LYP
BASIS 6-31g(d,p)
$end

$molecule
0 1
C         -12.108000     -4.830000     -4.574000
C         -11.586000     -5.581000     -3.523000
N         -13.111000     -3.898000     -4.320000
C         -12.061000     -5.467000     -2.236000
C         -13.601000     -3.822000     -3.055000
C         -13.158000     -4.595000     -1.941000
C         -13.449000     -4.147000     -0.530000
C         -12.394000     -4.228000      0.420000
C         -14.658000     -3.610000      0.011000
N         -12.530000     -3.994000      1.743000
N         -15.753000     -3.379000     -0.736000
C         -14.795000     -3.389000      1.361000
C         -13.700000     -3.498000      2.214000
S         -16.917000     -3.033000      0.314000
N         -16.053000     -2.989000      1.695000
C         -13.877000     -3.304000      3.711000
S         -14.943000     -2.228000      4.549000
C         -13.335000     -4.129000      4.582000
C         -14.723000     -3.038000      6.085000
S         -12.199000     -5.412000      4.356000
C         -13.809000     -4.007000      5.921000
C         -15.139000     -2.437000      7.308000
C         -12.234000     -5.683000      6.087000
C         -13.122000     -4.887000      6.766000
N         -14.933000     -3.098000      8.440000
S         -15.869000     -0.783000      7.394000
C         -15.291000     -2.216000      9.469000
C         -15.926000     -1.052000      9.133000
C         -11.431000     -4.689000     -6.000000
H         -10.718000     -6.212000     -3.688000
H         -11.573000     -5.989000     -1.418000
H         -14.277000     -2.988000     -2.872000
H         -11.450000     -4.628000      0.052000
H         -11.504000     -6.353000      6.522000
H         -13.187000     -4.902000      7.848000
H         -15.089000     -2.492000     10.496000
H         -16.205000     -0.265000      9.821000
H         -12.174000     -4.908000     -6.776000
C         -10.221000     -5.555000     -6.249000
H         -11.046000     -3.669000     -6.117000
H         -10.294000     -6.647000     -6.182000
H          -9.502000     -5.374000     -5.440000
C          -9.444000     -5.110000     -7.458000
H          -9.194000     -4.049000     -7.334000
C         -10.081000     -5.314000     -8.824000
H          -8.531000     -5.707000     -7.341000
H          -9.471000     -4.861000     -9.615000
H         -11.084000     -4.877000     -8.903000
C         -10.238000     -6.812000     -9.048000
H         -10.799000     -7.256000     -8.217000
C          -8.937000     -7.598000     -9.357000
H         -10.895000     -6.870000     -9.925000
H          -8.713000     -7.210000    -10.359000
H          -9.003000     -8.688000     -9.462000
H          -8.119000     -7.227000     -8.727000
C         -30.383000     -5.273000     -0.068000
C         -29.495000     -6.233000     -0.511000
N         -29.990000     -3.985000      0.114000
C         -28.242000     -5.911000     -1.010000
C         -28.727000     -3.712000     -0.213000
C         -27.727000     -4.611000     -0.777000
C         -26.280000     -4.252000     -1.204000
C         -25.246000     -5.172000     -1.258000
C         -25.937000     -2.912000     -1.480000
N         -23.955000     -4.882000     -1.528000
N         -26.828000     -1.919000     -1.613000
C         -24.648000     -2.568000     -1.777000
C         -23.621000     -3.611000     -1.790000
S         -25.892000     -0.555000     -1.927000
N         -24.406000     -1.283000     -2.097000
C         -22.158000     -3.385000     -2.063000
S         -21.465000     -1.814000     -2.455000
C         -21.173000     -4.303000     -1.777000
C         -19.799000     -2.478000     -2.419000
S         -21.269000     -5.989000     -1.458000
C         -19.874000     -3.813000     -2.089000
C         -18.619000     -1.664000     -2.444000
C         -19.463000     -5.964000     -1.349000
C         -18.923000     -4.775000     -1.816000
N         -18.825000     -0.435000     -2.259000
S         -17.115000     -2.161000     -3.164000
C         -17.741000      0.267000     -2.749000
C         -16.658000     -0.536000     -3.173000
C         -31.819000     -5.656000      0.302000
H         -29.943000     -7.215000     -0.629000
H         -27.615000     -6.691000     -1.430000
H         -28.479000     -2.710000      0.132000
H         -25.390000     -6.227000     -1.032000
H         -18.969000     -6.865000     -1.008000
H         -17.853000     -4.600000     -1.800000
H         -17.648000      1.342000     -2.664000
H         -15.625000     -0.345000     -3.433000
H         -32.416000     -5.726000     -0.615000
C         -32.555000     -4.697000      1.290000
H         -31.798000     -6.628000      0.810000
H         -32.696000     -3.707000      0.840000
H         -31.933000     -4.524000      2.177000
C         -33.950000     -5.299000      1.748000
H         -34.523000     -4.547000      2.304000
C         -33.914000     -6.602000      2.525000
H         -34.430000     -5.467000      0.776000
H         -33.604000     -6.432000      3.564000
H         -33.200000     -7.368000      2.198000
C         -35.262000     -7.298000      2.543000
H         -36.000000     -6.495000      2.661000
C         -35.442000     -8.463000      3.574000
H         -35.430000     -7.682000      1.529000
H         -36.478000     -8.820000      3.521000
H         -35.271000     -8.037000      4.571000
H         -34.778000     -9.310000      3.360000
$end

--------------------------------------------------------------

             Standard Nuclear Orientation (Angstroms)
    I     Atom           X                Y                Z
 ----------------------------------------------------------------
    1      C       7.3940585715    -3.9948384976     0.7334383448
    2      C       7.8000887733    -3.0043251510     1.6251270715
    3      N       6.4071693539    -3.7096551827    -0.2067048088
    4      C       7.2243196604    -1.7540379139     1.6413058716
    5      C       5.8169371681    -2.4868861782    -0.1560794355
    6      C       6.1382828159    -1.4428455789     0.7612483149
    7      C       5.7473356171    -0.0152626756     0.4688900722
    8      C       6.7163564469     0.9975871294     0.7080968946
    9      C       4.5174570036     0.4903097909    -0.0550622893
   10      N       6.4794788626     2.3244333468     0.6247354797
   11      N       3.4970863341    -0.3067115395    -0.4211165143
   12      C       4.2768823715     1.8422336611    -0.1224098613
   13      C       5.2927919119     2.7588425566     0.1350215638
   14      S       2.2630227217     0.6831188546    -0.6939439163
   15      N       3.0105099300     2.1226298310    -0.5368960823
   16      C       4.9992285272     4.2498696926     0.1098696498
   17      S       3.9062671529     5.1254188074    -0.9075905124
   18      C       5.4374805538     5.0549016495     1.0547975357
   19      C       3.9692047802     6.5652140999     0.0857998293
   20      S       6.5420432940     4.7655719111     2.3524455832
   21      C       4.8586780988     6.3576917464     1.0691739637
   22      C       3.4747935291     7.8153920138    -0.3860038358
   23      C       6.3539821622     6.4433019744     2.8224262692
   24      C       5.4415427031     7.1417021881     2.0721647315
   25      N       3.5625890804     8.8722094144     0.4116238486
   26      S       2.7993590502     8.0425492779    -2.0497946406
   27      C       3.1520094139     9.9687499486    -0.3590590915
   28      C       2.5887950732     9.7267183110    -1.5818539609
   29      C       8.1915867340    -5.3362105015     0.4571124917
   30      H       8.6558325950    -3.1757475799     2.2709806635
   31      H       7.6239455083    -0.9692057216     2.2769863034
   32      H       5.1581242351    -2.2582138664    -0.9925574646
   33      H       7.6728298284     0.6590085862     1.1044341761
   34      H       7.0211355596     6.8501926360     3.5710058134
   35      H       5.2865257610     8.2056191563     2.2108169314
   36      H       3.2581993635    10.9676825473     0.0441360945
   37      H       2.2818056248    10.4805260725    -2.2946550112
   38      H       7.5082096004    -6.1885930668     0.5499869000
   39      C       9.3865601022    -5.5923275293     1.3417026327
   40      H       8.6209341436    -5.2991442064    -0.5511537884
   41      H       9.2695313259    -5.6631646783     2.4296219145
   42      H      10.0419487424    -4.7137356626     1.2893092911
   43      C      10.2764735623    -6.6745407193     0.7937029568
   44      H      10.5528367919    -6.4045819565    -0.2331089206
   45      C       9.7481358275    -8.1007289725     0.8073888726
   46      H      11.1548496573    -6.5592733624     1.4408782594
   47      H      10.4373422750    -8.7813540515     0.2928658171
   48      H       8.7712943577    -8.2046803381     0.3193377929
   49      C       9.5571733492    -8.5149862252     2.2602320370
   50      H       8.9137686579    -7.7898632567     2.7727211430
   51      C      10.8505926439    -8.8137427020     3.0625344088
   52      H       8.9735391194    -9.4412248991     2.1854322720
   53      H      11.1705677788    -9.7411676853     2.5703730397
   54      H      10.7548733433    -9.0540119622     4.1286439239
   55      H      11.6261706729    -8.0816932681     2.8051488084
   56      C     -11.1958935097    -1.0167086768     0.8760370521
   57      C     -10.3088521842    -1.5012915626     1.8166379843
   58      N     -10.7738653801    -0.6508538434    -0.3627363326
   59      C      -9.0081399661    -1.8584662626     1.4952846596
   60      C      -9.4792006057    -0.8429253536    -0.6148844180
   61      C      -8.4684137436    -1.4311624635     0.2560828730
   62      C      -6.9791514343    -1.6974707011    -0.0847934925
   63      C      -5.9775521830    -1.7808574644     0.8682634772
   64      C      -6.5670831342    -1.7825232213    -1.4310441322
   65      N      -4.6591260899    -1.9122849344     0.6071878995
   66      N      -7.4081627010    -1.8642410088    -2.4719698575
   67      C      -5.2464921439    -1.9343277348    -1.7489447864
   68      C      -4.2596320414    -1.9924908336    -0.6693748757
   69      S      -6.4015089930    -1.9376775976    -3.8197247980
   70      N      -4.9333148431    -2.0774365895    -3.0503397434
   71      C      -2.7719308200    -2.1211515311    -0.8595471679
   72      S      -1.9934669851    -2.2658517319    -2.4327635897
   73      C      -1.8472629576    -1.8716451868     0.1291291837
   74      C      -0.3608220722    -2.1799751704    -1.6946282331
   75      S      -2.0291894110    -1.7663851619     1.8348243771
   76      C      -0.5102851337    -2.0199396410    -0.3349225949
   77      C       0.8453379963    -2.0145394784    -2.4518797905
   78      C      -0.2387093014    -1.5143930113     1.9042717183
   79      C       0.3800376046    -1.7912514351     0.6943495392
   80      N       0.6684657664    -1.6996199475    -3.6587948261
   81      S       2.3852811568    -2.6693949153    -1.9752621038
   82      C       1.8136118071    -2.0153534047    -4.3637153391
   83      C       2.8988557101    -2.4469991981    -3.5678500364
   84      C     -12.6703247267    -0.8088397917     1.2345452289
   85      H     -10.7801007977    -1.7712741561     2.7568433574
   86      H      -8.3765513991    -2.3190144288     2.2482257386
   87      H      -9.2252553451    -0.3615118324    -1.5573735830
   88      H      -6.1771664683    -1.6954342870     1.9348908807
   89      H       0.1930026257    -1.2467738034     2.8603693972
   90      H       1.4505592045    -1.6707488935     0.5708843953
   91      H       1.9373473969    -1.7945730003    -5.4160672369
   92      H       3.9559898585    -2.6006051568    -3.7411780540
   93      H     -13.1913118004    -1.7714207782     1.1696737135
   94      C     -13.4512280684     0.2268583986     0.3656147198
   95      H     -12.7260565485    -0.4214527294     2.2592960415
   96      H     -13.5191787239    -0.1103385337    -0.6756162523
   97      H     -12.8991977437     1.1741009697     0.3259154478
   98      C     -14.8999010243     0.4986598039     0.9535464019
   99      H     -15.4899848196     1.0946493766     0.2467461870
  100      C     -14.9747583995     1.1135935095     2.3388575263
  101      H     -15.3032824492    -0.5210060608     0.9847385531
  102      H     -14.7461700909     2.1865237629     2.3058566682
  103      H     -14.2637417866     0.7535656257     3.0927250869
  104      C     -16.3434632838     0.9423068579     2.9706421593
  105      H     -17.0597323157     1.0980762259     2.1545100757
  106      C     -16.6496090167     1.8083450936     4.2390421611
  107      H     -16.4403020559    -0.1205453908     3.2252857331
  108      H     -17.6896617274     1.6319754385     4.5402698220
  109      H     -16.5468812521     2.8596630770     3.9408752546
  110      H     -16.0006372934     1.5464912584     5.0842458474
 ----------------------------------------------------------------

   10   -5663.5018928765      4.16E-06 Convergence criterion met
 Total energy in the final basis set = -5663.5018928765

                    Orbital Energies (a.u.)
 --------------------------------------------------------------

 Alpha MOs
 -- Occupied --
-88.995 -88.983 -88.923 -88.922 -88.918 -88.918 -88.910 -88.905
-14.391 -14.388 -14.383 -14.383 -14.359 -14.350 -14.345 -14.341
-14.341 -14.326 -10.270 -10.270 -10.267 -10.259 -10.257 -10.255
-10.255 -10.250 -10.245 -10.245 -10.238 -10.237 -10.236 -10.236
-10.235 -10.234 -10.232 -10.231 -10.230 -10.228 -10.228 -10.227
-10.226 -10.225 -10.225 -10.225 -10.224 -10.223 -10.221 -10.221
-10.220 -10.210 -10.206 -10.203 -10.203 -10.200 -10.198 -10.191
-10.191 -10.186 -10.184 -10.181 -10.180 -10.179 -10.178 -10.177
-10.176 -10.176 -10.175 -10.172  -8.050  -8.038  -7.984  -7.983
 -7.979  -7.976  -7.969  -7.966  -6.015  -6.009  -6.008  -6.003
 -5.998  -5.996  -5.948  -5.947  -5.944  -5.944  -5.943  -5.941
 -5.941  -5.940  -5.939  -5.937  -5.935  -5.934  -5.933  -5.930
 -5.930  -5.927  -5.926  -5.922  -1.049  -1.031  -0.989  -0.963
 -0.960  -0.958  -0.936  -0.933  -0.923  -0.911  -0.908  -0.902
 -0.850  -0.840  -0.836  -0.826  -0.825  -0.821  -0.816  -0.805
 -0.803  -0.802  -0.799  -0.797  -0.790  -0.781  -0.772  -0.764
 -0.751  -0.746  -0.743  -0.739  -0.723  -0.717  -0.712  -0.705
 -0.698  -0.691  -0.680  -0.671  -0.667  -0.656  -0.652  -0.642
 -0.637  -0.634  -0.628  -0.621  -0.620  -0.609  -0.605  -0.603
 -0.595  -0.595  -0.586  -0.583  -0.581  -0.578  -0.562  -0.551
 -0.549  -0.546  -0.543  -0.538  -0.528  -0.524  -0.517  -0.514
 -0.511  -0.505  -0.501  -0.495  -0.487  -0.483  -0.483  -0.479
 -0.476  -0.474  -0.470  -0.468  -0.465  -0.460  -0.456  -0.452
 -0.448  -0.446  -0.440  -0.439  -0.438  -0.437  -0.435  -0.432
 -0.431  -0.428  -0.422  -0.421  -0.417  -0.416  -0.413  -0.413
 -0.412  -0.411  -0.407  -0.406  -0.403  -0.402  -0.400  -0.397
 -0.396  -0.394  -0.392  -0.391  -0.388  -0.387  -0.386  -0.383
 -0.380  -0.375  -0.371  -0.371  -0.370  -0.362  -0.362  -0.356
 -0.355  -0.355  -0.350  -0.349  -0.348  -0.348  -0.345  -0.341
 -0.338  -0.336  -0.335  -0.331  -0.329  -0.326  -0.322  -0.319
 -0.317  -0.317  -0.312  -0.308  -0.307  -0.305  -0.303  -0.303
 -0.299  -0.296  -0.294  -0.292  -0.291  -0.288  -0.286  -0.285
 -0.283  -0.277  -0.275  -0.266  -0.260  -0.253  -0.251  -0.250
 -0.243  -0.240  -0.234  -0.229  -0.197  -0.195

          Ground-State Mulliken Net Atomic Charges

     Atom                 Charge (a.u.)
  ----------------------------------------
      1 C                     0.234651
      2 C                    -0.105855
      3 N                    -0.477646
      4 C                    -0.095715
      5 C                     0.086893
      6 C                     0.043421
      7 C                     0.045965
      8 C                     0.056892
      9 C                     0.214739
     10 N                    -0.508603
     11 N                    -0.572401
     12 C                     0.232376
     13 C                     0.252123
     14 S                     0.643948
     15 N                    -0.549556
     16 C                    -0.221512
     17 S                     0.305392
     18 C                    -0.089765
     19 C                    -0.248097
     20 S                     0.270454
     21 C                     0.170199
     22 C                     0.071666
     23 C                    -0.308679
     24 C                    -0.053280
     25 N                    -0.437770
     26 S                     0.258713
     27 C                     0.115156
     28 C                    -0.295902
     29 C                    -0.199163
     30 H                     0.093378
     31 H                     0.106841
     32 H                     0.107580
     33 H                     0.104925
     34 H                     0.127153
     35 H                     0.125701
     36 H                     0.108246
     37 H                     0.132057
     38 H                     0.123999
     39 C                    -0.196404
     40 H                     0.126425
     41 H                     0.101120
     42 H                     0.092709
     43 C                    -0.178339
     44 H                     0.085236
     45 C                    -0.174122
     46 H                     0.090696
     47 H                     0.091271
     48 H                     0.096585
     49 C                    -0.181781
     50 H                     0.093684
     51 C                    -0.319985
     52 H                     0.087492
     53 H                     0.104591
     54 H                     0.107692
     55 H                     0.104579
     56 C                     0.266412
     57 C                    -0.105923
     58 N                    -0.476406
     59 C                    -0.087334
     60 C                     0.093251
     61 C                     0.029961
     62 C                     0.062743
     63 C                     0.043888
     64 C                     0.254680
     65 N                    -0.535964
     66 N                    -0.560034
     67 C                     0.207403
     68 C                     0.320973
     69 S                     0.586889
     70 N                    -0.561397
     71 C                    -0.227723
     72 S                     0.351619
     73 C                    -0.111613
     74 C                    -0.231035
     75 S                     0.285861
     76 C                     0.149291
     77 C                     0.041154
     78 C                    -0.318563
     79 C                    -0.089695
     80 N                    -0.407368
     81 S                     0.328222
     82 C                     0.089423
     83 C                    -0.316829
     84 C                    -0.241487
     85 H                     0.082295
     86 H                     0.097025
     87 H                     0.107286
     88 H                     0.110520
     89 H                     0.127688
     90 H                     0.115232
     91 H                     0.112360
     92 H                     0.149566
     93 H                     0.116503
     94 C                    -0.177605
     95 H                     0.110013
     96 H                     0.109275
     97 H                     0.097827
     98 C                    -0.187158
     99 H                     0.094760
    100 C                    -0.163430
    101 H                     0.089253
    102 H                     0.087554
    103 H                     0.087221
    104 C                    -0.179734
    105 H                     0.090405
    106 C                    -0.321680
    107 H                     0.089829
    108 H                     0.104579
    109 H                     0.105435
    110 H                     0.104605
  ----------------------------------------
  Sum of atomic charges =     0.000000

                    Cartesian Multipole Moments
 -----------------------------------------------------------------
    Charge (ESU x 10^10)
                 0.0000
    Dipole Moment (Debye)
         X       3.9155      Y      -0.3732      Z       1.9310
       Tot       4.3817
    Quadrupole Moments (Debye-Ang)
        XX    -416.5077     XY     -13.0807     YY    -425.8619
        XZ      -6.6217     YZ     -11.6538     ZZ    -428.3011

 Total job time:  90.36s(wall), 1057.29s(cpu)
        *  Thank you very much for using Q-Chem.  Have a nice day.  *
