 Q-Chem 4.4, Q-Chem, Inc., Pleasanton, CA (2016)
 Q-Chem 4.4.2 for Intel X86 Linux

User input:
--------------------------------------------------------------
$comment
SP
$end

$rem
MEM_STATIC 5000
MEM_TOTAL 20000
JOBTYPE SP
EXCHANGE B3LYP
BASIS 6-31g(d,p)
$end

$molecule
0 1
C         -23.770000     10.598000     -7.350000
C         -23.561000      9.255000     -7.764000
N         -23.999000     10.944000     -6.082000
C         -23.628000      8.132000     -6.876000
C         -24.180000      9.929000     -5.206000
C         -23.916000      8.545000     -5.493000
C         -24.149000      7.512000     -4.345000
C         -24.836000      7.908000     -3.215000
C         -23.708000      6.166000     -4.322000
N         -25.139000      7.045000     -2.214000
N         -22.889000      5.608000     -5.259000
C         -24.060000      5.258000     -3.281000
C         -24.785000      5.745000     -2.211000
S         -22.669000      4.075000     -4.858000
N         -23.454000      4.022000     -3.374000
C         -25.253000      4.967000     -1.057000
S         -24.947000      3.215000     -0.846000
C         -26.102000      5.322000     -0.074000
C         -25.661000      3.222000      0.766000
S         -27.000000      6.765000      0.120000
C         -26.232000      4.412000      0.962000
C         -25.637000      2.062000      1.605000
C         -27.304000      6.233000      1.824000
C         -26.917000      4.904000      2.056000
N         -25.418000      0.924000      1.039000
S         -26.071000      2.064000      3.304000
C         -25.432000     -0.097000      1.969000
C         -25.583000      0.405000      3.259000
C         -23.877000     11.720000     -8.413000
H         -23.239000      9.074000     -8.785000
H         -23.361000      7.148000     -7.251000
H         -24.303000     10.308000     -4.192000
H         -25.202000      8.931000     -3.142000
H         -27.912000      6.883000      2.439000
H         -27.248000      4.331000      2.915000
H         -25.317000     -1.127000      1.657000
H         -25.389000     -0.224000      4.117000
H         -23.948000     12.705000     -7.935000
C         -25.098000     11.459000     -9.249000
H         -22.979000     11.645000     -9.039000
H         -25.958000     11.572000     -8.577000
H         -25.069000     10.458000     -9.698000
C         -25.304000     12.474000    -10.370000
H         -26.207000     12.312000    -10.971000
C         -24.078000     12.511000    -11.373000
H         -25.402000     13.464000     -9.908000
H         -23.893000     11.644000    -12.020000
H         -23.114000     12.767000    -10.915000
C         -24.314000     13.741000    -12.310000
H         -25.144000     13.476000    -12.976000
C         -23.035000     13.848000    -13.144000
H         -24.636000     14.715000    -11.922000
H         -22.196000     13.975000    -12.447000
H         -23.043000     14.737000    -13.786000
H         -22.856000     12.915000    -13.693000
C         -30.383000     -5.273000     -0.068000
C         -29.495000     -6.233000     -0.511000
N         -29.990000     -3.985000      0.114000
C         -28.242000     -5.911000     -1.010000
C         -28.727000     -3.712000     -0.213000
C         -27.727000     -4.611000     -0.777000
C         -26.280000     -4.252000     -1.204000
C         -25.246000     -5.172000     -1.258000
C         -25.937000     -2.912000     -1.480000
N         -23.955000     -4.882000     -1.528000
N         -26.828000     -1.919000     -1.613000
C         -24.648000     -2.568000     -1.777000
C         -23.621000     -3.611000     -1.790000
S         -25.892000     -0.555000     -1.927000
N         -24.406000     -1.283000     -2.097000
C         -22.158000     -3.385000     -2.063000
S         -21.465000     -1.814000     -2.455000
C         -21.173000     -4.303000     -1.777000
C         -19.799000     -2.478000     -2.419000
S         -21.269000     -5.989000     -1.458000
C         -19.874000     -3.813000     -2.089000
C         -18.619000     -1.664000     -2.444000
C         -19.463000     -5.964000     -1.349000
C         -18.923000     -4.775000     -1.816000
N         -18.825000     -0.435000     -2.259000
S         -17.115000     -2.161000     -3.164000
C         -17.741000      0.267000     -2.749000
C         -16.658000     -0.536000     -3.173000
C         -31.819000     -5.656000      0.302000
H         -29.943000     -7.215000     -0.629000
H         -27.615000     -6.691000     -1.430000
H         -28.479000     -2.710000      0.132000
H         -25.390000     -6.227000     -1.032000
H         -18.969000     -6.865000     -1.008000
H         -17.853000     -4.600000     -1.800000
H         -17.648000      1.342000     -2.664000
H         -15.625000     -0.345000     -3.433000
H         -32.416000     -5.726000     -0.615000
C         -32.555000     -4.697000      1.290000
H         -31.798000     -6.628000      0.810000
H         -32.696000     -3.707000      0.840000
H         -31.933000     -4.524000      2.177000
C         -33.950000     -5.299000      1.748000
H         -34.523000     -4.547000      2.304000
C         -33.914000     -6.602000      2.525000
H         -34.430000     -5.467000      0.776000
H         -33.604000     -6.432000      3.564000
H         -33.200000     -7.368000      2.198000
C         -35.262000     -7.298000      2.543000
H         -36.000000     -6.495000      2.661000
C         -35.442000     -8.463000      3.574000
H         -35.430000     -7.682000      1.529000
H         -36.478000     -8.820000      3.521000
H         -35.271000     -8.037000      4.571000
H         -34.778000     -9.310000      3.360000
$end

--------------------------------------------------------------

             Standard Nuclear Orientation (Angstroms)
    I     Atom           X                Y                Z
 ----------------------------------------------------------------
    1      C     -10.4713936828    -1.3006500017    -0.6818578216
    2      C      -9.5582521005    -0.5526145237    -1.4726431112
    3      N     -10.1372979956    -1.8695540012     0.4777581972
    4      C      -8.1761416450    -0.3778102848    -1.1359293354
    5      C      -8.8255924659    -1.8354492751     0.8073450161
    6      C      -7.8330170949    -1.0460295054     0.1297525426
    7      C      -6.3698648776    -1.1036488952     0.6730274223
    8      C      -6.0301595838    -2.0839853644     1.5836457400
    9      C      -5.3121708876    -0.2234118114     0.3365870863
   10      N      -4.7624968504    -2.2390861581     2.0392266198
   11      N      -5.4574167812     0.8997483429    -0.4233529760
   12      C      -3.9758873371    -0.4147226040     0.7946214228
   13      C      -3.7322197149    -1.4511985173     1.6744155868
   14      S      -4.0142728764     1.5742426349    -0.5706048693
   15      N      -3.1051690716     0.5988080375     0.4508390196
   16      C      -2.4280128088    -1.8161329862     2.2417701317
   17      S      -0.9041283339    -0.9493678489     1.8754979598
   18      C      -2.0805437982    -2.9027823792     2.9570137148
   19      C      -0.0056280242    -1.9050405330     3.0535369720
   20      S      -3.0121216763    -4.2763120032     3.3715834061
   21      C      -0.7986617587    -2.8892462868     3.4813144025
   22      C       1.3639081185    -1.6246155133     3.3631004746
   23      C      -1.7091273106    -4.6812449352     4.5620837225
   24      C      -0.5580960691    -3.8953562169     4.3967355939
   25      N       2.0298737408    -0.9124093407     2.5189362976
   26      S       2.2382486483    -2.3383808020     4.7051245991
   27      C       3.3307151416    -0.7333383418     2.9470510335
   28      C       3.5220980558    -1.2906661421     4.2086624250
   29      C     -11.8898334483    -1.6018364808    -1.2274009790
   30      H      -9.9443410031    -0.0034409964    -2.3260069235
   31      H      -7.5672267885     0.2878141913    -1.7411869288
   32      H      -8.6607384978    -2.2719057849     1.7918727629
   33      H      -6.7855127511    -2.7980263616     1.9083010141
   34      H      -1.8400353830    -5.5842861714     5.1432623545
   35      H       0.4032550573    -4.1532933904     4.8269023361
   36      H       4.0445263720    -0.2021205791     2.3308122682
   37      H       4.4036731543    -1.0478640032     4.7859954893
   38      H     -12.5004195195    -2.1075586320    -0.4689949167
   39      C     -11.7491221519    -2.4708224102    -2.4451537394
   40      H     -12.3273347413    -0.6367212535    -1.5120941763
   41      H     -11.3325552572    -3.4232806084    -2.0940862204
   42      H     -11.1014717646    -2.0032184654    -3.1977084063
   43      C     -13.0781062157    -2.8136205894    -3.1126810920
   44      H     -12.9928114269    -3.4705793138    -3.9867428938
   45      C     -13.8622432645    -1.5182148513    -3.5790576163
   46      H     -13.6936895185    -3.3428688827    -2.3750487706
   47      H     -13.4571670725    -0.9188876188    -4.4044321659
   48      H     -14.1078162728    -0.8124222900    -2.7752250729
   49      C     -15.2848431502    -1.9994812354    -4.0162729325
   50      H     -15.1584186830    -2.5407429488    -4.9616477849
   51      C     -16.0651924145    -0.7119827459    -4.2924045407
   52      H     -15.8659442802    -2.7142926997    -3.4210670460
   53      H     -16.0613977404    -0.1189452887    -3.3682015463
   54      H     -17.1168473754    -0.9175660012    -4.5254418090
   55      H     -15.5576046044    -0.1127848441    -5.0587252892
   56      C       8.0460503879    -3.0374076452    -2.3359049724
   57      C       8.4529056547    -1.7992984117    -2.7919173822
   58      N       6.9288004791    -3.1716440899    -1.5741634032
   59      C       7.6464744489    -0.6746736165    -2.7048439630
   60      C       6.2399935729    -2.0523311243    -1.3521036565
   61      C       6.5124791347    -0.7110063874    -1.8549918834
   62      C       5.6599271822     0.5645913057    -1.6291054214
   63      C       6.1735452664     1.8497442072    -1.6843366016
   64      C       4.3024332577     0.4511414408    -1.2633673005
   65      N       5.4892279434     2.9780184605    -1.3973034836
   66      N       3.6066936289    -0.6944400920    -1.2981282089
   67      C       3.5600456356     1.5633123612    -0.9805202354
   68      C       4.1994376385     2.8783783358    -1.0477983835
   69      S       2.0675418708    -0.2666105970    -0.7659987238
   70      N       2.2542526192     1.3852411657    -0.7059583161
   71      C       3.5269206550     4.1875104846    -0.7317795176
   72      S       1.8338169993     4.3334633623    -0.2691222271
   73      C       4.2049567898     5.3639009963    -0.5056880232
   74      C       2.0154413997     6.0889208297     0.0520158385
   75      S       5.8187498783     5.8190514330    -0.8826269410
   76      C       3.3281399120     6.4358554953    -0.1786548218
   77      C       1.0198542722     6.8828582084     0.7108714452
   78      C       5.4086992686     7.4429442679    -0.1978112298
   79      C       4.0462564545     7.5992599601     0.0088889941
   80      N       0.0998524828     6.2208595642     1.2608319005
   81      S       0.7545924163     8.5708923285     0.3828440726
   82      C      -0.9873625488     7.0533677190     1.4420876512
   83      C      -0.7538180520     8.4103470138     1.1234371194
   84      C       8.8906556095    -4.2837680797    -2.6168189927
   85      H       9.3501286168    -1.8366179666    -3.4022862928
   86      H       7.9727176934     0.2559555385    -3.1580809001
   87      H       5.4771150309    -2.2474154114    -0.6007771954
   88      H       7.2156918066     2.0528232881    -1.9241833773
   89      H       6.2162060353     8.1536120804    -0.0753282437
   90      H       3.6439096545     8.5131700698     0.4315784355
   91      H      -1.8931977852     6.7386554897     1.9440017248
   92      H      -1.2861233720     9.3359749437     1.2996017632
   93      H       8.6794752964    -4.6347668717    -3.6338739191
   94      C       8.6950387853    -5.4836907863    -1.6373086272
   95      H       9.9495401180    -4.0117272270    -2.5271174192
   96      H       7.6761388130    -5.8827821561    -1.7083714520
   97      H       8.7982199700    -5.1410288430    -0.6002365778
   98      C       9.7574199203    -6.6306428404    -1.9094121175
   99      H       9.5037882290    -7.5271200768    -1.3306474591
  100      C      11.2185438715    -6.2766236858    -1.7029630012
  101      H       9.5769457397    -6.8293151020    -2.9730692063
  102      H      11.4689339872    -6.2467253218    -0.6348188734
  103      H      11.5538703697    -5.2886485222    -2.0419942914
  104      C      12.1505173875    -7.2651901581    -2.3782449388
  105      H      11.6944669426    -8.2495038581    -2.2153906120
  106      C      13.6609278695    -7.2053936145    -1.9687689941
  107      H      12.0605358619    -7.0933081508    -3.4581689642
  108      H      14.1943113758    -8.0162866100    -2.4801480952
  109      H      13.7064532922    -7.3863740958    -0.8871500680
  110      H      14.1291065209    -6.2552516708    -2.2553698267
 ----------------------------------------------------------------

    9   -5663.5003129516      6.43E-06 Convergence criterion met
 Total energy in the final basis set = -5663.5003129516

                    Orbital Energies (a.u.)
 --------------------------------------------------------------

 Alpha MOs
 -- Occupied --
-88.988 -88.977 -88.932 -88.923 -88.915 -88.912 -88.909 -88.907
-14.388 -14.384 -14.383 -14.376 -14.346 -14.345 -14.343 -14.340
-14.332 -14.325 -10.266 -10.263 -10.259 -10.259 -10.257 -10.254
-10.248 -10.244 -10.236 -10.235 -10.234 -10.233 -10.233 -10.233
-10.233 -10.231 -10.231 -10.231 -10.230 -10.230 -10.230 -10.230
-10.226 -10.225 -10.224 -10.224 -10.223 -10.222 -10.222 -10.221
-10.221 -10.209 -10.204 -10.203 -10.201 -10.198 -10.198 -10.190
-10.186 -10.184 -10.182 -10.182 -10.178 -10.178 -10.176 -10.176
-10.176 -10.175 -10.172 -10.170  -8.043  -8.031  -7.993  -7.986
 -7.973  -7.971  -7.969  -7.966  -6.008  -6.003  -6.001  -5.997
 -5.991  -5.989  -5.957  -5.954  -5.950  -5.950  -5.946  -5.943
 -5.938  -5.935  -5.934  -5.933  -5.932  -5.931  -5.930  -5.930
 -5.927  -5.927  -5.925  -5.923  -1.029  -1.024  -0.988  -0.980
 -0.956  -0.954  -0.938  -0.935  -0.921  -0.908  -0.897  -0.896
 -0.842  -0.837  -0.826  -0.823  -0.821  -0.813  -0.811  -0.807
 -0.802  -0.799  -0.795  -0.793  -0.784  -0.780  -0.772  -0.762
 -0.751  -0.744  -0.744  -0.738  -0.716  -0.714  -0.707  -0.703
 -0.691  -0.689  -0.673  -0.667  -0.654  -0.650  -0.647  -0.634
 -0.633  -0.631  -0.624  -0.618  -0.609  -0.608  -0.603  -0.602
 -0.595  -0.592  -0.586  -0.582  -0.579  -0.576  -0.567  -0.562
 -0.547  -0.544  -0.537  -0.534  -0.529  -0.522  -0.519  -0.514
 -0.506  -0.503  -0.495  -0.490  -0.483  -0.476  -0.474  -0.474
 -0.471  -0.467  -0.466  -0.463  -0.462  -0.456  -0.455  -0.451
 -0.450  -0.445  -0.443  -0.437  -0.436  -0.436  -0.430  -0.429
 -0.429  -0.423  -0.421  -0.418  -0.418  -0.415  -0.413  -0.413
 -0.410  -0.406  -0.405  -0.405  -0.404  -0.399  -0.395  -0.394
 -0.393  -0.391  -0.390  -0.387  -0.386  -0.383  -0.382  -0.382
 -0.378  -0.373  -0.373  -0.370  -0.364  -0.361  -0.357  -0.354
 -0.354  -0.352  -0.351  -0.345  -0.344  -0.344  -0.341  -0.338
 -0.335  -0.333  -0.330  -0.329  -0.329  -0.327  -0.323  -0.317
 -0.316  -0.310  -0.309  -0.308  -0.304  -0.303  -0.300  -0.297
 -0.295  -0.293  -0.293  -0.288  -0.288  -0.286  -0.285  -0.279
 -0.274  -0.269  -0.266  -0.263  -0.257  -0.252  -0.251  -0.249
 -0.239  -0.237  -0.231  -0.227  -0.193  -0.192

          Ground-State Mulliken Net Atomic Charges

     Atom                 Charge (a.u.)
  ----------------------------------------
      1 C                     0.263331
      2 C                    -0.115552
      3 N                    -0.476480
      4 C                    -0.069146
      5 C                     0.057622
      6 C                     0.028317
      7 C                     0.075845
      8 C                     0.060552
      9 C                     0.192346
     10 N                    -0.556221
     11 N                    -0.541016
     12 C                     0.199148
     13 C                     0.319144
     14 S                     0.611493
     15 N                    -0.559681
     16 C                    -0.225071
     17 S                     0.329489
     18 C                    -0.105201
     19 C                    -0.240027
     20 S                     0.277023
     21 C                     0.185094
     22 C                     0.082588
     23 C                    -0.314752
     24 C                    -0.084550
     25 N                    -0.435143
     26 S                     0.279506
     27 C                     0.118793
     28 C                    -0.309428
     29 C                    -0.215175
     30 H                     0.087885
     31 H                     0.133874
     32 H                     0.107323
     33 H                     0.115241
     34 H                     0.125325
     35 H                     0.118716
     36 H                     0.122209
     37 H                     0.130950
     38 H                     0.114908
     39 C                    -0.174950
     40 H                     0.104208
     41 H                     0.099717
     42 H                     0.093626
     43 C                    -0.179720
     44 H                     0.094439
     45 C                    -0.178740
     46 H                     0.095709
     47 H                     0.094494
     48 H                     0.097858
     49 C                    -0.180512
     50 H                     0.091033
     51 C                    -0.319025
     52 H                     0.095695
     53 H                     0.099219
     54 H                     0.094304
     55 H                     0.101261
     56 C                     0.265561
     57 C                    -0.106456
     58 N                    -0.476568
     59 C                    -0.087587
     60 C                     0.091972
     61 C                     0.029806
     62 C                     0.061619
     63 C                     0.040424
     64 C                     0.245483
     65 N                    -0.535998
     66 N                    -0.567300
     67 C                     0.200803
     68 C                     0.317224
     69 S                     0.626685
     70 N                    -0.564238
     71 C                    -0.228547
     72 S                     0.354682
     73 C                    -0.112063
     74 C                    -0.240789
     75 S                     0.280723
     76 C                     0.151811
     77 C                     0.073522
     78 C                    -0.314643
     79 C                    -0.075209
     80 N                    -0.403080
     81 S                     0.275902
     82 C                     0.090145
     83 C                    -0.308129
     84 C                    -0.240919
     85 H                     0.081487
     86 H                     0.096794
     87 H                     0.106986
     88 H                     0.107867
     89 H                     0.125116
     90 H                     0.106400
     91 H                     0.113300
     92 H                     0.143697
     93 H                     0.116410
     94 C                    -0.177848
     95 H                     0.109354
     96 H                     0.109700
     97 H                     0.096804
     98 C                    -0.186753
     99 H                     0.094340
    100 C                    -0.163389
    101 H                     0.089436
    102 H                     0.086933
    103 H                     0.087304
    104 C                    -0.179650
    105 H                     0.090357
    106 C                    -0.322016
    107 H                     0.090053
    108 H                     0.104715
    109 H                     0.105235
    110 H                     0.104641
  ----------------------------------------
  Sum of atomic charges =     0.000000

                    Cartesian Multipole Moments
 -----------------------------------------------------------------
    Charge (ESU x 10^10)
                 0.0000
    Dipole Moment (Debye)
         X       0.8303      Y       2.1668      Z      -0.2931
       Tot       2.3389
    Quadrupole Moments (Debye-Ang)
        XX    -414.4918     XY      -6.2669     YY    -409.2283
        XZ      18.0546     YZ      -3.6545     ZZ    -431.7760

 Total job time:  80.34s(wall), 931.53s(cpu)
        *  Thank you very much for using Q-Chem.  Have a nice day.  *
