 Q-Chem 4.4, Q-Chem, Inc., Pleasanton, CA (2016)
 Q-Chem 4.4.2 for Intel X86 Linux

User input:
--------------------------------------------------------------
$comment
SP
$end

$rem
MEM_STATIC 5000
MEM_TOTAL 20000
JOBTYPE SP
EXCHANGE B3LYP
BASIS 6-31g(d,p)
$end

$molecule
0 1
C         -22.081000     -3.069000      2.351000
C         -23.038000     -2.712000      3.357000
N         -21.801000     -4.333000      2.067000
C         -23.800000     -3.726000      3.955000
C         -22.485000     -5.297000      2.706000
C         -23.597000     -5.068000      3.598000
C         -24.414000     -6.124000      4.207000
C         -25.808000     -5.982000      4.547000
C         -23.824000     -7.346000      4.634000
N         -26.587000     -7.015000      4.972000
N         -22.483000     -7.619000      4.518000
C         -24.561000     -8.301000      5.216000
C         -25.943000     -8.213000      5.136000
S         -22.331000     -9.036000      5.275000
N         -23.888000     -9.350000      5.703000
C         -26.855000     -9.254000      5.506000
S         -28.467000     -9.021000      6.128000
C         -26.682000    -10.573000      5.136000
C         -28.839000    -10.699000      6.064000
S         -25.609000    -11.300000      3.889000
C         -27.859000    -11.316000      5.335000
C         -30.143000    -11.200000      6.130000
C         -26.715000    -12.677000      3.790000
C         -27.789000    -12.564000      4.598000
N         -30.339000    -12.451000      6.473000
S         -31.574000    -10.228000      5.888000
C         -31.703000    -12.719000      6.451000
C         -32.539000    -11.654000      6.225000
C         -21.217000     -1.982000      1.664000
H         -23.263000     -1.702000      3.688000
H         -24.492000     -3.429000      4.737000
H         -22.273000     -6.299000      2.336000
H         -26.317000     -5.058000      4.273000
H         -26.594000    -13.441000      3.034000
H         -28.511000    -13.370000      4.666000
H         -32.015000    -13.746000      6.593000
H         -33.614000    -11.756000      6.293000
H         -20.482000     -1.756000      2.446000
C         -22.036000     -0.765000      1.145000
H         -20.679000     -2.588000      0.925000
H         -22.562000     -0.265000      1.968000
H         -22.772000     -1.122000      0.414000
C         -21.083000      0.115000      0.533000
H         -20.364000      0.498000      1.268000
C         -21.797000      1.323000     -0.148000
H         -20.500000     -0.390000     -0.247000
H         -21.816000      2.096000      0.630000
H         -22.806000      1.051000     -0.483000
C         -21.024000      2.033000     -1.298000
H         -20.962000      1.492000     -2.250000
C         -19.697000      2.635000     -0.810000
H         -21.734000      2.848000     -1.491000
H         -19.807000      3.146000      0.154000
H         -19.370000      3.429000     -1.492000
H         -18.912000      1.870000     -0.767000
C         -30.383000     -5.273000     -0.068000
C         -29.495000     -6.233000     -0.511000
N         -29.990000     -3.985000      0.114000
C         -28.242000     -5.911000     -1.010000
C         -28.727000     -3.712000     -0.213000
C         -27.727000     -4.611000     -0.777000
C         -26.280000     -4.252000     -1.204000
C         -25.246000     -5.172000     -1.258000
C         -25.937000     -2.912000     -1.480000
N         -23.955000     -4.882000     -1.528000
N         -26.828000     -1.919000     -1.613000
C         -24.648000     -2.568000     -1.777000
C         -23.621000     -3.611000     -1.790000
S         -25.892000     -0.555000     -1.927000
N         -24.406000     -1.283000     -2.097000
C         -22.158000     -3.385000     -2.063000
S         -21.465000     -1.814000     -2.455000
C         -21.173000     -4.303000     -1.777000
C         -19.799000     -2.478000     -2.419000
S         -21.269000     -5.989000     -1.458000
C         -19.874000     -3.813000     -2.089000
C         -18.619000     -1.664000     -2.444000
C         -19.463000     -5.964000     -1.349000
C         -18.923000     -4.775000     -1.816000
N         -18.825000     -0.435000     -2.259000
S         -17.115000     -2.161000     -3.164000
C         -17.741000      0.267000     -2.749000
C         -16.658000     -0.536000     -3.173000
C         -31.819000     -5.656000      0.302000
H         -29.943000     -7.215000     -0.629000
H         -27.615000     -6.691000     -1.430000
H         -28.479000     -2.710000      0.132000
H         -25.390000     -6.227000     -1.032000
H         -18.969000     -6.865000     -1.008000
H         -17.853000     -4.600000     -1.800000
H         -17.648000      1.342000     -2.664000
H         -15.625000     -0.345000     -3.433000
H         -32.416000     -5.726000     -0.615000
C         -32.555000     -4.697000      1.290000
H         -31.798000     -6.628000      0.810000
H         -32.696000     -3.707000      0.840000
H         -31.933000     -4.524000      2.177000
C         -33.950000     -5.299000      1.748000
H         -34.523000     -4.547000      2.304000
C         -33.914000     -6.602000      2.525000
H         -34.430000     -5.467000      0.776000
H         -33.604000     -6.432000      3.564000
H         -33.200000     -7.368000      2.198000
C         -35.262000     -7.298000      2.543000
H         -36.000000     -6.495000      2.661000
C         -35.442000     -8.463000      3.574000
H         -35.430000     -7.682000      1.529000
H         -36.478000     -8.820000      3.521000
H         -35.271000     -8.037000      4.571000
H         -34.778000     -9.310000      3.360000
$end

--------------------------------------------------------------

             Standard Nuclear Orientation (Angstroms)
    I     Atom           X                Y                Z
 ----------------------------------------------------------------
    1      C      -3.1172484239    -1.3409298747    -2.1109860235
    2      C      -2.2169137459    -0.9004804132    -3.1360400413
    3      N      -2.7132207734    -2.0986540506    -1.1013485981
    4      C      -0.8466665280    -1.1598592538    -2.9891074754
    5      C      -1.4077419788    -2.4052214969    -1.0164102807
    6      C      -0.3765627751    -1.8721728826    -1.8750007679
    7      C       1.0606783443    -2.1193914177    -1.7115169446
    8      C       2.0956841400    -1.1883779798    -2.0869859600
    9      C       1.5367689642    -3.3891161885    -1.2815754043
   10      N       3.4128699483    -1.3699660057    -1.7927032128
   11      N       0.7114801257    -4.4506340588    -1.0016751651
   12      C       2.8489333897    -3.6277158364    -1.1582355150
   13      C       3.7226524330    -2.5504335516    -1.1703149214
   14      S       1.7474451008    -5.6546070680    -0.7166005020
   15      N       3.1947818108    -4.8903253654    -0.8812787550
   16      C       5.1126346631    -2.6164937067    -0.8298586745
   17      S       6.3703267812    -1.6030834527    -1.4863091243
   18      C       5.5847177180    -3.2891328692     0.2797737630
   19      C       7.5597929080    -2.2107333596    -0.4027520543
   20      S       4.7099323106    -3.9067332135     1.7248299231
   21      C       6.9133828956    -2.9290707051     0.5661006455
   22      C       8.7800234068    -1.5706883408    -0.1636853194
   23      C       6.2213572830    -3.8086029029     2.6386849416
   24      C       7.2557181357    -3.3285700329     1.9184245233
   25      N       9.7813754181    -2.2534152183     0.3385538272
   26      S       9.1114490856     0.0887990648    -0.5965450772
   27      C      10.8715179147    -1.4061766533     0.5015880289
   28      C      10.7438749129    -0.1319457273     0.0073817852
   29      C      -4.6389685260    -1.0766858371    -2.2317213525
   30      H      -2.4933231994    -0.3396971926    -4.0245252655
   31      H      -0.1939707386    -0.8443562838    -3.7972182861
   32      H      -1.1439548647    -2.9352549888    -0.1024470123
   33      H       1.8007196838    -0.2044349795    -2.4513829162
   34      H       6.2432775535    -3.9758951100     3.7070508991
   35      H       8.2473137817    -3.2725833447     2.3533355091
   36      H      11.7373293008    -1.7967432656     1.0212661651
   37      H      11.5779533961     0.5572048449     0.0012521386
   38      H      -4.9359543176    -1.8266617491    -2.9747964301
   39      C      -4.9935529162     0.3954972990    -2.5897125870
   40      H      -4.9893164388    -1.4665386037    -1.2683563332
   41      H      -4.5541649972     0.6828422493    -3.5532353611
   42      H      -4.5986568988     1.0533188052    -1.8055990739
   43      C      -6.4258641498     0.4513653538    -2.6398752298
   44      H      -6.8220765969    -0.1819715866    -3.4434765095
   45      C      -6.9190748374     1.9140811461    -2.8635417864
   46      H      -6.8831280722     0.1014595717    -1.7061784649
   47      H      -7.0072945624     2.0031555376    -3.9532468075
   48      H      -6.2099976096     2.6407236123    -2.4470202245
   49      C      -8.3647632689     2.2436655966    -2.3886859674
   50      H      -8.5151788436     2.3247725255    -1.3053458449
   51      C      -9.4162147091     1.3987632414    -3.1249378802
   52      H      -8.4224733902     3.2781314189    -2.7521746251
   53      H      -9.2100857261     1.3308005850    -4.1998373730
   54      H     -10.3955821271     1.8896274848    -3.0761448976
   55      H      -9.5047907475     0.4029364963    -2.6735152631
   56      C       2.8452249527     4.5083716973     1.0301862660
   57      C       2.5839354471     3.5462995263     1.9854547791
   58      N       1.9158001728     4.8392286897     0.0957237311
   59      C       1.3119109092     3.0362666502     2.1964382861
   60      C       0.7401332358     4.2202692718     0.2021356299
   61      C       0.3132855933     3.2634202215     1.2163042476
   62      C      -1.0830053400     2.6021149713     1.3507140527
   63      C      -1.2982174835     1.3860766027     1.9779352413
   64      C      -2.2079252241     3.1975915685     0.7429411703
   65      N      -2.4780856230     0.7311451025     2.0294803998
   66      N      -2.2155321300     4.4319097436     0.2194721859
   67      C      -3.4290954796     2.5850021395     0.7822272823
   68      C      -3.5511842845     1.2898164915     1.4532976668
   69      S      -3.7823203610     4.6300731703    -0.3645602578
   70      N      -4.4717405276     3.2428463291     0.2415598005
   71      C      -4.8151362923     0.4779228052     1.5493599594
   72      S      -6.3657774987     0.9966359502     0.8948353058
   73      C      -4.8486720476    -0.8507031578     1.9076523032
   74      C      -7.1265338115    -0.5759467383     1.3022436028
   75      S      -3.6785267677    -1.8291180714     2.6995091594
   76      C      -6.1668167592    -1.3853105232     1.8684798108
   77      C      -8.4217133864    -0.9761615638     0.8353828504
   78      C      -4.8983924440    -3.1634857136     2.6251268546
   79      C      -6.1572928990    -2.7074569775     2.2637165111
   80      N      -8.9004155800    -0.2471851992    -0.0737594211
   81      S      -9.4964213177    -2.0110409794     1.7306216216
   82      C     -10.2684719581    -0.4349017337    -0.1075861704
   83      C     -10.7465246755    -1.4611384345     0.7384503733
   84      C       4.2226548296     5.1738052318     0.9555528594
   85      H       3.4045972278     3.3917576937     2.6794166395
   86      H       1.1389028655     2.3489210242     3.0183587246
   87      H       0.1461847470     4.4301150862    -0.6854019336
   88      H      -0.4962162697     0.8226999564     2.4514727873
   89      H      -4.5768424626    -4.1535964807     2.9224554240
   90      H      -6.9928700436    -3.3904996734     2.1586236426
   91      H     -10.9103927680     0.0397222207    -0.8384546783
   92      H     -11.6863764598    -1.9880286816     0.8396199888
   93      H       4.2755996059     5.9675707585     1.7100932090
   94      C       4.6175783368     5.7871803715    -0.4247831002
   95      H       4.9861315062     4.4128087991     1.1587197707
   96      H       3.9524716926     6.6188454663    -0.6864074913
   97      H       4.4752678575     5.0440174450    -1.2191624757
   98      C       6.1302774247     6.2666357801    -0.4323316558
   99      H       6.3413461969     6.8404575094    -1.3429070762
  100      C       7.1903201797     5.1987867005    -0.2352486759
  101      H       6.1339838261     6.9475041456     0.4277919001
  102      H       7.3327681205     4.6120231028    -1.1517300257
  103      H       6.9896397437     4.4156116436     0.5062667945
  104      C       8.5315585826     5.7865396818     0.1615761966
  105      H       8.6362625990     6.6984662853    -0.4390933788
  106      C       9.7737739945     4.8372191030     0.0705964791
  107      H       8.4238571781     6.1449079943     1.1930065432
  108      H      10.6736130220     5.4140010405     0.3179147380
  109      H       9.8479409603     4.5067519055    -0.9734421660
  110      H       9.7035591474     3.9969250841     0.7727907807
 ----------------------------------------------------------------

   10   -5663.4996792224      3.73E-06 Convergence criterion met
 Total energy in the final basis set = -5663.4996792224

                    Orbital Energies (a.u.)
 --------------------------------------------------------------

 Alpha MOs
 -- Occupied --
-88.990 -88.985 -88.927 -88.924 -88.923 -88.919 -88.910 -88.907
-14.393 -14.386 -14.385 -14.385 -14.353 -14.350 -14.346 -14.337
-14.327 -14.324 -10.267 -10.262 -10.261 -10.256 -10.253 -10.252
-10.250 -10.247 -10.240 -10.238 -10.237 -10.236 -10.236 -10.234
-10.234 -10.229 -10.229 -10.227 -10.226 -10.226 -10.225 -10.225
-10.225 -10.224 -10.224 -10.224 -10.224 -10.224 -10.223 -10.212
-10.210 -10.210 -10.206 -10.204 -10.199 -10.196 -10.195 -10.191
-10.186 -10.178 -10.177 -10.177 -10.176 -10.176 -10.172 -10.171
-10.166 -10.165 -10.163 -10.153  -8.046  -8.040  -7.990  -7.985
 -7.983  -7.977  -7.970  -7.966  -6.011  -6.005  -6.005  -6.004
 -6.000  -5.998  -5.953  -5.950  -5.949  -5.947  -5.947  -5.946
 -5.944  -5.942  -5.942  -5.940  -5.938  -5.934  -5.934  -5.931
 -5.931  -5.927  -5.925  -5.923  -1.046  -1.033  -0.993  -0.968
 -0.958  -0.956  -0.937  -0.936  -0.916  -0.911  -0.906  -0.904
 -0.848  -0.839  -0.834  -0.827  -0.825  -0.813  -0.805  -0.804
 -0.802  -0.802  -0.798  -0.798  -0.781  -0.773  -0.765  -0.762
 -0.747  -0.746  -0.739  -0.736  -0.730  -0.717  -0.707  -0.705
 -0.692  -0.686  -0.675  -0.673  -0.656  -0.655  -0.645  -0.638
 -0.636  -0.635  -0.623  -0.620  -0.611  -0.607  -0.605  -0.595
 -0.592  -0.587  -0.581  -0.581  -0.578  -0.576  -0.562  -0.556
 -0.549  -0.547  -0.539  -0.537  -0.526  -0.518  -0.518  -0.508
 -0.505  -0.502  -0.500  -0.495  -0.482  -0.479  -0.476  -0.476
 -0.474  -0.470  -0.466  -0.463  -0.459  -0.456  -0.452  -0.448
 -0.445  -0.441  -0.440  -0.439  -0.438  -0.436  -0.431  -0.430
 -0.429  -0.422  -0.421  -0.416  -0.414  -0.414  -0.411  -0.411
 -0.409  -0.406  -0.404  -0.401  -0.399  -0.399  -0.396  -0.393
 -0.391  -0.389  -0.388  -0.387  -0.386  -0.382  -0.381  -0.379
 -0.374  -0.371  -0.371  -0.370  -0.363  -0.359  -0.356  -0.354
 -0.354  -0.352  -0.349  -0.348  -0.346  -0.342  -0.340  -0.339
 -0.336  -0.332  -0.331  -0.330  -0.329  -0.325  -0.318  -0.317
 -0.316  -0.313  -0.308  -0.306  -0.305  -0.303  -0.302  -0.298
 -0.298  -0.295  -0.289  -0.288  -0.287  -0.285  -0.283  -0.280
 -0.277  -0.277  -0.266  -0.259  -0.253  -0.252  -0.250  -0.247
 -0.245  -0.239  -0.229  -0.227  -0.196  -0.195

          Ground-State Mulliken Net Atomic Charges

     Atom                 Charge (a.u.)
  ----------------------------------------
      1 C                     0.253566
      2 C                    -0.111692
      3 N                    -0.477673
      4 C                    -0.086013
      5 C                     0.098811
      6 C                     0.029367
      7 C                     0.019425
      8 C                     0.062822
      9 C                     0.219270
     10 N                    -0.505671
     11 N                    -0.534372
     12 C                     0.239269
     13 C                     0.251834
     14 S                     0.612997
     15 N                    -0.544161
     16 C                    -0.212505
     17 S                     0.330668
     18 C                    -0.118177
     19 C                    -0.193439
     20 S                     0.241650
     21 C                     0.114530
     22 C                     0.029846
     23 C                    -0.298946
     24 C                    -0.040044
     25 N                    -0.415298
     26 S                     0.267945
     27 C                     0.106364
     28 C                    -0.303231
     29 C                    -0.243143
     30 H                     0.089183
     31 H                     0.097590
     32 H                     0.110363
     33 H                     0.115618
     34 H                     0.133447
     35 H                     0.118796
     36 H                     0.109673
     37 H                     0.133570
     38 H                     0.113638
     39 C                    -0.169885
     40 H                     0.128944
     41 H                     0.088210
     42 H                     0.104781
     43 C                    -0.169451
     44 H                     0.081350
     45 C                    -0.187083
     46 H                     0.127529
     47 H                     0.081560
     48 H                     0.084214
     49 C                    -0.173468
     50 H                     0.108620
     51 C                    -0.323283
     52 H                     0.079429
     53 H                     0.094800
     54 H                     0.089467
     55 H                     0.115608
     56 C                     0.266309
     57 C                    -0.102764
     58 N                    -0.476530
     59 C                    -0.087789
     60 C                     0.091969
     61 C                     0.031009
     62 C                     0.061183
     63 C                     0.046134
     64 C                     0.255306
     65 N                    -0.534532
     66 N                    -0.560055
     67 C                     0.209949
     68 C                     0.326129
     69 S                     0.585864
     70 N                    -0.567910
     71 C                    -0.230463
     72 S                     0.353772
     73 C                    -0.097938
     74 C                    -0.248930
     75 S                     0.292301
     76 C                     0.148609
     77 C                     0.083444
     78 C                    -0.307364
     79 C                    -0.075721
     80 N                    -0.416514
     81 S                     0.282426
     82 C                     0.096142
     83 C                    -0.312802
     84 C                    -0.241876
     85 H                     0.082990
     86 H                     0.097356
     87 H                     0.105654
     88 H                     0.111447
     89 H                     0.126455
     90 H                     0.106525
     91 H                     0.117708
     92 H                     0.146136
     93 H                     0.115916
     94 C                    -0.178222
     95 H                     0.112044
     96 H                     0.108670
     97 H                     0.099217
     98 C                    -0.187523
     99 H                     0.094540
    100 C                    -0.163872
    101 H                     0.088931
    102 H                     0.088883
    103 H                     0.089559
    104 C                    -0.179275
    105 H                     0.090618
    106 C                    -0.325575
    107 H                     0.090145
    108 H                     0.104143
    109 H                     0.105163
    110 H                     0.105790
  ----------------------------------------
  Sum of atomic charges =     0.000000

                    Cartesian Multipole Moments
 -----------------------------------------------------------------
    Charge (ESU x 10^10)
                 0.0000
    Dipole Moment (Debye)
         X      -1.5360      Y      -0.9383      Z       1.7397
       Tot       2.5032
    Quadrupole Moments (Debye-Ang)
        XX    -391.7211     XY      28.7504     YY    -447.5264
        XZ      16.2454     YZ      -9.6289     ZZ    -433.5005

 Total job time:  97.87s(wall), 1179.15s(cpu)
        *  Thank you very much for using Q-Chem.  Have a nice day.  *
