 Q-Chem 4.4, Q-Chem, Inc., Pleasanton, CA (2016)
 Q-Chem 4.4.2 for Intel X86 Linux

User input:
--------------------------------------------------------------
$comment
SP
$end

$rem
MEM_STATIC 5000
MEM_TOTAL 20000
JOBTYPE SP
EXCHANGE B3LYP
BASIS 6-31g(d,p)
$end

$molecule
0 1
C         -27.641000     -0.932000     -5.170000
C         -26.987000     -2.158000     -5.042000
N         -27.030000      0.219000     -5.416000
C         -25.568000     -2.070000     -5.103000
C         -25.697000      0.244000     -5.644000
C         -24.898000     -0.900000     -5.480000
C         -23.369000     -0.801000     -5.616000
C         -22.797000      0.453000     -5.267000
C         -22.441000     -1.850000     -5.798000
N         -21.464000      0.706000     -5.462000
N         -22.813000     -3.138000     -6.115000
C         -21.014000     -1.553000     -5.888000
C         -20.589000     -0.223000     -5.827000
S         -21.366000     -3.807000     -6.673000
N         -20.330000     -2.654000     -6.288000
C         -19.145000      0.086000     -6.115000
S         -17.876000     -1.086000     -6.348000
C         -18.599000      1.327000     -6.088000
C         -16.605000      0.182000     -6.378000
S         -19.334000      2.896000     -5.853000
C         -17.168000      1.388000     -6.263000
C         -15.245000     -0.063000     -6.457000
C         -17.705000      3.693000     -6.194000
C         -16.756000      2.750000     -6.438000
N         -14.318000      0.864000     -6.539000
S         -14.618000     -1.707000     -6.516000
C         -13.035000      0.315000     -6.463000
C         -13.052000     -1.021000     -6.109000
C         -29.207000     -0.734000     -5.132000
H         -27.473000     -3.045000     -4.647000
H         -25.059000     -3.014000     -4.934000
H         -25.321000      1.203000     -5.997000
H         -23.457000      1.248000     -4.925000
H         -17.620000      4.772000     -6.215000
H         -15.720000      3.069000     -6.458000
H         -12.145000      0.868000     -6.735000
H         -12.202000     -1.685000     -6.020000
H         -29.411000      0.253000     -4.699000
C         -29.906000     -1.751000     -4.185000
H         -29.632000     -0.887000     -6.132000
H         -29.306000     -1.836000     -3.271000
H         -29.926000     -2.738000     -4.665000
C         -31.373000     -1.494000     -3.916000
H         -31.446000     -0.415000     -3.732000
C         -31.866000     -2.335000     -2.632000
H         -32.019000     -1.759000     -4.762000
H         -32.447000     -1.673000     -1.978000
H         -30.984000     -2.424000     -1.985000
C         -32.456000     -3.724000     -2.954000
H         -32.821000     -4.194000     -2.033000
C         -31.376000     -4.777000     -3.433000
H         -33.224000     -3.768000     -3.736000
H         -31.320000     -4.720000     -4.528000
H         -31.667000     -5.801000     -3.168000
H         -30.404000     -4.543000     -2.983000
C         -30.383000     -5.273000     -0.068000
C         -29.495000     -6.233000     -0.511000
N         -29.990000     -3.985000      0.114000
C         -28.242000     -5.911000     -1.010000
C         -28.727000     -3.712000     -0.213000
C         -27.727000     -4.611000     -0.777000
C         -26.280000     -4.252000     -1.204000
C         -25.246000     -5.172000     -1.258000
C         -25.937000     -2.912000     -1.480000
N         -23.955000     -4.882000     -1.528000
N         -26.828000     -1.919000     -1.613000
C         -24.648000     -2.568000     -1.777000
C         -23.621000     -3.611000     -1.790000
S         -25.892000     -0.555000     -1.927000
N         -24.406000     -1.283000     -2.097000
C         -22.158000     -3.385000     -2.063000
S         -21.465000     -1.814000     -2.455000
C         -21.173000     -4.303000     -1.777000
C         -19.799000     -2.478000     -2.419000
S         -21.269000     -5.989000     -1.458000
C         -19.874000     -3.813000     -2.089000
C         -18.619000     -1.664000     -2.444000
C         -19.463000     -5.964000     -1.349000
C         -18.923000     -4.775000     -1.816000
N         -18.825000     -0.435000     -2.259000
S         -17.115000     -2.161000     -3.164000
C         -17.741000      0.267000     -2.749000
C         -16.658000     -0.536000     -3.173000
C         -31.819000     -5.656000      0.302000
H         -29.943000     -7.215000     -0.629000
H         -27.615000     -6.691000     -1.430000
H         -28.479000     -2.710000      0.132000
H         -25.390000     -6.227000     -1.032000
H         -18.969000     -6.865000     -1.008000
H         -17.853000     -4.600000     -1.800000
H         -17.648000      1.342000     -2.664000
H         -15.625000     -0.345000     -3.433000
H         -32.416000     -5.726000     -0.615000
C         -32.555000     -4.697000      1.290000
H         -31.798000     -6.628000      0.810000
H         -32.696000     -3.707000      0.840000
H         -31.933000     -4.524000      2.177000
C         -33.950000     -5.299000      1.748000
H         -34.523000     -4.547000      2.304000
C         -33.914000     -6.602000      2.525000
H         -34.430000     -5.467000      0.776000
H         -33.604000     -6.432000      3.564000
H         -33.200000     -7.368000      2.198000
C         -35.262000     -7.298000      2.543000
H         -36.000000     -6.495000      2.661000
C         -35.442000     -8.463000      3.574000
H         -35.430000     -7.682000      1.529000
H         -36.478000     -8.820000      3.521000
H         -35.271000     -8.037000      4.571000
H         -34.778000     -9.310000      3.360000
$end

--------------------------------------------------------------

             Standard Nuclear Orientation (Angstroms)
    I     Atom           X                Y                Z
 ----------------------------------------------------------------
    1      C       2.7833765962     3.7875164939     0.7543844488
    2      C       2.5811536278     2.5783073979     1.4207891555
    3      N       1.8265559810     4.4740573234     0.1446353202
    4      C       1.2554569393     2.0714234926     1.3177212333
    5      C       0.5421967847     4.0555952639     0.2139819825
    6      C       0.1975473787     2.8214014732     0.7901898217
    7      C      -1.2548702103     2.3185065309     0.7292158604
    8      C      -2.0127956088     2.7519469474    -0.3929158144
    9      C      -1.8549687455     1.2946238141     1.4948887216
   10      N      -3.3509395550     2.4740126666    -0.4980172651
   11      N      -1.2576138748     0.7339661845     2.6024297731
   12      C      -3.2563908737     0.9471844711     1.2759368516
   13      C      -3.9964298882     1.6617114923     0.3298716356
   14      S      -2.5555652885    -0.0288832934     3.3680124282
   15      N      -3.6921507802     0.1159035127     2.2552949435
   16      C      -5.4807566461     1.4291555391     0.2507969585
   17      S      -6.3704450783     0.2035077931     1.1136272410
   18      C      -6.3158805467     2.0494976662    -0.6190706843
   19      C      -7.8861903415     0.5671450177     0.2223084059
   20      S      -6.0198998022     3.3245898688    -1.7782713890
   21      C      -7.6817177215     1.5840993037    -0.6194902207
   22      C      -9.0702833184    -0.1372354400     0.3551165118
   23      C      -7.8264227864     3.3851424356    -2.1496729161
   24      C      -8.4955483022     2.4620826254    -1.4083109055
   25      N     -10.1958886402     0.1640418704    -0.2512057143
   26      S      -9.1905194220    -1.5199421565     1.4381730272
   27      C     -11.1742668411    -0.8092561334    -0.0304499855
   28      C     -10.6663799109    -1.9398456916     0.5813662588
   29      C       4.1534471470     4.5701771820     0.6964799310
   30      H       3.3987522464     1.9376920248     1.7372294228
   31      H       1.1176732897     1.0975849147     1.7775386863
   32      H      -0.1828474108     4.7692315954    -0.1742191263
   33      H      -1.5309606142     3.3922926175    -1.1293813335
   34      H      -8.2151068815     4.1157916685    -2.8475148557
   35      H      -9.5275215446     2.2561125657    -1.6692027635
   36      H     -12.2222729530    -0.6447235810    -0.2461006952
   37      H     -11.2171201367    -2.8169037358     0.8956454196
   38      H       4.1988067454     5.0986298507    -0.2637045740
   39      C       5.3789825843     3.6121784044     0.6969639885
   40      H       4.2563370765     5.2182416485     1.5759457403
   41      H       5.1575440464     2.7726073708     0.0271084418
   42      H       5.5206145494     3.2059825268     1.7068720514
   43      C       6.7178505371     4.2613328987     0.4203233418
   44      H       6.5382376248     4.9414366187    -0.4214748121
   45      C       7.8168486344     3.1452817846     0.0387226436
   46      H       7.1018334076     4.8365943254     1.2717271508
   47      H       8.3660832819     3.4798054851    -0.8500721560
   48      H       7.2554339096     2.3363327041    -0.4459100958
   49      C       8.6379518358     2.6095596719     1.2303166812
   50      H       9.3988413916     1.9070646659     0.8698810417
   51      C       7.8055165198     1.6888155626     2.2121169307
   52      H       9.0903143744     3.3545321722     1.8964008407
   53      H       7.3839961020     2.3337729582     2.9942681279
   54      H       8.4436894055     0.9441062897     2.7036710649
   55      H       7.0076671751     1.1806677695     1.6578045247
   56      C       8.1397872665    -1.0130846904    -0.0557649204
   57      C       7.4660510160    -1.8077997725     0.8502706214
   58      N       7.4797260175    -0.3838219807    -1.0631697991
   59      C       6.0821019592    -1.8288481280     0.9335531224
   60      C       6.1563446776    -0.5421841325    -1.0776700829
   61      C       5.3250351642    -1.2723672428    -0.1279047865
   62      C       3.7788157323    -1.3913918017    -0.1354957632
   63      C       3.0880209260    -2.4436371342     0.4424785407
   64      C       3.0007684816    -0.4414442684    -0.8295182121
   65      N       1.7530255592    -2.6347534143     0.3721725093
   66      N       3.4812223516     0.7084495565    -1.3240151992
   67      C       1.6435577910    -0.5784309753    -0.9148398583
   68      C       1.0071534418    -1.7372831165    -0.2865101525
   69      S       2.1487260205     1.4448182836    -2.0433222446
   70      N       0.9579866156     0.4012695529    -1.5331990084
   71      C      -0.4659926990    -2.0445911881    -0.3236072808
   72      S      -1.6629304059    -1.0152888147    -1.1045238896
   73      C      -1.0029367377    -3.2698745967     0.0006097265
   74      C      -2.9675129529    -2.2089355408    -0.8028288922
   75      S      -0.3360919161    -4.5915824412     0.8735240165
   76      C      -2.4153251053    -3.3003751914    -0.1699007211
   77      C      -4.2710932613    -2.1270325846    -1.3940913428
   78      C      -1.9382572413    -5.4047548303     0.6591436618
   79      C      -2.9133441917    -4.5345096813     0.1951513992
   80      N      -4.3727327940    -1.2860192044    -2.3265439688
   81      S      -5.7216425182    -2.7007696408    -0.6232751237
   82      C      -5.7086602891    -0.9745625614    -2.4885701623
   83      C      -6.5966810113    -1.7533017048    -1.7123881325
   84      C       9.6643919777    -0.8827882820     0.0097203501
   85      H       8.1099676640    -2.2363895474     1.6122641614
   86      H       5.6005399901    -2.3998688177     1.7209300600
   87      H       5.7608891864    -0.1449240258    -2.0105861360
   88      H       3.5896139103    -3.2501471548     0.9742520497
   89      H      -2.0189214405    -6.4409232084     0.9624032520
   90      H      -3.9236223597    -4.8763403806    -0.0004778327
   91      H      -6.0690850992    -0.3109935757    -3.2639856364
   92      H      -7.6675216220    -1.9096874069    -1.7086600382
   93      H       9.9259842149    -0.1511891788     0.7833677205
   94      C      10.3778011401    -0.4664308525    -1.3151248703
   95      H      10.0849387915    -1.8633768862     0.2644267824
   96      H      10.0792927595     0.5444702461    -1.6175363706
   97      H      10.0547891167    -1.1193855005    -2.1354269246
   98      C      11.9558426738    -0.5572986116    -1.1746935056
   99      H      12.4406451399    -0.1069387530    -2.0494000660
  100      C      12.5436270713    -1.9302912756    -0.9059284659
  101      H      12.1217011014     0.0875825658    -0.3028980887
  102      H      12.5523873540    -2.5399566581    -1.8184811378
  103      H      12.0097016961    -2.5819323236    -0.2032417375
  104      C      13.9632351709    -1.8541883372    -0.3760556639
  105      H      14.4406351417    -1.0464227081    -0.9443697991
  106      C      14.7893042238    -3.1846749579    -0.3749278026
  107      H      13.8949013380    -1.4689595913     0.6490322838
  108      H      15.8083675750    -2.9633582114    -0.0342185661
  109      H      14.8375430523    -3.5320376747    -1.4149942228
  110      H      14.3600434027    -3.9366101953     0.2991860945
 ----------------------------------------------------------------

   10   -5663.4919191529      5.38E-06 Convergence criterion met
 Total energy in the final basis set = -5663.4919191529

                    Orbital Energies (a.u.)
 --------------------------------------------------------------

 Alpha MOs
 -- Occupied --
-88.988 -88.983 -88.924 -88.922 -88.921 -88.919 -88.910 -88.905
-14.392 -14.389 -14.385 -14.384 -14.352 -14.351 -14.345 -14.339
-14.331 -14.324 -10.268 -10.268 -10.267 -10.260 -10.258 -10.256
-10.255 -10.251 -10.246 -10.242 -10.240 -10.239 -10.238 -10.235
-10.234 -10.232 -10.230 -10.230 -10.230 -10.229 -10.229 -10.228
-10.228 -10.228 -10.227 -10.227 -10.227 -10.227 -10.226 -10.219
-10.214 -10.211 -10.209 -10.204 -10.201 -10.200 -10.198 -10.194
-10.189 -10.180 -10.179 -10.178 -10.177 -10.177 -10.176 -10.173
-10.171 -10.171 -10.168 -10.166  -8.043  -8.038  -7.984  -7.983
 -7.983  -7.977  -7.970  -7.964  -6.009  -6.003  -6.003  -6.001
 -5.998  -5.996  -5.948  -5.947  -5.947  -5.945  -5.943  -5.943
 -5.941  -5.941  -5.940  -5.939  -5.938  -5.934  -5.934  -5.931
 -5.929  -5.926  -5.925  -5.921  -1.031  -1.029  -0.987  -0.972
 -0.959  -0.956  -0.940  -0.940  -0.914  -0.911  -0.903  -0.899
 -0.840  -0.840  -0.828  -0.825  -0.819  -0.811  -0.805  -0.804
 -0.803  -0.799  -0.796  -0.794  -0.783  -0.780  -0.766  -0.764
 -0.747  -0.745  -0.741  -0.739  -0.725  -0.718  -0.706  -0.702
 -0.692  -0.690  -0.674  -0.672  -0.657  -0.649  -0.648  -0.639
 -0.636  -0.635  -0.626  -0.623  -0.610  -0.608  -0.602  -0.596
 -0.596  -0.594  -0.583  -0.581  -0.579  -0.571  -0.564  -0.559
 -0.547  -0.545  -0.539  -0.538  -0.524  -0.521  -0.515  -0.510
 -0.508  -0.502  -0.499  -0.494  -0.484  -0.480  -0.478  -0.477
 -0.472  -0.468  -0.467  -0.466  -0.464  -0.459  -0.455  -0.455
 -0.447  -0.445  -0.442  -0.440  -0.439  -0.436  -0.434  -0.431
 -0.428  -0.427  -0.423  -0.422  -0.417  -0.415  -0.413  -0.409
 -0.408  -0.408  -0.407  -0.404  -0.400  -0.398  -0.395  -0.395
 -0.392  -0.391  -0.389  -0.388  -0.386  -0.384  -0.382  -0.380
 -0.379  -0.373  -0.370  -0.368  -0.364  -0.357  -0.357  -0.355
 -0.350  -0.349  -0.349  -0.347  -0.342  -0.341  -0.340  -0.337
 -0.335  -0.333  -0.333  -0.330  -0.327  -0.326  -0.319  -0.315
 -0.314  -0.312  -0.309  -0.308  -0.305  -0.300  -0.298  -0.295
 -0.294  -0.291  -0.289  -0.289  -0.288  -0.283  -0.281  -0.280
 -0.278  -0.273  -0.268  -0.265  -0.257  -0.253  -0.250  -0.246
 -0.241  -0.241  -0.234  -0.230  -0.200  -0.195

          Ground-State Mulliken Net Atomic Charges

     Atom                 Charge (a.u.)
  ----------------------------------------
      1 C                     0.249783
      2 C                    -0.100675
      3 N                    -0.475078
      4 C                    -0.126695
      5 C                     0.040226
      6 C                     0.075164
      7 C                     0.052792
      8 C                     0.074217
      9 C                     0.191004
     10 N                    -0.542633
     11 N                    -0.564518
     12 C                     0.210066
     13 C                     0.363680
     14 S                     0.610336
     15 N                    -0.551319
     16 C                    -0.205762
     17 S                     0.332248
     18 C                    -0.128897
     19 C                    -0.242142
     20 S                     0.255986
     21 C                     0.173188
     22 C                     0.078575
     23 C                    -0.297336
     24 C                    -0.053264
     25 N                    -0.458609
     26 S                     0.232488
     27 C                     0.113657
     28 C                    -0.304038
     29 C                    -0.212131
     30 H                     0.112400
     31 H                     0.121710
     32 H                     0.110354
     33 H                     0.123621
     34 H                     0.134675
     35 H                     0.126459
     36 H                     0.123126
     37 H                     0.127923
     38 H                     0.114208
     39 C                    -0.201101
     40 H                     0.114602
     41 H                     0.115881
     42 H                     0.091986
     43 C                    -0.184357
     44 H                     0.084080
     45 C                    -0.193705
     46 H                     0.088583
     47 H                     0.088298
     48 H                     0.116638
     49 C                    -0.181473
     50 H                     0.095716
     51 C                    -0.327025
     52 H                     0.094052
     53 H                     0.097657
     54 H                     0.091168
     55 H                     0.116962
     56 C                     0.270292
     57 C                    -0.098574
     58 N                    -0.475615
     59 C                    -0.095280
     60 C                     0.087860
     61 C                     0.034930
     62 C                     0.057359
     63 C                     0.043421
     64 C                     0.257514
     65 N                    -0.537585
     66 N                    -0.570267
     67 C                     0.209561
     68 C                     0.320712
     69 S                     0.600941
     70 N                    -0.567036
     71 C                    -0.234010
     72 S                     0.350828
     73 C                    -0.111660
     74 C                    -0.246023
     75 S                     0.281835
     76 C                     0.151051
     77 C                     0.073410
     78 C                    -0.315233
     79 C                    -0.073438
     80 N                    -0.408253
     81 S                     0.289941
     82 C                     0.094436
     83 C                    -0.313338
     84 C                    -0.246641
     85 H                     0.084356
     86 H                     0.098117
     87 H                     0.110153
     88 H                     0.110404
     89 H                     0.126352
     90 H                     0.110290
     91 H                     0.120097
     92 H                     0.154905
     93 H                     0.119158
     94 C                    -0.181174
     95 H                     0.109386
     96 H                     0.112376
     97 H                     0.098002
     98 C                    -0.187512
     99 H                     0.095619
    100 C                    -0.163189
    101 H                     0.089921
    102 H                     0.087660
    103 H                     0.086955
    104 C                    -0.179727
    105 H                     0.090842
    106 C                    -0.322095
    107 H                     0.089886
    108 H                     0.105028
    109 H                     0.105720
    110 H                     0.104577
  ----------------------------------------
  Sum of atomic charges =     0.000000

                    Cartesian Multipole Moments
 -----------------------------------------------------------------
    Charge (ESU x 10^10)
                 0.0000
    Dipole Moment (Debye)
         X      -2.7441      Y      -3.5267      Z       2.1099
       Tot       4.9416
    Quadrupole Moments (Debye-Ang)
        XX    -389.3404     XY       5.0924     YY    -441.7013
        XZ      12.2718     YZ     -10.7530     ZZ    -442.3954

 Total job time:  111.06s(wall), 1338.62s(cpu)
        *  Thank you very much for using Q-Chem.  Have a nice day.  *
