 Q-Chem 4.4, Q-Chem, Inc., Pleasanton, CA (2016)
 Q-Chem 4.4.2 for Intel X86 Linux

User input:
--------------------------------------------------------------
$comment
SP
$end

$rem
MEM_STATIC 5000
MEM_TOTAL 20000
JOBTYPE SP
EXCHANGE B3LYP
BASIS 6-31g(d,p)
$end

$molecule
0 1
C         -21.666000      0.133000    -13.272000
C         -20.822000     -0.810000    -13.846000
N         -21.145000      1.159000    -12.560000
C         -19.404000     -0.751000    -13.655000
C         -19.810000      1.243000    -12.463000
C         -18.901000      0.299000    -12.924000
C         -17.420000      0.339000    -12.667000
C         -16.544000     -0.412000    -13.466000
C         -16.846000      0.907000    -11.581000
N         -15.235000     -0.648000    -13.155000
N         -17.505000      1.691000    -10.687000
C         -15.519000      0.640000    -11.161000
C         -14.668000     -0.175000    -12.000000
S         -16.409000      2.176000     -9.587000
N         -15.194000      1.130000    -10.011000
C         -13.378000     -0.694000    -11.617000
S         -12.688000     -0.784000    -10.072000
C         -12.594000     -1.419000    -12.490000
C         -11.156000     -1.243000    -10.741000
S         -12.853000     -1.851000    -14.159000
C         -11.324000     -1.690000    -12.001000
C          -9.935000     -1.317000     -9.988000
C         -11.227000     -2.477000    -14.210000
C         -10.540000     -2.409000    -13.011000
N          -8.843000     -1.771000    -10.626000
S          -9.711000     -0.754000     -8.369000
C          -7.796000     -1.700000     -9.693000
C          -8.054000     -1.285000     -8.418000
C         -23.193000     -0.027000    -13.374000
H         -21.295000     -1.668000    -14.315000
H         -18.831000     -1.643000    -13.891000
H         -19.431000      2.212000    -12.143000
H         -16.854000     -0.832000    -14.422000
H         -10.927000     -2.770000    -15.208000
H          -9.512000     -2.731000    -12.881000
H          -6.823000     -2.085000     -9.967000
H          -7.458000     -1.287000     -7.515000
H         -23.380000     -0.702000    -14.218000
C         -23.828000      1.404000    -13.617000
H         -23.621000     -0.528000    -12.497000
H         -23.728000      1.754000    -14.652000
H         -23.439000      2.108000    -12.871000
C         -25.355000      1.335000    -13.324000
H         -25.769000      0.495000    -13.895000
C         -26.188000      2.644000    -13.635000
H         -25.510000      1.111000    -12.261000
H         -26.168000      2.963000    -14.685000
H         -25.730000      3.490000    -13.107000
C         -27.677000      2.436000    -13.225000
H         -28.003000      1.442000    -13.554000
C         -28.478000      3.663000    -13.705000
H         -27.885000      2.327000    -12.153000
H         -29.303000      3.977000    -13.055000
H         -28.821000      3.498000    -14.734000
H         -27.807000      4.508000    -13.902000
C         -14.526000     -4.414000    -11.650000
C         -14.647000     -3.537000    -10.523000
N         -15.610000     -4.692000    -12.436000
C         -15.899000     -2.986000    -10.279000
C         -16.756000     -4.111000    -12.166000
C         -17.012000     -3.284000    -11.077000
C         -18.412000     -2.945000    -10.597000
C         -18.667000     -1.794000     -9.835000
C         -19.568000     -3.720000    -10.852000
N         -19.925000     -1.381000     -9.519000
N         -19.458000     -4.984000    -11.338000
C         -20.811000     -3.346000    -10.412000
C         -21.010000     -2.145000     -9.809000
S         -21.020000     -5.574000    -11.330000
N         -21.784000     -4.327000    -10.545000
C         -22.316000     -1.619000     -9.497000
S         -23.932000     -2.469000     -9.673000
C         -22.596000     -0.269000     -9.188000
C         -24.854000     -1.019000     -9.417000
S         -21.464000      0.972000     -8.757000
C         -23.951000     -0.013000     -9.057000
C         -26.305000     -0.839000     -9.199000
C         -22.842000      2.047000     -8.459000
C         -24.044000      1.360000     -8.731000
N         -26.876000      0.253000     -9.703000
S         -27.450000     -2.105000     -8.690000
C         -28.234000      0.197000     -9.624000
C         -28.677000     -0.930000     -9.041000
C         -13.275000     -5.278000    -11.909000
H         -13.813000     -3.384000     -9.845000
H         -16.140000     -2.432000     -9.376000
H         -17.574000     -4.396000    -12.827000
H         -17.905000     -1.107000     -9.469000
H         -22.689000      3.081000     -8.179000
H         -25.050000      1.757000     -8.652000
H         -28.768000      1.055000    -10.011000
H         -29.689000     -0.976000     -8.662000
H         -12.406000     -4.725000    -11.531000
C         -13.034000     -5.719000    -13.391000
H         -13.317000     -6.146000    -11.239000
H         -13.129000     -4.933000    -14.150000
H         -13.833000     -6.445000    -13.588000
C         -11.624000     -6.419000    -13.530000
H         -10.839000     -5.667000    -13.676000
C         -11.532000     -7.405000    -14.714000
H         -11.395000     -7.050000    -12.662000
H         -12.218000     -8.253000    -14.600000
H         -10.576000     -7.941000    -14.752000
C         -11.602000     -6.906000    -16.175000
H         -11.013000     -7.613000    -16.772000
C         -11.188000     -5.439000    -16.416000
H         -12.615000     -7.083000    -16.557000
H         -11.158000     -5.307000    -17.505000
H         -10.234000     -5.178000    -15.941000
H         -11.938000     -4.776000    -15.968000
$end

--------------------------------------------------------------

             Standard Nuclear Orientation (Angstroms)
    I     Atom           X                Y                Z
 ----------------------------------------------------------------
    1      C       3.5612625865     0.2650701805    -2.3761911762
    2      C       2.4975455909     1.1529311668    -2.4823515367
    3      N       3.3221264986    -1.0554277385    -2.2025243184
    4      C       1.1426589121     0.7064249679    -2.3574503669
    5      C       2.0452319541    -1.4644308582    -2.1717546845
    6      C       0.9275759220    -0.6393530678    -2.1771983600
    7      C      -0.4869722042    -1.1119671646    -1.9856271868
    8      C      -1.5622022000    -0.3003012473    -2.3791457946
    9      C      -0.8387268865    -2.2080321817    -1.2740050104
   10      N      -2.8603465474    -0.5179741509    -2.0139913610
   11      N       0.0396523298    -3.1376735061    -0.8131471579
   12      C      -2.1513924562    -2.4502454403    -0.7977069532
   13      C      -3.2186429533    -1.5597853728    -1.1982119402
   14      S      -0.8369326480    -4.2821633604    -0.0593681783
   15      N      -2.2706068905    -3.4515231348     0.0094212257
   16      C      -4.5495086114    -1.5578962080    -0.6423855004
   17      S      -5.1086392385    -2.3060613207     0.7714203229
   18      C      -5.5360532133    -0.7163602641    -1.1124461386
   19      C      -6.7534049289    -1.9500405943     0.3551739224
   20      S      -5.5138589851     0.4465875734    -2.4110321941
   21      C      -6.7880253753    -0.9727070715    -0.5717854132
   22      C      -7.8950233532    -2.4828002820     1.0452467363
   23      C      -7.2313211101     0.6575991053    -2.2009108416
   24      C      -7.7850748002    -0.0765461000    -1.1671886022
   25      N      -9.1069207382    -2.0479997987     0.6606986016
   26      S      -7.8607771910    -3.7304752174     2.2412569603
   27      C     -10.0339903278    -2.7476465330     1.4498598165
   28      C      -9.5890336165    -3.6100128001     2.4104596013
   29      C       5.0095982078     0.7847386625    -2.3749274719
   30      H       2.7447356152     2.2101719350    -2.5138642292
   31      H       0.3825582101     1.4616708796    -2.1798566293
   32      H       1.8995059731    -2.5327337391    -2.3217376603
   33      H      -1.4268187133     0.5518600258    -3.0439228069
   34      H      -7.6687945609     1.2832945626    -2.9683580219
   35      H      -8.8420502065    -0.0783758117    -0.9218976675
   36      H     -11.0846645040    -2.5059220348     1.3622068500
   37      H     -10.0935489766    -4.1337751592     3.2115627424
   38      H       4.9828485751     1.7833591112    -2.8276654276
   39      C       5.8985459453    -0.2177374270    -3.2204146745
   40      H       5.4004890414     0.9326006205    -1.3607010684
   41      H       5.7834512030    -0.0927816889    -4.3043262317
   42      H       5.7257515045    -1.2432219910    -2.8711633463
   43      C       7.3991411406     0.0499719812    -2.9059552454
   44      H       7.5837036112     1.1231138516    -3.0376375165
   45      C       8.4506596802    -0.7728708386    -3.7552664102
   46      H       7.5958449252    -0.1850348491    -1.8522715117
   47      H       8.4060287873    -0.5967424364    -4.8376932527
   48      H       8.2207151518    -1.8421270385    -3.6653737360
   49      C       9.8959977700    -0.4433894535    -3.2747200305
   50      H       9.9841823761     0.6390056553    -3.1224134201
   51      C      10.8852052297    -1.1278997704    -4.2393154005
   52      H      10.1685022875    -0.7709906111    -2.2634101030
   53      H      11.8092786816    -1.5044995427    -3.7854631480
   54      H      11.0982675826    -0.4590142859    -5.0824711645
   55      H      10.3852522183    -1.9263189099    -4.8011417653
   56      C      -4.1872267156     1.9535372473     0.9995584442
   57      C      -3.7948396625     0.7227538119     1.6201255524
   58      N      -3.2534839669     2.7776414564     0.4346578052
   59      C      -2.4409012653     0.4106517193     1.6109549350
   60      C      -1.9946330129     2.4047195476     0.4339327844
   61      C      -1.4839546289     1.2638163803     1.0446156406
   62      C      -0.0084665660     1.0660379529     1.3431783141
   63      C       0.5389909893    -0.2148185720     1.5168642020
   64      C       0.9401108002     2.1074631746     1.4759205003
   65      N       1.8769449783    -0.4366908211     1.6336581591
   66      N       0.5347843455     3.3981549009     1.6016874785
   67      C       2.2661303294     1.8621339044     1.7208914320
   68      C       2.7555018369     0.5948304758     1.7291707764
   69      S       1.9394337527     4.2525182995     1.8932886202
   70      N       3.0048439408     2.9897246349     2.0519810647
   71      C       4.1628611887     0.2866896942     1.7927704114
   72      S       5.5516924946     1.4600967956     2.0360714146
   73      C       4.7363186779    -0.9643239103     1.4726259605
   74      C       6.7671472574     0.2860886677     1.6329651815
   75      S       3.9207542626    -2.4838403093     1.2904430917
   76      C       6.1212105103    -0.9471080038     1.4949916763
   77      C       8.2377079985     0.3526779451     1.7683977284
   78      C       5.5085307812    -3.2489056885     1.0982096599
   79      C       6.5183782334    -2.2667023370     1.1772140879
   80      N       8.9731176103    -0.2541332667     0.8391647888
   81      S       9.1413104216     1.4861491405     2.8035825961
   82      C      10.2931874396     0.0586024859     0.9538512955
   83      C      10.5465506785     0.8842417268     1.9836055929
   84      C      -5.6049750870     2.5454257872     1.1345973704
   85      H      -4.5193189617     0.1098030249     2.1474490563
   86      H      -2.0161561618    -0.4141567678     2.1763650134
   87      H      -1.3110868618     3.1218632095    -0.0196525190
   88      H      -0.0336121053    -1.1414071108     1.5281945091
   89      H       5.5930230701    -4.3067663509     0.8866514598
   90      H       7.5869923391    -2.4264423051     1.0853825265
   91      H      10.9550416372    -0.4033536819     0.2329944995
   92      H      11.5568097759     0.9811479675     2.3576199465
   93      H      -6.3081115705     1.7069628893     1.2148036949
   94      C      -6.0563354553     3.5246491553     0.0004538991
   95      H      -5.6827800961     3.0190253501     2.1213789240
   96      H      -5.8691441222     3.1915642896    -1.0276102414
   97      H      -5.4410926838     4.4195456026     0.1583230876
   98      C      -7.5856414703     3.8861199582     0.1677350130
   99      H      -8.2113009715     3.1214862008    -0.3086371163
  100      C      -7.9767314410     5.2432552507    -0.4549594808
  101      H      -7.8627711284     4.0069369544     1.2225470370
  102      H      -7.4698569257     6.0838518664     0.0340922092
  103      H      -9.0212651410     5.5173104931    -0.2638598374
  104      C      -7.9322187534     5.4617315588    -1.9842432097
  105      H      -8.7012818531     6.2098255382    -2.2124456343
  106      C      -8.0590514165     4.1964735014    -2.8586581705
  107      H      -7.0126750536     6.0056203867    -2.2333342110
  108      H      -8.1547127277     4.5505544322    -3.8929311557
  109      H      -8.8960436895     3.5516468356    -2.5628465650
  110      H      -7.1546152703     3.5872380507    -2.7420373184
 ----------------------------------------------------------------

    9   -5663.4961335872      8.65E-06 Convergence criterion met
 Total energy in the final basis set = -5663.4961335872

                    Orbital Energies (a.u.)
 --------------------------------------------------------------

 Alpha MOs
 -- Occupied --
-88.986 -88.983 -88.933 -88.927 -88.927 -88.926 -88.906 -88.902
-14.389 -14.382 -14.378 -14.377 -14.350 -14.348 -14.345 -14.345
-14.323 -14.321 -10.277 -10.271 -10.262 -10.253 -10.252 -10.252
-10.248 -10.247 -10.245 -10.240 -10.240 -10.238 -10.238 -10.235
-10.232 -10.231 -10.231 -10.228 -10.227 -10.224 -10.224 -10.224
-10.223 -10.221 -10.219 -10.218 -10.216 -10.214 -10.209 -10.208
-10.208 -10.207 -10.206 -10.201 -10.201 -10.199 -10.194 -10.190
-10.184 -10.184 -10.175 -10.174 -10.173 -10.173 -10.172 -10.171
-10.169 -10.167 -10.167 -10.163  -8.041  -8.039  -7.993  -7.989
 -7.987  -7.985  -7.966  -7.962  -6.006  -6.004  -6.001  -5.999
 -5.998  -5.996  -5.957  -5.954  -5.953  -5.951  -5.950  -5.949
 -5.949  -5.947  -5.946  -5.946  -5.943  -5.942  -5.930  -5.927
 -5.926  -5.923  -5.922  -5.918  -1.039  -1.024  -0.972  -0.967
 -0.952  -0.950  -0.935  -0.934  -0.924  -0.908  -0.906  -0.894
 -0.853  -0.837  -0.836  -0.826  -0.812  -0.808  -0.807  -0.804
 -0.798  -0.794  -0.793  -0.788  -0.777  -0.774  -0.765  -0.764
 -0.746  -0.745  -0.738  -0.735  -0.729  -0.720  -0.705  -0.703
 -0.690  -0.689  -0.675  -0.671  -0.656  -0.650  -0.644  -0.642
 -0.639  -0.632  -0.621  -0.621  -0.612  -0.605  -0.598  -0.592
 -0.590  -0.590  -0.585  -0.580  -0.577  -0.575  -0.562  -0.550
 -0.550  -0.541  -0.540  -0.536  -0.524  -0.516  -0.515  -0.509
 -0.505  -0.504  -0.499  -0.496  -0.482  -0.481  -0.475  -0.471
 -0.469  -0.467  -0.466  -0.458  -0.457  -0.456  -0.449  -0.446
 -0.443  -0.440  -0.439  -0.439  -0.435  -0.435  -0.433  -0.429
 -0.425  -0.424  -0.421  -0.418  -0.416  -0.414  -0.413  -0.410
 -0.408  -0.404  -0.400  -0.400  -0.398  -0.396  -0.394  -0.393
 -0.392  -0.389  -0.388  -0.386  -0.383  -0.382  -0.380  -0.376
 -0.373  -0.372  -0.370  -0.368  -0.365  -0.359  -0.356  -0.354
 -0.351  -0.349  -0.347  -0.346  -0.344  -0.344  -0.342  -0.341
 -0.338  -0.332  -0.331  -0.330  -0.326  -0.316  -0.314  -0.311
 -0.308  -0.308  -0.306  -0.305  -0.301  -0.297  -0.296  -0.295
 -0.293  -0.292  -0.288  -0.287  -0.287  -0.283  -0.282  -0.277
 -0.269  -0.268  -0.264  -0.262  -0.254  -0.250  -0.248  -0.245
 -0.244  -0.241  -0.229  -0.224  -0.195  -0.189

          Ground-State Mulliken Net Atomic Charges

     Atom                 Charge (a.u.)
  ----------------------------------------
      1 C                     0.293452
      2 C                    -0.142668
      3 N                    -0.490105
      4 C                    -0.096131
      5 C                     0.097756
      6 C                     0.062343
      7 C                     0.054133
      8 C                     0.044765
      9 C                     0.220384
     10 N                    -0.537954
     11 N                    -0.554014
     12 C                     0.216419
     13 C                     0.327959
     14 S                     0.584414
     15 N                    -0.588427
     16 C                    -0.185602
     17 S                     0.300880
     18 C                    -0.127242
     19 C                    -0.257226
     20 S                     0.301603
     21 C                     0.179075
     22 C                     0.065126
     23 C                    -0.315456
     24 C                    -0.055630
     25 N                    -0.443471
     26 S                     0.269167
     27 C                     0.115900
     28 C                    -0.300099
     29 C                    -0.243154
     30 H                     0.082275
     31 H                     0.108611
     32 H                     0.114893
     33 H                     0.119418
     34 H                     0.140011
     35 H                     0.125990
     36 H                     0.108228
     37 H                     0.144131
     38 H                     0.096114
     39 C                    -0.178306
     40 H                     0.135983
     41 H                     0.091530
     42 H                     0.133918
     43 C                    -0.204935
     44 H                     0.078668
     45 C                    -0.183738
     46 H                     0.119747
     47 H                     0.087391
     48 H                     0.095474
     49 C                    -0.170725
     50 H                     0.092860
     51 C                    -0.332218
     52 H                     0.094600
     53 H                     0.096193
     54 H                     0.102819
     55 H                     0.106284
     56 C                     0.264250
     57 C                    -0.118996
     58 N                    -0.479948
     59 C                    -0.093450
     60 C                     0.092480
     61 C                     0.059757
     62 C                     0.038515
     63 C                     0.054325
     64 C                     0.217653
     65 N                    -0.549309
     66 N                    -0.543909
     67 C                     0.207660
     68 C                     0.327195
     69 S                     0.596275
     70 N                    -0.567260
     71 C                    -0.234165
     72 S                     0.323521
     73 C                    -0.112238
     74 C                    -0.207192
     75 S                     0.315848
     76 C                     0.150502
     77 C                     0.016148
     78 C                    -0.313358
     79 C                    -0.072644
     80 N                    -0.397321
     81 S                     0.279263
     82 C                     0.131639
     83 C                    -0.310203
     84 C                    -0.240776
     85 H                     0.104644
     86 H                     0.095347
     87 H                     0.100634
     88 H                     0.112868
     89 H                     0.130560
     90 H                     0.102080
     91 H                     0.121176
     92 H                     0.131947
     93 H                     0.105295
     94 C                    -0.163736
     95 H                     0.119050
     96 H                     0.113748
     97 H                     0.113480
     98 C                    -0.184931
     99 H                     0.097832
    100 C                    -0.186606
    101 H                     0.089152
    102 H                     0.086938
    103 H                     0.084052
    104 C                    -0.183377
    105 H                     0.088972
    106 C                    -0.321823
    107 H                     0.094214
    108 H                     0.101647
    109 H                     0.102359
    110 H                     0.108798
  ----------------------------------------
  Sum of atomic charges =     0.000000

                    Cartesian Multipole Moments
 -----------------------------------------------------------------
    Charge (ESU x 10^10)
                 0.0000
    Dipole Moment (Debye)
         X      -0.3296      Y      -0.4929      Z       1.9355
       Tot       2.0243
    Quadrupole Moments (Debye-Ang)
        XX    -386.9349     XY      18.0953     YY    -431.5256
        XZ      -5.3317     YZ      -9.1146     ZZ    -441.8214

 Total job time:  103.26s(wall), 1261.15s(cpu)
        *  Thank you very much for using Q-Chem.  Have a nice day.  *
