 Q-Chem 4.4, Q-Chem, Inc., Pleasanton, CA (2016)
 Q-Chem 4.4.2 for Intel X86 Linux

User input:
--------------------------------------------------------------
$comment
SP
$end

$rem
MEM_STATIC 5000
MEM_TOTAL 20000
JOBTYPE SP
EXCHANGE B3LYP
BASIS 6-31g(d,p)
$end

$molecule
0 1
C         -27.461000     20.836000     -5.037000
C         -26.680000     19.680000     -5.299000
N         -28.223000     21.538000     -5.859000
C         -26.705000     19.291000     -6.657000
C         -28.079000     21.223000     -7.131000
C         -27.392000     20.073000     -7.597000
C         -27.302000     19.672000     -9.004000
C         -26.219000     18.888000     -9.426000
C         -28.213000     20.009000    -10.043000
N         -25.957000     18.560000    -10.668000
N         -29.334000     20.662000     -9.866000
C         -27.966000     19.660000    -11.359000
C         -26.725000     19.002000    -11.713000
S         -30.119000     20.626000    -11.263000
N         -29.020000     19.834000    -12.168000
C         -26.275000     18.659000    -13.088000
S         -25.219000     17.367000    -13.523000
C         -26.510000     19.430000    -14.214000
C         -25.505000     17.674000    -15.297000
S         -27.313000     20.952000    -14.318000
C         -26.215000     18.808000    -15.409000
C         -25.173000     16.847000    -16.395000
C         -27.315000     20.803000    -16.116000
C         -26.645000     19.651000    -16.478000
N         -24.147000     16.089000    -16.141000
S         -25.857000     16.815000    -18.002000
C         -23.813000     15.388000    -17.252000
C         -24.678000     15.580000    -18.331000
C         -27.391000     21.447000     -3.636000
H         -25.992000     19.252000     -4.575000
H         -26.220000     18.361000     -6.938000
H         -28.402000     21.987000     -7.837000
H         -25.366000     18.650000     -8.793000
H         -27.745000     21.556000    -16.762000
H         -26.448000     19.595000    -17.543000
H         -22.951000     14.740000    -17.162000
H         -24.693000     15.057000    -19.278000
H         -28.375000     21.878000     -3.411000
C         -26.307000     22.512000     -3.511000
H         -27.250000     20.623000     -2.926000
H         -26.494000     23.125000     -2.621000
H         -26.390000     23.222000     -4.343000
C         -24.829000     22.090000     -3.354000
H         -24.717000     21.178000     -2.755000
C         -23.907000     23.238000     -2.939000
H         -24.470000     21.788000     -4.346000
H         -24.322000     23.912000     -2.178000
H         -23.803000     23.956000     -3.762000
C         -22.466000     22.794000     -2.546000
H         -22.561000     22.006000     -1.788000
C         -21.684000     23.920000     -1.992000
H         -21.924000     22.358000     -3.395000
H         -20.666000     23.565000     -1.789000
H         -22.102000     24.257000     -1.036000
H         -21.433000     24.744000     -2.671000
C         -24.028000     22.568000     -7.596000
C         -22.941000     22.430000     -6.765000
N         -24.217000     21.903000     -8.699000
C         -21.995000     21.535000     -7.134000
C         -23.301000     21.019000     -9.090000
C         -22.119000     20.762000     -8.324000
C         -21.133000     19.700000     -8.749000
C         -19.713000     19.978000     -8.772000
C         -21.585000     18.445000     -9.195000
N         -18.851000     19.038000     -9.172000
N         -22.879000     18.092000     -9.094000
C         -20.615000     17.518000     -9.616000
C         -19.281000     17.880000     -9.693000
S         -22.794000     16.491000     -9.456000
N         -21.181000     16.335000     -9.823000
C         -18.160000     17.117000    -10.309000
S         -16.379000     17.389000     -9.962000
C         -18.222000     16.271000    -11.395000
C         -15.875000     16.196000    -11.229000
S         -19.531000     15.880000    -12.359000
C         -17.000000     15.903000    -11.884000
C         -14.535000     15.852000    -11.511000
C         -18.483000     14.966000    -13.373000
C         -17.161000     15.206000    -13.047000
N         -13.723000     16.900000    -11.390000
S         -13.909000     14.496000    -12.347000
C         -12.495000     16.663000    -11.979000
C         -12.424000     15.405000    -12.562000
C         -25.125000     23.561000     -7.163000
H         -22.687000     22.959000     -5.851000
H         -21.132000     21.416000     -6.485000
H         -23.501000     20.582000    -10.068000
H         -19.338000     20.926000     -8.390000
H         -18.890000     14.418000    -14.213000
H         -16.303000     14.825000    -13.590000
H         -11.825000     17.513000    -11.983000
H         -11.632000     15.045000    -13.206000
H         -25.863000     22.963000     -6.615000
C         -25.812000     24.394000     -8.289000
H         -24.706000     24.256000     -6.425000
H         -26.416000     23.627000     -8.788000
H         -24.984000     24.753000     -8.913000
C         -26.634000     25.568000     -7.812000
H         -25.929000     26.285000     -7.375000
C         -27.720000     25.071000     -6.858000
H         -27.180000     25.992000     -8.664000
H         -27.166000     24.811000     -5.947000
H         -28.234000     24.198000     -7.277000
C         -28.839000     26.095000     -6.550000
H         -29.484000     25.678000     -5.768000
C         -29.621000     26.546000     -7.843000
H         -28.283000     26.906000     -6.064000
H         -29.674000     25.816000     -8.659000
H         -29.166000     27.459000     -8.247000
H         -30.652000     26.854000     -7.625000
$end

--------------------------------------------------------------

             Standard Nuclear Orientation (Angstroms)
    I     Atom           X                Y                Z
 ----------------------------------------------------------------
    1      C      -5.9432835979    -2.2579306284    -2.3285731062
    2      C      -4.6585197494    -2.2508181317    -2.9321228274
    3      N      -6.5484592788    -1.3105727273    -1.6318612559
    4      C      -3.9350125373    -1.0637199561    -2.6802394503
    5      C      -5.7676821510    -0.3015833837    -1.2997880995
    6      C      -4.4756687914    -0.0787781450    -1.8407911531
    7      C      -3.6384965522     1.0862900707    -1.5402771021
    8      C      -2.2459141277     0.9805222661    -1.6633882816
    9      C      -4.0863225052     2.3642496159    -1.1052112262
   10      N      -1.3804755331     1.9022664795    -1.3166958472
   11      N      -5.3433317202     2.7149131561    -0.9987127979
   12      C      -3.1919814513     3.3582263136    -0.7490786612
   13      C      -1.7694876789     3.0846432982    -0.7440985986
   14      S      -5.3628355931     4.2859009136    -0.6813060168
   15      N      -3.7595695391     4.5625634992    -0.5971289792
   16      C      -0.6992652928     4.0121363615    -0.2911585785
   17      S       0.9338364930     4.0329692430    -0.8444844755
   18      C      -0.8140412908     4.8979751826     0.7669803790
   19      C       1.2746796892     5.5623866239     0.0870891344
   20      S      -2.1526773468     5.1255900756     1.8292204508
   21      C       0.2058130649     5.8219497041     0.8569924705
   22      C       2.3870434312     6.4283099451    -0.0250746173
   23      C      -1.3553840061     6.6071751202     2.4805560668
   24      C      -0.1172199531     6.7559143654     1.8873660342
   25      N       3.4508482170     5.8035982623    -0.4371555452
   26      S       2.5272518611     8.1117818749     0.4194395645
   27      C       4.5064966362     6.6538243583    -0.4371320905
   28      C       4.1829790480     7.9673334737    -0.0916466728
   29      C      -6.7615462096    -3.5489316340    -2.3977446442
   30      H      -4.2084914627    -3.1324720129    -3.3803024508
   31      H      -2.9826909988    -0.9216329894    -3.1822165227
   32      H      -6.1152554559     0.2956876998    -0.4578136043
   33      H      -1.7288634985     0.0427221880    -1.8586615781
   34      H      -1.8033487096     7.2177281596     3.2524223833
   35      H       0.4902604494     7.5168555718     2.3649705159
   36      H       5.4555543620     6.2307625394    -0.7393838573
   37      H       4.8161946071     8.8438977478    -0.1268053021
   38      H      -7.8213267029    -3.2690120685    -2.4538903719
   39      C      -6.5198843753    -4.4645962622    -1.2027283905
   40      H      -6.5244599635    -4.0362718341    -3.3512888966
   41      H      -7.3298862413    -5.2007362654    -1.1332095249
   42      H      -6.6061000208    -3.8883829305    -0.2733425401
   43      C      -5.2408383031    -5.3292808099    -1.1429055011
   44      H      -4.9369025231    -5.6934135158    -2.1319046994
   45      C      -5.2815436320    -6.4053710085    -0.0563577752
   46      H      -4.4149940243    -4.6683837343    -0.8507663518
   47      H      -6.2446115220    -6.9227584446     0.0457817382
   48      H      -5.2324868222    -5.9420107781     0.9368993548
   49      C      -4.1146919500    -7.4355304343    -0.1291225306
   50      H      -4.0954402711    -7.8375165146    -1.1501854885
   51      C      -4.3072694683    -8.5415426132     0.8331492396
   52      H      -3.1390346910    -6.9651287405     0.0482926874
   53      H      -3.4320751607    -9.2008522086     0.7792624936
   54      H      -5.1813491133    -9.1475437205     0.5667352161
   55      H      -4.2572256617    -8.2972249147     1.9012421567
   56      C      -3.1618833030    -2.4469723439     1.3540712737
   57      C      -2.5960650858    -3.6945784653     1.2336440720
   58      N      -2.5273243741    -1.3195025463     1.2101899992
   59      C      -1.2736070600    -3.7448310540     0.9495992741
   60      C      -1.2244814434    -1.3375079079     0.9351098200
   61      C      -0.4999388120    -2.5618169522     0.7737582179
   62      C       0.9597655600    -2.5558944478     0.3865979538
   63      C       1.9142886801    -3.3823833209     1.0937151688
   64      C       1.4260791003    -1.6948840254    -0.6230840430
   65      N       3.2076937604    -3.3519504162     0.7578265911
   66      N       0.5742448890    -0.9864826583    -1.3858369384
   67      C       2.8039334505    -1.7101566506    -0.9037157175
   68      C       3.6721450670    -2.4619606166    -0.1307161149
   69      S       1.5914883143    -0.4230456710    -2.5473982045
   70      N       3.0506375205    -0.9929253171    -1.9933993028
   71      C       5.1612835024    -2.4365008238    -0.1399095414
   72      S       6.2458064639    -3.7611195744     0.5200519057
   73      C       5.9772514820    -1.3573586523    -0.4018340153
   74      C       7.7420448251    -2.7816493375     0.2294270246
   75      S       5.5617963020     0.2263042892    -0.7410488163
   76      C       7.2934680253    -1.5691540463    -0.1009258527
   77      C       9.0530340920    -3.2308758250     0.4995431199
   78      C       7.2314207349     0.6435619158    -0.7289522892
   79      C       7.9897007899    -0.4024735949    -0.2366301703
   80      N       9.0969787006    -3.9886586211     1.5932172511
   81      S      10.5511423289    -2.6345945813    -0.0745896077
   82      C      10.3920387766    -4.1491698345     2.0494294276
   83      C      11.3147439272    -3.4678791554     1.2671556803
   84      C      -4.6748849598    -2.3838867504     1.6435418153
   85      H      -3.0363501448    -4.6786271608     1.3661213598
   86      H      -0.8153043137    -4.7247848026     0.8507041613
   87      H      -0.7635097312    -0.3501573954     0.9252586321
   88      H       1.5695476415    -4.0878337402     1.8478678869
   89      H       7.5345510271     1.6567705125    -0.9593288624
   90      H       9.0559954070    -0.3656725476    -0.0421167455
   91      H      10.4775179696    -4.6877135295     2.9843518822
   92      H      12.3606707898    -3.3170540204     1.5014392193
   93      H      -5.1582699321    -2.2966328091     0.6630941021
   94      C      -5.1663627240    -1.2590093220     2.6062641940
   95      H      -5.0018413606    -3.3507183072     2.0454948634
   96      H      -5.0407366223    -0.3678137982     1.9800896010
   97      H      -4.4631928062    -1.2874287693     3.4480393431
   98      C      -6.5780763527    -1.4203872864     3.1186222555
   99      H      -6.5763609550    -2.3077747274     3.7625349724
  100      C      -7.5417519230    -1.4872996318     1.9339817475
  101      H      -6.8660333133    -0.5136255487     3.6651201418
  102      H      -7.3540507870    -2.4787550693     1.5024479723
  103      H      -7.3261397307    -0.6896150725     1.2134980722
  104      C      -9.0368688008    -1.3172845385     2.2963646799
  105      H      -9.6345514143    -1.5065885442     1.3972665280
  106      C      -9.3412866279     0.0712004640     2.9791627352
  107      H      -9.2161152534    -2.1800516162     2.9494777475
  108      H      -8.6855633857     0.9043874530     2.7009695089
  109      H      -9.2908580307    -0.0375464321     4.0697777311
  110      H     -10.3722063010     0.4073848688     2.8073090955
 ----------------------------------------------------------------

   10   -5663.4599999725      3.79E-06 Convergence criterion met
 Total energy in the final basis set = -5663.4599999725

                    Orbital Energies (a.u.)
 --------------------------------------------------------------

 Alpha MOs
 -- Occupied --
-88.985 -88.982 -88.934 -88.933 -88.921 -88.911 -88.905 -88.902
-14.385 -14.384 -14.376 -14.371 -14.343 -14.340 -14.338 -14.336
-14.328 -14.321 -10.263 -10.261 -10.260 -10.258 -10.252 -10.251
-10.248 -10.245 -10.238 -10.236 -10.235 -10.234 -10.233 -10.232
-10.231 -10.230 -10.230 -10.229 -10.225 -10.223 -10.223 -10.222
-10.222 -10.222 -10.221 -10.220 -10.216 -10.215 -10.213 -10.209
-10.209 -10.205 -10.204 -10.203 -10.200 -10.190 -10.189 -10.188
-10.181 -10.179 -10.178 -10.178 -10.178 -10.174 -10.174 -10.172
-10.171 -10.168 -10.167 -10.164  -8.040  -8.038  -7.996  -7.993
 -7.979  -7.968  -7.965  -7.965  -6.005  -6.003  -5.999  -5.997
 -5.997  -5.996  -5.959  -5.957  -5.956  -5.954  -5.953  -5.950
 -5.944  -5.940  -5.936  -5.933  -5.930  -5.929  -5.929  -5.926
 -5.926  -5.925  -5.921  -5.921  -1.046  -1.037  -0.979  -0.968
 -0.957  -0.953  -0.950  -0.950  -0.923  -0.918  -0.909  -0.905
 -0.843  -0.843  -0.831  -0.826  -0.813  -0.809  -0.808  -0.807
 -0.806  -0.803  -0.800  -0.799  -0.787  -0.780  -0.766  -0.762
 -0.753  -0.749  -0.741  -0.739  -0.726  -0.714  -0.712  -0.702
 -0.692  -0.684  -0.674  -0.673  -0.655  -0.651  -0.644  -0.643
 -0.636  -0.632  -0.626  -0.624  -0.611  -0.609  -0.604  -0.603
 -0.596  -0.593  -0.581  -0.581  -0.578  -0.577  -0.572  -0.550
 -0.546  -0.542  -0.541  -0.538  -0.525  -0.522  -0.520  -0.517
 -0.508  -0.507  -0.504  -0.498  -0.480  -0.479  -0.477  -0.472
 -0.471  -0.470  -0.468  -0.466  -0.463  -0.458  -0.449  -0.447
 -0.446  -0.441  -0.440  -0.439  -0.438  -0.435  -0.434  -0.433
 -0.432  -0.430  -0.425  -0.423  -0.418  -0.415  -0.414  -0.413
 -0.412  -0.408  -0.406  -0.403  -0.399  -0.397  -0.396  -0.393
 -0.392  -0.389  -0.388  -0.385  -0.385  -0.384  -0.382  -0.382
 -0.381  -0.379  -0.374  -0.371  -0.370  -0.363  -0.360  -0.356
 -0.350  -0.348  -0.347  -0.343  -0.342  -0.340  -0.340  -0.335
 -0.333  -0.332  -0.329  -0.328  -0.326  -0.324  -0.319  -0.314
 -0.314  -0.311  -0.307  -0.305  -0.302  -0.301  -0.299  -0.296
 -0.295  -0.293  -0.289  -0.289  -0.288  -0.286  -0.286  -0.279
 -0.270  -0.266  -0.263  -0.260  -0.255  -0.252  -0.249  -0.244
 -0.243  -0.237  -0.229  -0.225  -0.188  -0.185

          Ground-State Mulliken Net Atomic Charges

     Atom                 Charge (a.u.)
  ----------------------------------------
      1 C                     0.248141
      2 C                    -0.113178
      3 N                    -0.461487
      4 C                    -0.089177
      5 C                     0.084678
      6 C                     0.063801
      7 C                     0.080677
      8 C                     0.044837
      9 C                     0.223875
     10 N                    -0.525335
     11 N                    -0.550300
     12 C                     0.178974
     13 C                     0.257800
     14 S                     0.593116
     15 N                    -0.529061
     16 C                    -0.189823
     17 S                     0.328990
     18 C                    -0.149541
     19 C                    -0.218013
     20 S                     0.260862
     21 C                     0.185288
     22 C                     0.046560
     23 C                    -0.289095
     24 C                    -0.096076
     25 N                    -0.418007
     26 S                     0.283429
     27 C                     0.125311
     28 C                    -0.320678
     29 C                    -0.224626
     30 H                     0.104704
     31 H                     0.102143
     32 H                     0.114256
     33 H                     0.130250
     34 H                     0.133873
     35 H                     0.112159
     36 H                     0.110714
     37 H                     0.132768
     38 H                     0.112984
     39 C                    -0.185649
     40 H                     0.086051
     41 H                     0.091267
     42 H                     0.116015
     43 C                    -0.184520
     44 H                     0.084694
     45 C                    -0.176733
     46 H                     0.100162
     47 H                     0.087781
     48 H                     0.090769
     49 C                    -0.175175
     50 H                     0.096653
     51 C                    -0.317803
     52 H                     0.088146
     53 H                     0.095758
     54 H                     0.107057
     55 H                     0.101910
     56 C                     0.271329
     57 C                    -0.099432
     58 N                    -0.482141
     59 C                    -0.079628
     60 C                     0.087426
     61 C                     0.008882
     62 C                    -0.006953
     63 C                     0.077055
     64 C                     0.238998
     65 N                    -0.500279
     66 N                    -0.557748
     67 C                     0.251269
     68 C                     0.274379
     69 S                     0.611136
     70 N                    -0.562574
     71 C                    -0.221706
     72 S                     0.313284
     73 C                    -0.100055
     74 C                    -0.189203
     75 S                     0.284463
     76 C                     0.181458
     77 C                     0.009232
     78 C                    -0.310314
     79 C                    -0.097693
     80 N                    -0.405915
     81 S                     0.285877
     82 C                     0.127328
     83 C                    -0.319976
     84 C                    -0.254083
     85 H                     0.101696
     86 H                     0.089926
     87 H                     0.119333
     88 H                     0.115823
     89 H                     0.127231
     90 H                     0.096391
     91 H                     0.123319
     92 H                     0.134031
     93 H                     0.136998
     94 C                    -0.166733
     95 H                     0.085981
     96 H                     0.106793
     97 H                     0.087043
     98 C                    -0.173658
     99 H                     0.085045
    100 C                    -0.182889
    101 H                     0.094172
    102 H                     0.097732
    103 H                     0.103607
    104 C                    -0.182246
    105 H                     0.098908
    106 C                    -0.327926
    107 H                     0.089572
    108 H                     0.105221
    109 H                     0.108125
    110 H                     0.099914
  ----------------------------------------
  Sum of atomic charges =     0.000000

                    Cartesian Multipole Moments
 -----------------------------------------------------------------
    Charge (ESU x 10^10)
                 0.0000
    Dipole Moment (Debye)
         X       2.8909      Y       2.2354      Z       0.5645
       Tot       3.6977
    Quadrupole Moments (Debye-Ang)
        XX    -405.3434     XY      19.8960     YY    -403.4150
        XZ       0.2835     YZ      10.6033     ZZ    -441.1613

 Total job time:  100.50s(wall), 1220.25s(cpu)
        *  Thank you very much for using Q-Chem.  Have a nice day.  *
