 Q-Chem 4.4, Q-Chem, Inc., Pleasanton, CA (2016)
 Q-Chem 4.4.2 for Intel X86 Linux

User input:
--------------------------------------------------------------
$comment
SP
$end

$rem
MEM_STATIC 5000
MEM_TOTAL 20000
JOBTYPE SP
EXCHANGE B3LYP
BASIS 6-31g(d,p)
$end

$molecule
0 1
C         -18.347000     21.960000     -5.115000
C         -19.033000     21.836000     -3.884000
N         -17.985000     20.922000     -5.848000
C         -19.316000     20.580000     -3.404000
C         -18.362000     19.694000     -5.430000
C         -18.915000     19.507000     -4.168000
C         -19.531000     18.168000     -3.797000
C         -20.511000     17.553000     -4.611000
C         -19.316000     17.524000     -2.529000
N         -21.251000     16.500000     -4.222000
N         -18.430000     18.000000     -1.621000
C         -19.999000     16.359000     -2.161000
C         -21.017000     15.857000     -3.037000
S         -18.444000     16.952000     -0.379000
N         -19.706000     15.978000     -0.898000
C         -22.006000     14.892000     -2.615000
S         -22.303000     14.337000     -0.935000
C         -23.073000     14.435000     -3.377000
C         -23.497000     13.224000     -1.416000
S         -23.477000     14.807000     -5.052000
C         -23.895000     13.553000     -2.704000
C         -23.975000     12.140000     -0.593000
C         -24.956000     13.918000     -4.775000
C         -24.960000     13.184000     -3.575000
N         -24.831000     11.227000     -1.049000
S         -23.375000     11.883000      0.998000
C         -25.028000     10.266000     -0.020000
C         -24.435000     10.532000      1.189000
C         -18.113000     23.364000     -5.657000
H         -19.437000     22.741000     -3.441000
H         -19.906000     20.518000     -2.494000
H         -18.218000     18.904000     -6.166000
H         -20.826000     18.046000     -5.529000
H         -25.714000     13.912000     -5.547000
H         -25.816000     12.540000     -3.412000
H         -25.619000      9.408000     -0.311000
H         -24.516000      9.989000      2.121000
H         -18.020000     24.042000     -4.799000
C         -19.218000     24.049000     -6.478000
H         -17.191000     23.433000     -6.247000
H         -19.866000     24.510000     -5.723000
H         -19.754000     23.290000     -7.061000
C         -18.614000     25.232000     -7.298000
H         -17.976000     25.814000     -6.622000
C         -19.771000     26.083000     -7.876000
H         -17.964000     24.930000     -8.129000
H         -20.501000     26.322000     -7.093000
H         -20.413000     25.505000     -8.553000
C         -19.284000     27.327000     -8.663000
H         -18.604000     27.089000     -9.490000
C         -18.551000     28.383000     -7.893000
H         -20.164000     27.660000     -9.227000
H         -18.390000     29.201000     -8.606000
H         -17.619000     27.974000     -7.484000
H         -19.212000     28.717000     -7.084000
C         -24.028000     22.568000     -7.596000
C         -22.941000     22.430000     -6.765000
N         -24.217000     21.903000     -8.699000
C         -21.995000     21.535000     -7.134000
C         -23.301000     21.019000     -9.090000
C         -22.119000     20.762000     -8.324000
C         -21.133000     19.700000     -8.749000
C         -19.713000     19.978000     -8.772000
C         -21.585000     18.445000     -9.195000
N         -18.851000     19.038000     -9.172000
N         -22.879000     18.092000     -9.094000
C         -20.615000     17.518000     -9.616000
C         -19.281000     17.880000     -9.693000
S         -22.794000     16.491000     -9.456000
N         -21.181000     16.335000     -9.823000
C         -18.160000     17.117000    -10.309000
S         -16.379000     17.389000     -9.962000
C         -18.222000     16.271000    -11.395000
C         -15.875000     16.196000    -11.229000
S         -19.531000     15.880000    -12.359000
C         -17.000000     15.903000    -11.884000
C         -14.535000     15.852000    -11.511000
C         -18.483000     14.966000    -13.373000
C         -17.161000     15.206000    -13.047000
N         -13.723000     16.900000    -11.390000
S         -13.909000     14.496000    -12.347000
C         -12.495000     16.663000    -11.979000
C         -12.424000     15.405000    -12.562000
C         -25.125000     23.561000     -7.163000
H         -22.687000     22.959000     -5.851000
H         -21.132000     21.416000     -6.485000
H         -23.501000     20.582000    -10.068000
H         -19.338000     20.926000     -8.390000
H         -18.890000     14.418000    -14.213000
H         -16.303000     14.825000    -13.590000
H         -11.825000     17.513000    -11.983000
H         -11.632000     15.045000    -13.206000
H         -25.863000     22.963000     -6.615000
C         -25.812000     24.394000     -8.289000
H         -24.706000     24.256000     -6.425000
H         -26.416000     23.627000     -8.788000
H         -24.984000     24.753000     -8.913000
C         -26.634000     25.568000     -7.812000
H         -25.929000     26.285000     -7.375000
C         -27.720000     25.071000     -6.858000
H         -27.180000     25.992000     -8.664000
H         -27.166000     24.811000     -5.947000
H         -28.234000     24.198000     -7.277000
C         -28.839000     26.095000     -6.550000
H         -29.484000     25.678000     -5.768000
C         -29.621000     26.546000     -7.843000
H         -28.283000     26.906000     -6.064000
H         -29.674000     25.816000     -8.659000
H         -29.166000     27.459000     -8.247000
H         -30.652000     26.854000     -7.625000
$end

--------------------------------------------------------------

             Standard Nuclear Orientation (Angstroms)
    I     Atom           X                Y                Z
 ----------------------------------------------------------------
    1      C      -2.1738239018    -1.3082981263     3.8912894308
    2      C      -1.0514616589    -2.1262805513     4.1606233281
    3      N      -2.0837343987    -0.1298074387     3.3006790848
    4      C       0.1999391373    -1.6707388812     3.8222406539
    5      C      -0.8667035099     0.2664581588     2.8686531691
    6      C       0.2811045158    -0.4322810322     3.2260357080
    7      C       1.6086324595    -0.1076659115     2.5609698601
    8      C       1.7432794866    -0.0765808346     1.1530902856
    9      C       2.8473352519     0.0042771164     3.2833749752
   10      N       2.9269060246    -0.0275323829     0.5172031353
   11      N       2.8970937874    -0.0330305006     4.6369510646
   12      C       4.0753463865     0.1718707650     2.6329604748
   13      C       4.1026552140     0.1260436380     1.2001806235
   14      S       4.4541799495     0.1969438801     5.0414983032
   15      N       5.1120786298     0.1670402192     3.4997602912
   16      C       5.3210715951    -0.0610699175     0.4466024659
   17      S       6.9286636392    -0.4973774903     1.1128738233
   18      C       5.4103142316    -0.2096022455    -0.9310607365
   19      C       7.6863118085    -0.4047855933    -0.4080344554
   20      S       4.1291228626    -0.1269242152    -2.1389258032
   21      C       6.6973111545    -0.4277833645    -1.3811417511
   22      C       9.1131204080    -0.3140001973    -0.5999829699
   23      C       5.3373182931    -0.6409427102    -3.2924160669
   24      C       6.6523442751    -0.5933975448    -2.7952057253
   25      N       9.6572642162    -0.1332896842    -1.8022692197
   26      S      10.2036900909    -0.3099105663     0.7296677518
   27      C      11.0624429762    -0.0070012068    -1.6270696969
   28      C      11.5428514991    -0.2116618920    -0.3576573702
   29      C      -3.5528751863    -1.8708878595     4.2097958622
   30      H      -1.2390606051    -3.1433840744     4.4904673195
   31      H       1.0334362819    -2.3503670560     3.9753159755
   32      H      -0.8825698886     1.1384193918     2.2159940956
   33      H       0.8740944615    -0.2820340574     0.5307524630
   34      H       5.0291575040    -0.8715210521    -4.3035810170
   35      H       7.4402166577    -0.8076976863    -3.5075073174
   36      H      11.6070167150     0.2572468073    -2.5235842980
   37      H      12.5683053308    -0.2446446638    -0.0150342889
   38      H      -3.4461129242    -2.5542799309     5.0618956780
   39      C      -4.2585197484    -2.7661981309     3.1779158935
   40      H      -4.2667495802    -1.0866597878     4.4896434658
   41      H      -3.8651177787    -3.7695705979     3.3802240316
   42      H      -3.9960257174    -2.4254947430     2.1688152617
   43      C      -5.7856289643    -2.8377740049     3.4933827492
   44      H      -5.8949497238    -3.0280124389     4.5679069740
   45      C      -6.4212101013    -3.9623326615     2.6399552794
   46      H      -6.3382180358    -1.9093677225     3.3011014633
   47      H      -5.8364167828    -4.8864468542     2.7244522230
   48      H      -6.3141118629    -3.7770247367     1.5634944393
   49      C      -7.9331584439    -4.1638706245     2.9182872011
   50      H      -8.5344719355    -3.2583359069     2.7719931136
   51      C      -8.3229005065    -4.6318185208     4.2873930739
   52      H      -8.2911645287    -4.7707014935     2.0774703722
   53      H      -9.4055024482    -4.8017407943     4.2372586866
   54      H      -8.0349946179    -3.8855357758     5.0379650317
   55      H      -7.8036828273    -5.5805855622     4.4696349539
   56      C      -2.6571868940    -4.6363554272    -1.3517231403
   57      C      -2.3061308574    -4.1122136048    -0.1297538243
   58      N      -2.9130467210    -3.9387415265    -2.4205662506
   59      C      -2.2294400281    -2.7639234102    -0.0384627089
   60      C      -2.8502238315    -2.6099235480    -2.3598285810
   61      C      -2.4910910417    -1.9215155595    -1.1568958810
   62      C      -2.3522723653    -0.4179008595    -1.1337181168
   63      C      -2.9601477279     0.3632666551    -0.0780297832
   64      C      -1.6875377981     0.2528622579    -2.1760471414
   65      N      -2.8505278579     1.6954166515    -0.0799972989
   66      N      -1.0119799653    -0.4226814041    -3.1228884034
   67      C      -1.6318794637     1.6565653129    -2.1128816205
   68      C      -2.3084606165     2.3445868075    -1.1202118029
   69      S      -0.2112945907     0.8037356886    -3.8687262179
   70      N      -0.8191068808     2.1189588973    -3.0553713561
   71      C      -2.5394349916     3.8124698889    -1.0190382024
   72      S      -2.9930140369     4.7083784073     0.5165294374
   73      C      -2.6986441348     4.7069712377    -2.0551249680
   74      C      -3.2054102608     6.2729187874    -0.3720960422
   75      S      -2.7228392685     4.4248649046    -3.7029989354
   76      C      -3.1362067486     5.9407826434    -1.6625980592
   77      C      -3.5509881475     7.4967517614     0.2413114699
   78      C      -3.1043788181     6.0834295001    -3.9589033213
   79      C      -3.4197220663     6.6993413519    -2.7619190998
   80      N      -4.4024993376     7.3179047761     1.2488984135
   81      S      -3.3937851342     9.0958655104    -0.3482904554
   82      C      -4.9980670327     8.5061716384     1.6288918142
   83      C      -4.5746297487     9.5788616294     0.8558904884
   84      C      -2.7125619852    -6.1725167701    -1.4704199294
   85      H      -2.1071656788    -4.6105542487     0.8146096971
   86      H      -1.9517682888    -2.3378329925     0.9214728936
   87      H      -3.1701157844    -2.1123475240    -3.2750008264
   88      H      -3.4409738714    -0.1369106542     0.7609469024
   89      H      -3.1961970888     6.4650430254    -4.9676121606
   90      H      -3.7815360239     7.7163469607    -2.6572087776
   91      H      -5.7619261628     8.4051091511     2.3889718120
   92      H      -5.0008387021    10.5738176642     0.8587916715
   93      H      -1.7255217442    -6.4744076310    -1.8407784999
   94      C      -3.8457690269    -6.7748042323    -2.3574518418
   95      H      -2.7925561713    -6.6053330513    -0.4656806612
   96      H      -3.5009417941    -6.5044483039    -3.3624930606
   97      H      -4.7504181131    -6.2300985701    -2.0595478769
   98      C      -4.0708961895    -8.2595669086    -2.1953205495
   99      H      -4.4535480923    -8.4075407049    -1.1785785582
  100      C      -2.7739872524    -9.0052311315    -2.5092203354
  101      H      -4.7826145338    -8.5987890376    -2.9583286396
  102      H      -2.1340489501    -8.7882139133    -1.6444547624
  103      H      -2.3290441080    -8.6339919013    -3.4398615295
  104      C      -2.9294731166   -10.5318544916    -2.7113249182
  105      H      -1.9300255574   -10.9721596790    -2.8044587916
  106      C      -3.8939181154   -10.8902622995    -3.9063829450
  107      H      -3.2989749085   -10.8584210372    -1.7315924460
  108      H      -3.9484937043   -10.1611479162    -4.7230705971
  109      H      -4.9125471824   -11.0343884794    -3.5250268540
  110      H      -3.6563603745   -11.8604081539    -4.3621595800
 ----------------------------------------------------------------

   10   -5663.4822294061      4.66E-06 Convergence criterion met
 Total energy in the final basis set = -5663.4822294061

                    Orbital Energies (a.u.)
 --------------------------------------------------------------

 Alpha MOs
 -- Occupied --
-88.987 -88.985 -88.934 -88.924 -88.923 -88.910 -88.910 -88.903
-14.384 -14.384 -14.384 -14.381 -14.350 -14.344 -14.342 -14.338
-14.330 -14.321 -10.268 -10.265 -10.263 -10.258 -10.255 -10.254
-10.251 -10.251 -10.240 -10.240 -10.239 -10.236 -10.235 -10.233
-10.232 -10.231 -10.231 -10.230 -10.230 -10.227 -10.227 -10.224
-10.224 -10.222 -10.220 -10.220 -10.220 -10.215 -10.215 -10.212
-10.211 -10.209 -10.202 -10.198 -10.197 -10.190 -10.190 -10.188
-10.186 -10.183 -10.182 -10.179 -10.178 -10.177 -10.175 -10.174
-10.171 -10.171 -10.171 -10.169  -8.042  -8.040  -7.995  -7.986
 -7.984  -7.969  -7.968  -7.966  -6.007  -6.005  -6.002  -6.000
 -6.000  -5.998  -5.959  -5.956  -5.952  -5.950  -5.948  -5.947
 -5.944  -5.944  -5.940  -5.933  -5.932  -5.931  -5.930  -5.929
 -5.927  -5.925  -5.924  -5.923  -1.037  -1.029  -0.968  -0.963
 -0.956  -0.952  -0.949  -0.948  -0.924  -0.916  -0.909  -0.897
 -0.848  -0.844  -0.834  -0.826  -0.809  -0.809  -0.809  -0.806
 -0.805  -0.805  -0.800  -0.800  -0.786  -0.781  -0.768  -0.763
 -0.753  -0.753  -0.741  -0.740  -0.725  -0.714  -0.711  -0.703
 -0.694  -0.685  -0.674  -0.673  -0.657  -0.653  -0.646  -0.642
 -0.637  -0.633  -0.628  -0.626  -0.613  -0.612  -0.603  -0.596
 -0.593  -0.591  -0.583  -0.582  -0.580  -0.578  -0.566  -0.550
 -0.550  -0.549  -0.541  -0.538  -0.522  -0.521  -0.519  -0.513
 -0.510  -0.506  -0.499  -0.498  -0.497  -0.480  -0.474  -0.473
 -0.472  -0.471  -0.467  -0.465  -0.461  -0.460  -0.448  -0.447
 -0.445  -0.443  -0.440  -0.439  -0.438  -0.436  -0.434  -0.434
 -0.430  -0.430  -0.426  -0.423  -0.419  -0.417  -0.414  -0.413
 -0.411  -0.409  -0.408  -0.402  -0.401  -0.399  -0.396  -0.396
 -0.393  -0.390  -0.389  -0.389  -0.388  -0.385  -0.384  -0.383
 -0.381  -0.379  -0.375  -0.373  -0.367  -0.364  -0.361  -0.356
 -0.352  -0.350  -0.348  -0.345  -0.344  -0.343  -0.342  -0.337
 -0.333  -0.331  -0.330  -0.329  -0.328  -0.327  -0.324  -0.318
 -0.316  -0.315  -0.311  -0.305  -0.300  -0.300  -0.298  -0.295
 -0.295  -0.292  -0.291  -0.288  -0.287  -0.286  -0.283  -0.279
 -0.273  -0.269  -0.262  -0.260  -0.256  -0.253  -0.251  -0.248
 -0.244  -0.237  -0.233  -0.228  -0.192  -0.185

          Ground-State Mulliken Net Atomic Charges

     Atom                 Charge (a.u.)
  ----------------------------------------
      1 C                     0.275525
      2 C                    -0.117947
      3 N                    -0.480862
      4 C                    -0.030817
      5 C                     0.061142
      6 C                     0.025598
      7 C                    -0.009418
      8 C                     0.072298
      9 C                     0.205068
     10 N                    -0.516335
     11 N                    -0.537919
     12 C                     0.230272
     13 C                     0.297327
     14 S                     0.598609
     15 N                    -0.581344
     16 C                    -0.224304
     17 S                     0.320797
     18 C                    -0.115393
     19 C                    -0.228348
     20 S                     0.295384
     21 C                     0.181606
     22 C                     0.085494
     23 C                    -0.296051
     24 C                    -0.092567
     25 N                    -0.444435
     26 S                     0.273203
     27 C                     0.107101
     28 C                    -0.302478
     29 C                    -0.239019
     30 H                     0.087636
     31 H                     0.110512
     32 H                     0.124537
     33 H                     0.116491
     34 H                     0.125882
     35 H                     0.118921
     36 H                     0.113979
     37 H                     0.140837
     38 H                     0.095105
     39 C                    -0.179401
     40 H                     0.117734
     41 H                     0.089998
     42 H                     0.107029
     43 C                    -0.176248
     44 H                     0.096131
     45 C                    -0.178431
     46 H                     0.103287
     47 H                     0.084577
     48 H                     0.095642
     49 C                    -0.185231
     50 H                     0.090653
     51 C                    -0.303570
     52 H                     0.086940
     53 H                     0.103053
     54 H                     0.106222
     55 H                     0.098633
     56 C                     0.273917
     57 C                    -0.099326
     58 N                    -0.477358
     59 C                    -0.081506
     60 C                     0.098321
     61 C                     0.007423
     62 C                    -0.018315
     63 C                     0.075011
     64 C                     0.219861
     65 N                    -0.502357
     66 N                    -0.537704
     67 C                     0.249618
     68 C                     0.270396
     69 S                     0.597649
     70 N                    -0.559597
     71 C                    -0.220451
     72 S                     0.317901
     73 C                    -0.099644
     74 C                    -0.189673
     75 S                     0.275759
     76 C                     0.180954
     77 C                     0.009424
     78 C                    -0.311119
     79 C                    -0.096775
     80 N                    -0.405492
     81 S                     0.286534
     82 C                     0.127581
     83 C                    -0.319949
     84 C                    -0.239012
     85 H                     0.091604
     86 H                     0.102110
     87 H                     0.105544
     88 H                     0.134813
     89 H                     0.127720
     90 H                     0.097159
     91 H                     0.123751
     92 H                     0.134201
     93 H                     0.119530
     94 C                    -0.164607
     95 H                     0.083641
     96 H                     0.112739
     97 H                     0.087014
     98 C                    -0.173590
     99 H                     0.085994
    100 C                    -0.176383
    101 H                     0.096660
    102 H                     0.089323
    103 H                     0.092245
    104 C                    -0.180220
    105 H                     0.092866
    106 C                    -0.328767
    107 H                     0.092536
    108 H                     0.107921
    109 H                     0.110179
    110 H                     0.100840
  ----------------------------------------
  Sum of atomic charges =     0.000000

                    Cartesian Multipole Moments
 -----------------------------------------------------------------
    Charge (ESU x 10^10)
                 0.0000
    Dipole Moment (Debye)
         X       1.4684      Y       0.3268      Z       0.5213
       Tot       1.5921
    Quadrupole Moments (Debye-Ang)
        XX    -405.6950     XY     -15.5115     YY    -403.8141
        XZ       2.8035     YZ     -19.4012     ZZ    -429.5194

 Total job time:  94.62s(wall), 1122.30s(cpu)
        *  Thank you very much for using Q-Chem.  Have a nice day.  *
