 Q-Chem 4.4, Q-Chem, Inc., Pleasanton, CA (2016)
 Q-Chem 4.4.2 for Intel X86 Linux

User input:
--------------------------------------------------------------
$comment
SP
$end

$rem
MEM_STATIC 5000
MEM_TOTAL 20000
JOBTYPE SP
EXCHANGE B3LYP
BASIS 6-31g(d,p)
$end

$molecule
0 1
C         -13.602000     12.350000     -7.959000
C         -13.890000     12.979000     -6.733000
N         -13.112000     12.956000     -9.069000
C         -13.720000     14.409000     -6.754000
C         -12.785000     14.236000     -9.030000
C         -13.097000     15.029000     -7.893000
C         -12.789000     16.478000     -7.959000
C         -11.694000     16.948000     -8.662000
C         -13.465000     17.527000     -7.278000
N         -11.274000     18.246000     -8.742000
N         -14.580000     17.327000     -6.601000
C         -13.147000     18.827000     -7.463000
C         -11.948000     19.220000     -8.109000
S         -15.014000     18.832000     -6.071000
N         -13.804000     19.721000     -6.684000
C         -11.407000     20.602000     -8.162000
S         -11.850000     21.972000     -7.182000
C         -10.400000     21.007000     -9.058000
C         -10.523000     22.995000     -7.786000
S          -9.473000     20.138000    -10.282000
C          -9.894000     22.320000     -8.822000
C         -10.273000     24.349000     -7.337000
C          -8.507000     21.630000    -10.576000
C          -8.789000     22.627000     -9.621000
N         -10.905000     24.634000     -6.274000
S          -9.461000     25.680000     -8.200000
C         -10.849000     25.978000     -5.961000
C         -10.138000     26.661000     -6.900000
C         -13.885000     10.878000     -7.959000
H         -14.224000     12.469000     -5.834000
H         -14.031000     15.024000     -5.915000
H         -12.538000     14.771000     -9.946000
H         -11.117000     16.229000     -9.243000
H          -7.800000     21.621000    -11.395000
H          -8.245000     23.544000     -9.425000
H         -11.288000     26.357000     -5.048000
H         -10.010000     27.732000     -6.980000
H         -14.867000     10.625000     -7.541000
C         -12.865000     10.017000     -7.152000
H         -13.943000     10.432000     -8.960000
H         -12.784000     10.348000     -6.109000
H         -11.918000     10.153000     -7.688000
C         -13.109000      8.474000     -7.206000
H         -14.035000      8.232000     -6.670000
C         -11.973000      7.758000     -6.459000
H         -13.199000      8.238000     -8.273000
H         -11.955000      7.944000     -5.378000
H         -10.995000      8.112000     -6.807000
C         -12.125000      6.255000     -6.822000
H         -12.983000      5.770000     -6.340000
C         -10.904000      5.387000     -6.564000
H         -12.335000      6.113000     -7.889000
H         -10.061000      5.682000     -7.201000
H         -11.101000      4.315000     -6.688000
H         -10.749000      5.548000     -5.490000
C         -24.028000     22.568000     -7.596000
C         -22.941000     22.430000     -6.765000
N         -24.217000     21.903000     -8.699000
C         -21.995000     21.535000     -7.134000
C         -23.301000     21.019000     -9.090000
C         -22.119000     20.762000     -8.324000
C         -21.133000     19.700000     -8.749000
C         -19.713000     19.978000     -8.772000
C         -21.585000     18.445000     -9.195000
N         -18.851000     19.038000     -9.172000
N         -22.879000     18.092000     -9.094000
C         -20.615000     17.518000     -9.616000
C         -19.281000     17.880000     -9.693000
S         -22.794000     16.491000     -9.456000
N         -21.181000     16.335000     -9.823000
C         -18.160000     17.117000    -10.309000
S         -16.379000     17.389000     -9.962000
C         -18.222000     16.271000    -11.395000
C         -15.875000     16.196000    -11.229000
S         -19.531000     15.880000    -12.359000
C         -17.000000     15.903000    -11.884000
C         -14.535000     15.852000    -11.511000
C         -18.483000     14.966000    -13.373000
C         -17.161000     15.206000    -13.047000
N         -13.723000     16.900000    -11.390000
S         -13.909000     14.496000    -12.347000
C         -12.495000     16.663000    -11.979000
C         -12.424000     15.405000    -12.562000
C         -25.125000     23.561000     -7.163000
H         -22.687000     22.959000     -5.851000
H         -21.132000     21.416000     -6.485000
H         -23.501000     20.582000    -10.068000
H         -19.338000     20.926000     -8.390000
H         -18.890000     14.418000    -14.213000
H         -16.303000     14.825000    -13.590000
H         -11.825000     17.513000    -11.983000
H         -11.632000     15.045000    -13.206000
H         -25.863000     22.963000     -6.615000
C         -25.812000     24.394000     -8.289000
H         -24.706000     24.256000     -6.425000
H         -26.416000     23.627000     -8.788000
H         -24.984000     24.753000     -8.913000
C         -26.634000     25.568000     -7.812000
H         -25.929000     26.285000     -7.375000
C         -27.720000     25.071000     -6.858000
H         -27.180000     25.992000     -8.664000
H         -27.166000     24.811000     -5.947000
H         -28.234000     24.198000     -7.277000
C         -28.839000     26.095000     -6.550000
H         -29.484000     25.678000     -5.768000
C         -29.621000     26.546000     -7.843000
H         -28.283000     26.906000     -6.064000
H         -29.674000     25.816000     -8.659000
H         -29.166000     27.459000     -8.247000
H         -30.652000     26.854000     -7.625000
$end

--------------------------------------------------------------

             Standard Nuclear Orientation (Angstroms)
    I     Atom           X                Y                Z
 ----------------------------------------------------------------
    1      C      -5.4247806576    -3.4904232507    -1.3079456314
    2      C      -4.8007258755    -3.0118672241    -2.4755075177
    3      N      -5.5310280117    -2.8238666807    -0.1315741600
    4      C      -4.1525747392    -1.7360965489    -2.3125649247
    5      C      -5.0947502824    -1.5797544246    -0.0383194705
    6      C      -4.3627174112    -0.9871980180    -1.1022587453
    7      C      -3.8203392798     0.3762901315    -0.8888412464
    8      C      -4.4934937494     1.3035577663    -0.1134885566
    9      C      -2.6572520623     0.9360195661    -1.4847179823
   10      N      -4.1282695203     2.6026189500     0.1025098310
   11      N      -1.8189866808     0.2187287155    -2.2088443428
   12      C      -2.2091020493     2.1703269399    -1.1669195039
   13      C      -3.0097313613     3.0967836743    -0.4527510195
   14      S      -0.6099184267     1.2753084918    -2.6039065319
   15      N      -1.1445860995     2.6216018185    -1.8746502270
   16      C      -2.6980499462     4.5348482643    -0.2521545831
   17      S      -1.5426862806     5.5176592789    -1.1081722873
   18      C      -3.3395926352     5.3412345183     0.7065185560
   19      C      -2.1004669477     7.0404179544    -0.3717208336
   20      S      -4.6284250067     5.0174223386     1.8670024165
   21      C      -3.0282829215     6.7304232910     0.6119573797
   22      C      -1.5469382809     8.3423698388    -0.6814696119
   23      C      -4.6170906314     6.7584748306     2.3298887439
   24      C      -3.8027176908     7.5191164151     1.4674624610
   25      N      -0.8313719397     8.3304290489    -1.7295346046
   26      S      -1.5132918282     9.8106861712     0.3277821230
   27      C      -0.1258520686     9.5038767117    -1.9103751255
   28      C      -0.3685032543    10.3726692833    -0.8905462822
   29      C      -6.0026594947    -4.8654331704    -1.4571996773
   30      H      -4.7776332512    -3.5328618249    -3.4283392745
   31      H      -3.5286385768    -1.3187932408    -3.0970575087
   32      H      -5.0320744841    -1.0877798081     0.9313829174
   33      H      -5.3887571386     0.9718345576     0.4117867776
   34      H      -5.2353017386     7.0636527492     3.1637787036
   35      H      -3.7431177747     8.5976702928     1.3757543208
   36      H       0.4764571891     9.6621194410    -2.7947471043
   37      H       0.1144493604    11.3223976566    -0.7045414735
   38      H      -5.3121765343    -5.5778061632    -1.9249763338
   39      C      -7.3039818230    -4.9373031773    -2.3141506094
   40      H      -6.2306979737    -5.3622791866    -0.5056622433
   41      H      -7.1574073313    -4.5189338410    -3.3178706984
   42      H      -8.0334985778    -4.3524003778    -1.7411802616
   43      C      -7.9551931122    -6.3546860939    -2.4153954832
   44      H      -7.3017523514    -7.0157306118    -2.9979513325
   45      C      -9.2747727461    -6.2481251633    -3.1954694270
   46      H      -8.0424809031    -6.7016777990    -1.3789290833
   47      H      -9.1547376464    -5.9809893452    -4.2526879614
   48      H      -9.9040149418    -5.4476689261    -2.7877586576
   49      C      -9.9897091024    -7.6110398929    -2.9828395927
   50      H      -9.5288177686    -8.4408137908    -3.5330826814
   51      C     -11.4786680104    -7.6300097896    -3.2885690700
   52      H      -9.9251014540    -7.9465500919    -1.9407207136
   53      H     -12.0367001367    -6.9806146816    -2.6027636022
   54      H     -11.9107880363    -8.6381854405    -3.2736311912
   55      H     -11.4867591092    -7.3085058883    -4.3373739973
   56      C       8.9167917427    -0.7603561402    -0.9811373384
   57      C       7.9599862577    -0.1943744727    -1.7906816646
   58      N       8.6737743194    -1.5206515692     0.0471857589
   59      C       6.6664467623    -0.4475760476    -1.4828724111
   60      C       7.4106441226    -1.7834311347     0.3770978777
   61      C       6.3070092484    -1.2696524372    -0.3765270386
   62      C       4.8861856273    -1.6443371476    -0.0279060333
   63      C       3.8565079873    -0.6314335998     0.0615554702
   64      C       4.5556987773    -2.9757107191     0.2826867146
   65      N       2.6071320343    -0.9712817585     0.3935298025
   66      N       5.4413103432    -3.9736031417     0.1119563214
   67      C       3.2229344561    -3.2471007000     0.6398375825
   68      C       2.3096987430    -2.2173547738     0.7886759499
   69      S       4.4748544658    -5.2865387986     0.3208414518
   70      N       3.0343110459    -4.5590697923     0.7163379755
   71      C       0.9360044851    -2.2881264819     1.3598339413
   72      S      -0.3866175621    -1.0453069183     1.0907160256
   73      C       0.4876835493    -3.1264322895     2.3574349194
   74      C      -1.5035123186    -1.8752726481     2.2509991764
   75      S       1.3330380396    -4.2657552576     3.2422947728
   76      C      -0.7480259032    -2.8022527804     2.8429849115
   77      C      -2.8180623292    -1.4462325621     2.5362058985
   78      C      -0.0751803076    -4.5398825492     4.1929110543
   79      C      -1.0338380165    -3.5792892566     3.9287218734
   80      N      -2.9114973967    -0.1182454500     2.5392255543
   81      S      -4.1138066060    -2.3025449120     3.2554304312
   82      C      -4.0827811759     0.3081494213     3.1370179283
   83      C      -4.8545889803    -0.7496785488     3.5983276927
   84      C      10.3921635441    -0.5033878087    -1.3474600434
   85      H       8.0680674135     0.4712222032    -2.6421818283
   86      H       5.9012749524    -0.0070670001    -2.1157980627
   87      H       7.3065298284    -2.3491269116     1.3026255659
   88      H       4.0795373146     0.3971199639    -0.2169916278
   89      H      -0.0641312773    -5.2987197707     4.9646603596
   90      H      -1.9751860031    -3.4722428147     4.4565277350
   91      H      -4.1711127896     1.3817949967     3.2414147881
   92      H      -5.7323731328    -0.6713747452     4.2267889055
   93      H      10.6926255677    -1.3540706817    -1.9708485433
   94      C      11.3911629937    -0.3010746153    -0.1664420623
   95      H      10.4493266879     0.3740358949    -2.0032725314
   96      H      11.4554066103    -1.3175499008     0.2394603296
   97      H      10.8813839008     0.3942511379     0.5121508741
   98      C      12.7388522241     0.2619496794    -0.5514438571
   99      H      12.5610078710     1.2869456452    -0.8976196163
  100      C      13.3970703675    -0.6587300758    -1.5788769032
  101      H      13.4025337416     0.2297827202     0.3216472779
  102      H      12.8191276515    -0.4807431325    -2.4947043242
  103      H      13.3301563161    -1.7055665540    -1.2602205089
  104      C      14.9041723095    -0.4001946930    -1.8184686232
  105      H      15.2341937190    -1.0272891132    -2.6546961385
  106      C      15.7661825910    -0.5825731522    -0.5106267474
  107      H      14.9038366250     0.6249301498    -2.2085608482
  108      H      15.3825278222    -1.2940969178     0.2297163821
  109      H      15.8798093504     0.3861859874    -0.0082278133
  110      H      16.8015778853    -0.8767135141    -0.7269298497
 ----------------------------------------------------------------

   10   -5663.4769363914      5.22E-06 Convergence criterion met
 Total energy in the final basis set = -5663.4769363914

                    Orbital Energies (a.u.)
 --------------------------------------------------------------

 Alpha MOs
 -- Occupied --
-88.987 -88.978 -88.933 -88.928 -88.917 -88.911 -88.908 -88.904
-14.386 -14.386 -14.383 -14.373 -14.345 -14.341 -14.338 -14.336
-14.327 -14.322 -10.264 -10.263 -10.260 -10.256 -10.254 -10.253
-10.242 -10.241 -10.240 -10.237 -10.236 -10.233 -10.233 -10.231
-10.230 -10.230 -10.230 -10.229 -10.228 -10.227 -10.227 -10.225
-10.223 -10.222 -10.222 -10.221 -10.217 -10.214 -10.213 -10.212
-10.211 -10.205 -10.203 -10.201 -10.201 -10.191 -10.190 -10.189
-10.181 -10.180 -10.180 -10.179 -10.179 -10.178 -10.175 -10.174
-10.171 -10.171 -10.170 -10.168  -8.042  -8.034  -7.994  -7.989
 -7.975  -7.969  -7.967  -7.967  -6.007  -6.002  -6.000  -5.999
 -5.993  -5.992  -5.958  -5.954  -5.953  -5.951  -5.949  -5.945
 -5.940  -5.936  -5.934  -5.932  -5.931  -5.931  -5.930  -5.928
 -5.928  -5.925  -5.923  -5.923  -1.040  -1.039  -0.979  -0.969
 -0.959  -0.950  -0.947  -0.936  -0.925  -0.911  -0.907  -0.899
 -0.845  -0.834  -0.828  -0.823  -0.809  -0.807  -0.806  -0.806
 -0.804  -0.801  -0.798  -0.789  -0.787  -0.782  -0.764  -0.764
 -0.754  -0.747  -0.741  -0.739  -0.715  -0.712  -0.708  -0.704
 -0.690  -0.686  -0.675  -0.665  -0.658  -0.648  -0.644  -0.643
 -0.638  -0.629  -0.628  -0.619  -0.613  -0.605  -0.603  -0.597
 -0.594  -0.592  -0.583  -0.579  -0.578  -0.578  -0.571  -0.551
 -0.549  -0.543  -0.539  -0.532  -0.524  -0.520  -0.520  -0.515
 -0.508  -0.501  -0.499  -0.494  -0.485  -0.481  -0.475  -0.475
 -0.473  -0.472  -0.471  -0.469  -0.465  -0.461  -0.449  -0.448
 -0.444  -0.442  -0.440  -0.438  -0.438  -0.436  -0.435  -0.428
 -0.427  -0.424  -0.424  -0.420  -0.418  -0.414  -0.414  -0.409
 -0.409  -0.407  -0.401  -0.398  -0.395  -0.394  -0.393  -0.392
 -0.391  -0.390  -0.389  -0.388  -0.385  -0.384  -0.383  -0.382
 -0.379  -0.377  -0.374  -0.372  -0.367  -0.364  -0.361  -0.355
 -0.350  -0.349  -0.348  -0.345  -0.344  -0.343  -0.335  -0.334
 -0.331  -0.330  -0.329  -0.328  -0.326  -0.325  -0.320  -0.318
 -0.316  -0.316  -0.308  -0.305  -0.301  -0.301  -0.298  -0.297
 -0.292  -0.291  -0.290  -0.288  -0.285  -0.280  -0.279  -0.279
 -0.272  -0.266  -0.262  -0.262  -0.257  -0.253  -0.247  -0.246
 -0.238  -0.236  -0.230  -0.224  -0.190  -0.187

          Ground-State Mulliken Net Atomic Charges

     Atom                 Charge (a.u.)
  ----------------------------------------
      1 C                     0.282129
      2 C                    -0.108851
      3 N                    -0.499870
      4 C                    -0.074018
      5 C                     0.090896
      6 C                     0.038888
      7 C                     0.074235
      8 C                     0.051740
      9 C                     0.225244
     10 N                    -0.539860
     11 N                    -0.548701
     12 C                     0.175226
     13 C                     0.297479
     14 S                     0.597261
     15 N                    -0.516480
     16 C                    -0.226660
     17 S                     0.361389
     18 C                    -0.120345
     19 C                    -0.243848
     20 S                     0.273619
     21 C                     0.153188
     22 C                     0.087543
     23 C                    -0.325250
     24 C                    -0.068633
     25 N                    -0.423934
     26 S                     0.256906
     27 C                     0.128266
     28 C                    -0.312440
     29 C                    -0.241265
     30 H                     0.102483
     31 H                     0.116694
     32 H                     0.104084
     33 H                     0.105498
     34 H                     0.132944
     35 H                     0.102097
     36 H                     0.122441
     37 H                     0.128428
     38 H                     0.100740
     39 C                    -0.185468
     40 H                     0.103250
     41 H                     0.087941
     42 H                     0.104480
     43 C                    -0.173303
     44 H                     0.093835
     45 C                    -0.171150
     46 H                     0.099638
     47 H                     0.095221
     48 H                     0.094810
     49 C                    -0.180964
     50 H                     0.091672
     51 C                    -0.315789
     52 H                     0.091219
     53 H                     0.102672
     54 H                     0.097517
     55 H                     0.098122
     56 C                     0.273818
     57 C                    -0.098583
     58 N                    -0.476753
     59 C                    -0.074362
     60 C                     0.097652
     61 C                     0.011358
     62 C                    -0.011988
     63 C                     0.076732
     64 C                     0.219981
     65 N                    -0.501312
     66 N                    -0.537346
     67 C                     0.249518
     68 C                     0.275832
     69 S                     0.595972
     70 N                    -0.559740
     71 C                    -0.223825
     72 S                     0.316105
     73 C                    -0.099358
     74 C                    -0.187564
     75 S                     0.275605
     76 C                     0.177797
     77 C                     0.003644
     78 C                    -0.311185
     79 C                    -0.095132
     80 N                    -0.406133
     81 S                     0.306970
     82 C                     0.112802
     83 C                    -0.323342
     84 C                    -0.238920
     85 H                     0.093651
     86 H                     0.089970
     87 H                     0.106077
     88 H                     0.116684
     89 H                     0.128185
     90 H                     0.098588
     91 H                     0.139434
     92 H                     0.136595
     93 H                     0.119246
     94 C                    -0.165296
     95 H                     0.084954
     96 H                     0.112439
     97 H                     0.087816
     98 C                    -0.173572
     99 H                     0.086829
    100 C                    -0.176836
    101 H                     0.096794
    102 H                     0.089526
    103 H                     0.092050
    104 C                    -0.180323
    105 H                     0.092764
    106 C                    -0.328412
    107 H                     0.092887
    108 H                     0.107706
    109 H                     0.110244
    110 H                     0.100792
  ----------------------------------------
  Sum of atomic charges =     0.000000

                    Cartesian Multipole Moments
 -----------------------------------------------------------------
    Charge (ESU x 10^10)
                 0.0000
    Dipole Moment (Debye)
         X      -0.4540      Y       0.6537      Z      -0.2654
       Tot       0.8390
    Quadrupole Moments (Debye-Ang)
        XX    -442.1840     XY      13.6746     YY    -396.9677
        XZ     -22.1049     YZ       1.5689     ZZ    -421.8012

 Total job time:  93.51s(wall), 1107.16s(cpu)
        *  Thank you very much for using Q-Chem.  Have a nice day.  *
