 Q-Chem 4.4, Q-Chem, Inc., Pleasanton, CA (2016)
 Q-Chem 4.4.2 for Intel X86 Linux

User input:
--------------------------------------------------------------
$comment
SP
$end

$rem
MEM_STATIC 5000
MEM_TOTAL 20000
JOBTYPE SP
EXCHANGE B3LYP
BASIS 6-31g(d,p)
$end

$molecule
0 1
C         -23.770000     10.598000     -7.350000
C         -23.561000      9.255000     -7.764000
N         -23.999000     10.944000     -6.082000
C         -23.628000      8.132000     -6.876000
C         -24.180000      9.929000     -5.206000
C         -23.916000      8.545000     -5.493000
C         -24.149000      7.512000     -4.345000
C         -24.836000      7.908000     -3.215000
C         -23.708000      6.166000     -4.322000
N         -25.139000      7.045000     -2.214000
N         -22.889000      5.608000     -5.259000
C         -24.060000      5.258000     -3.281000
C         -24.785000      5.745000     -2.211000
S         -22.669000      4.075000     -4.858000
N         -23.454000      4.022000     -3.374000
C         -25.253000      4.967000     -1.057000
S         -24.947000      3.215000     -0.846000
C         -26.102000      5.322000     -0.074000
C         -25.661000      3.222000      0.766000
S         -27.000000      6.765000      0.120000
C         -26.232000      4.412000      0.962000
C         -25.637000      2.062000      1.605000
C         -27.304000      6.233000      1.824000
C         -26.917000      4.904000      2.056000
N         -25.418000      0.924000      1.039000
S         -26.071000      2.064000      3.304000
C         -25.432000     -0.097000      1.969000
C         -25.583000      0.405000      3.259000
C         -23.877000     11.720000     -8.413000
H         -23.239000      9.074000     -8.785000
H         -23.361000      7.148000     -7.251000
H         -24.303000     10.308000     -4.192000
H         -25.202000      8.931000     -3.142000
H         -27.912000      6.883000      2.439000
H         -27.248000      4.331000      2.915000
H         -25.317000     -1.127000      1.657000
H         -25.389000     -0.224000      4.117000
H         -23.948000     12.705000     -7.935000
C         -25.098000     11.459000     -9.249000
H         -22.979000     11.645000     -9.039000
H         -25.958000     11.572000     -8.577000
H         -25.069000     10.458000     -9.698000
C         -25.304000     12.474000    -10.370000
H         -26.207000     12.312000    -10.971000
C         -24.078000     12.511000    -11.373000
H         -25.402000     13.464000     -9.908000
H         -23.893000     11.644000    -12.020000
H         -23.114000     12.767000    -10.915000
C         -24.314000     13.741000    -12.310000
H         -25.144000     13.476000    -12.976000
C         -23.035000     13.848000    -13.144000
H         -24.636000     14.715000    -11.922000
H         -22.196000     13.975000    -12.447000
H         -23.043000     14.737000    -13.786000
H         -22.856000     12.915000    -13.693000
C         -29.784000      1.649000     -0.675000
C         -29.032000      1.161000     -1.727000
N         -29.894000      2.962000     -0.298000
C         -28.309000      2.146000     -2.477000
C         -29.209000      3.865000     -1.100000
C         -28.406000      3.529000     -2.277000
C         -27.758000      4.491000     -3.251000
C         -26.873000      4.053000     -4.260000
C         -28.054000      5.887000     -3.279000
N         -26.484000      4.799000     -5.255000
N         -28.994000      6.608000     -2.510000
C         -27.514000      6.691000     -4.339000
C         -26.842000      6.068000     -5.443000
S         -28.918000      8.110000     -3.120000
N         -27.973000      7.930000     -4.365000
C         -26.644000      6.715000     -6.817000
S         -27.139000      8.324000     -7.318000
C         -26.219000      5.979000     -7.903000
C         -26.789000      7.964000     -9.011000
S         -25.751000      4.318000     -8.040000
C         -26.244000      6.662000     -9.119000
C         -27.151000      8.688000    -10.195000
C         -25.798000      4.509000     -9.781000
C         -26.044000      5.749000    -10.220000
N         -26.509000      8.492000    -11.344000
S         -28.395000      9.892000    -10.292000
C         -27.112000      9.128000    -12.405000
C         -28.142000      9.904000    -12.090000
C         -30.614000      0.668000      0.211000
H         -28.953000      0.100000     -1.942000
H         -27.674000      1.782000     -3.279000
H         -29.353000      4.867000     -0.698000
H         -26.560000      3.014000     -4.351000
H         -25.689000      3.604000    -10.364000
H         -26.210000      5.931000    -11.276000
H         -26.766000      9.064000    -13.428000
H         -28.766000     10.505000    -12.738000
H         -31.484000      1.236000      0.563000
C         -29.919000      0.177000      1.442000
H         -31.064000     -0.162000     -0.347000
H         -29.452000      1.036000      1.941000
H         -29.085000     -0.440000      1.086000
C         -30.825000     -0.612000      2.372000
H         -31.362000      0.108000      3.002000
C         -30.066000     -1.635000      3.297000
H         -31.619000     -1.094000      1.788000
H         -29.859000     -2.482000      2.631000
H         -30.800000     -1.983000      4.035000
C         -28.784000     -1.063000      4.063000
H         -28.005000     -0.645000      3.414000
C         -28.254000     -2.033000      5.142000
H         -29.221000     -0.200000      4.580000
H         -28.001000     -2.929000      4.562000
H         -29.019000     -2.192000      5.913000
H         -27.436000     -1.639000      5.758000
$end

--------------------------------------------------------------

             Standard Nuclear Orientation (Angstroms)
    I     Atom           X                Y                Z
 ----------------------------------------------------------------
    1      C      -5.9001322205     2.4929141055     0.3066483863
    2      C      -5.4602687147     1.8582940064    -0.8860390942
    3      N      -5.0704331452     3.0849786830     1.1674851772
    4      C      -4.0815868048     1.7410159036    -1.2597288559
    5      C      -3.7476250308     2.9233548703     0.9342075837
    6      C      -3.1918476462     2.3735851196    -0.2726004871
    7      C      -1.6357463337     2.2960923436    -0.3813459466
    8      C      -0.8729296278     2.4972048883     0.7515041837
    9      C      -0.8858633553     2.0466999754    -1.5570180801
   10      N       0.4770927838     2.3707853346     0.7454556424
   11      N      -1.4207947659     1.9671525337    -2.8090622448
   12      C       0.5301338029     1.8826897597    -1.5469335828
   13      C       1.1974545620     2.0662396878    -0.3516568666
   14      S      -0.2270626753     1.6507146236    -3.8259991873
   15      N       1.0973025327     1.7505811164    -2.7977125154
   16      C       2.6433543335     1.9264653493    -0.1375050864
   17      S       3.8041175217     1.4866310753    -1.4285649737
   18      C       3.3400143435     1.9159624074     1.0147403383
   19      C       5.1825951936     1.7285026563    -0.3563306493
   20      S       2.7750180254     1.9673946126     2.6285627847
   21      C       4.7185224530     1.9165365947     0.8805350385
   22      C       6.5304177295     1.6400418285    -0.8313528525
   23      C       4.4825345023     2.3258983376     3.1132467643
   24      C       5.3955316590     2.1441361193     2.0628979233
   25      N       6.7269205253     1.0300234635    -1.9505602710
   26      S       7.9366496605     2.1334786349     0.0927644962
   27      C       8.0697415507     1.0181281855    -2.2734026416
   28      C       8.8117743538     1.7486502079    -1.3489406932
   29      C      -7.3889652548     2.3936279787     0.7235661973
   30      H      -6.2079425520     1.5286955566    -1.6010458737
   31      H      -3.8336245760     1.3275264582    -2.2332334587
   32      H      -3.1544009276     3.4874397658     1.6531369224
   33      H      -1.3667033235     2.7071479787     1.6990934598
   34      H       4.6758494141     2.4500574767     4.1704141366
   35      H       6.4654557710     2.0559235989     2.2153838110
   36      H       8.4185235572     0.4998262661    -3.1572483478
   37      H       9.8320773450     2.0322606612    -1.5680021384
   38      H      -7.5869844468     3.0055367277     1.6124453131
   39      C      -7.7017531898     0.9512366748     1.0055751226
   40      H      -7.9784049407     2.7372124264    -0.1357449129
   41      H      -7.1045991862     0.6753803156     1.8837911354
   42      H      -7.4647795879     0.3145148566     0.1436749902
   43      C      -9.1571676536     0.7018454218     1.3914180199
   44      H      -9.3933332331    -0.3428519043     1.6273996207
   45      C     -10.1617920376     1.1607767624     0.2553872670
   46      H      -9.3665512661     1.2878132571     2.2947165303
   47      H     -10.1850521872     0.6055112502    -0.6910070358
   48      H     -10.1038361250     2.2240060532    -0.0106589456
   49      C     -11.5953508591     1.0724668718     0.8748026919
   50      H     -11.8329096170     0.0061191431     0.9704549688
   51      C     -12.5166705039     1.6840106564    -0.1835121533
   52      H     -11.8185086221     1.4462308215     1.8814829404
   53      H     -12.1739811311     2.7112395920    -0.3657858700
   54      H     -13.5504577450     1.7601440859     0.1743099269
   55      H     -12.4224630974     1.1424235714    -1.1331117499
   56      C       5.6274264580    -2.7797196202     0.6575707518
   57      C       4.9706672901    -2.9345972413    -0.5486764525
   58      N       5.1607483561    -2.1013462915     1.7531159019
   59      C       3.6802386639    -2.3154691589    -0.6319133324
   60      C       3.8840511354    -1.5722623061     1.6191295482
   61      C       3.0303334584    -1.6818789379     0.4349909068
   62      C       1.5887188528    -1.2378283854     0.2986441581
   63      C       0.9153049493    -1.2492898992    -0.9421347699
   64      C       0.7824596729    -0.8591331330     1.4138804742
   65      N      -0.3738386997    -1.1065692541    -1.0670406127
   66      N       1.1068999937    -0.8803139317     2.7883228528
   67      C      -0.6160630698    -0.6080267198     1.2072510783
   68      C      -1.2209885821    -0.9080992579    -0.0586677960
   69      S      -0.2794837410    -0.4546775000     3.5167827131
   70      N      -1.3018390325    -0.4209155532     2.3213330953
   71      C      -2.7201579487    -1.1365955888    -0.2730731063
   72      S      -3.9949148870    -1.0428890295     0.9315516606
   73      C      -3.2050181826    -1.6646284625    -1.4511260923
   74      C      -5.1702936163    -1.7549383863    -0.1774206368
   75      S      -2.3981081704    -2.1099076159    -2.9165054656
   76      C      -4.5661419767    -1.9695493928    -1.4394966695
   77      C      -6.4778485589    -2.2811556419     0.0880439974
   78      C      -3.8770086552    -2.9022068579    -3.4213680876
   79      C      -4.9223224619    -2.7530909778    -2.5992242438
   80      N      -7.3675865759    -2.4372155400    -0.8890908804
   81      S      -7.0759492098    -2.7374273845     1.6503028455
   82      C      -8.4881045994    -3.1250994508    -0.4827891648
   83      C      -8.5402413136    -3.4093881506     0.8128815874
   84      C       7.0394420492    -3.4122995909     0.8632684689
   85      H       5.4200006282    -3.4469448800    -1.3935352859
   86      H       3.1651205767    -2.3833327019    -1.5853140330
   87      H       3.6274215273    -1.0447701704     2.5368644178
   88      H       1.4126988604    -1.5150694243    -1.8736558600
   89      H      -3.8153118054    -3.5007980406    -4.3206328398
   90      H      -5.8371859719    -3.3084416604    -2.7736558271
   91      H      -9.3107154838    -3.3858816759    -1.1352038826
   92      H      -9.3110370803    -3.9290856046     1.3662977441
   93      H       7.1151830848    -3.6495097909     1.9316422876
   94      C       8.1933322916    -2.5087292577     0.5606714408
   95      H       7.1636986141    -4.3884466601     0.3790565261
   96      H       8.0026468682    -1.5354302732     1.0310958834
   97      H       8.1492213690    -2.3222996152    -0.5192726387
   98      C       9.5377065048    -3.0927958977     0.9603977659
   99      H       9.6900941310    -2.8768068954     2.0251962268
  100      C      10.7568223363    -2.5234256099     0.1432019114
  101      H       9.4882608263    -4.1880703561     0.9186247408
  102      H      10.7032416903    -3.0624065446    -0.8109692820
  103      H      11.6605512448    -2.8755565180     0.6567989164
  104      C      10.8198584670    -0.9314736819     0.0047118211
  105      H       9.9376130741    -0.4714267286    -0.4565536853
  106      C      12.1646915227    -0.4374954637    -0.5727399711
  107      H      10.7824356222    -0.6313433368     1.0590117341
  108      H      12.2008674005    -0.9217689248    -1.5563026386
  109      H      12.9868500103    -0.7137206456     0.1000914120
  110      H      12.2879634667     0.6525520491    -0.5931470195
 ----------------------------------------------------------------

   10   -5663.4848102899      3.27E-06 Convergence criterion met
 Total energy in the final basis set = -5663.4848102899

                    Orbital Energies (a.u.)
 --------------------------------------------------------------

 Alpha MOs
 -- Occupied --
-88.987 -88.984 -88.932 -88.931 -88.923 -88.910 -88.907 -88.907
-14.383 -14.383 -14.380 -14.379 -14.346 -14.343 -14.340 -14.339
-14.331 -14.326 -10.272 -10.268 -10.264 -10.261 -10.257 -10.254
-10.253 -10.250 -10.247 -10.244 -10.239 -10.233 -10.232 -10.231
-10.230 -10.229 -10.229 -10.228 -10.228 -10.228 -10.228 -10.227
-10.227 -10.225 -10.225 -10.225 -10.222 -10.221 -10.219 -10.217
-10.216 -10.214 -10.210 -10.201 -10.197 -10.196 -10.196 -10.195
-10.182 -10.180 -10.179 -10.178 -10.177 -10.176 -10.176 -10.175
-10.173 -10.171 -10.171 -10.168  -8.043  -8.039  -7.992  -7.989
 -7.983  -7.968  -7.968  -7.967  -6.008  -6.004  -6.003  -6.002
 -5.999  -5.997  -5.956  -5.954  -5.953  -5.950  -5.949  -5.948
 -5.946  -5.944  -5.940  -5.933  -5.932  -5.931  -5.929  -5.928
 -5.928  -5.925  -5.924  -5.923  -1.044  -1.025  -0.978  -0.969
 -0.967  -0.954  -0.933  -0.920  -0.918  -0.915  -0.902  -0.893
 -0.850  -0.839  -0.827  -0.822  -0.812  -0.807  -0.806  -0.805
 -0.802  -0.795  -0.792  -0.789  -0.780  -0.775  -0.769  -0.767
 -0.751  -0.749  -0.741  -0.739  -0.730  -0.714  -0.708  -0.704
 -0.697  -0.688  -0.678  -0.670  -0.647  -0.646  -0.643  -0.642
 -0.631  -0.630  -0.620  -0.619  -0.610  -0.606  -0.600  -0.595
 -0.592  -0.589  -0.583  -0.582  -0.579  -0.575  -0.562  -0.557
 -0.548  -0.545  -0.540  -0.534  -0.525  -0.523  -0.516  -0.510
 -0.504  -0.503  -0.500  -0.491  -0.484  -0.483  -0.478  -0.474
 -0.470  -0.466  -0.464  -0.460  -0.459  -0.458  -0.455  -0.452
 -0.447  -0.441  -0.441  -0.440  -0.435  -0.435  -0.429  -0.429
 -0.427  -0.426  -0.424  -0.421  -0.419  -0.417  -0.416  -0.413
 -0.412  -0.410  -0.405  -0.403  -0.401  -0.400  -0.397  -0.396
 -0.391  -0.390  -0.389  -0.387  -0.384  -0.382  -0.380  -0.379
 -0.377  -0.372  -0.368  -0.367  -0.362  -0.359  -0.354  -0.353
 -0.351  -0.350  -0.349  -0.348  -0.344  -0.343  -0.341  -0.340
 -0.337  -0.334  -0.333  -0.328  -0.325  -0.324  -0.323  -0.315
 -0.313  -0.313  -0.310  -0.306  -0.304  -0.302  -0.300  -0.298
 -0.292  -0.288  -0.285  -0.283  -0.283  -0.280  -0.276  -0.274
 -0.269  -0.267  -0.264  -0.262  -0.257  -0.253  -0.251  -0.249
 -0.248  -0.237  -0.231  -0.226  -0.197  -0.190

          Ground-State Mulliken Net Atomic Charges

     Atom                 Charge (a.u.)
  ----------------------------------------
      1 C                     0.263290
      2 C                    -0.112174
      3 N                    -0.480576
      4 C                    -0.073604
      5 C                     0.063546
      6 C                     0.028199
      7 C                     0.072056
      8 C                     0.050789
      9 C                     0.206519
     10 N                    -0.561032
     11 N                    -0.541688
     12 C                     0.210386
     13 C                     0.313815
     14 S                     0.612149
     15 N                    -0.573967
     16 C                    -0.223725
     17 S                     0.322119
     18 C                    -0.108465
     19 C                    -0.233439
     20 S                     0.284442
     21 C                     0.189244
     22 C                     0.077574
     23 C                    -0.320420
     24 C                    -0.081709
     25 N                    -0.426469
     26 S                     0.277898
     27 C                     0.114647
     28 C                    -0.312036
     29 C                    -0.216818
     30 H                     0.094214
     31 H                     0.142999
     32 H                     0.103267
     33 H                     0.114847
     34 H                     0.124855
     35 H                     0.120814
     36 H                     0.121037
     37 H                     0.133064
     38 H                     0.111879
     39 C                    -0.184859
     40 H                     0.103271
     41 H                     0.096351
     42 H                     0.113807
     43 C                    -0.182647
     44 H                     0.097186
     45 C                    -0.178439
     46 H                     0.091783
     47 H                     0.097459
     48 H                     0.096946
     49 C                    -0.178926
     50 H                     0.086958
     51 C                    -0.319064
     52 H                     0.094262
     53 H                     0.099895
     54 H                     0.092457
     55 H                     0.100612
     56 C                     0.253454
     57 C                    -0.096546
     58 N                    -0.483834
     59 C                    -0.094632
     60 C                     0.055121
     61 C                     0.060934
     62 C                     0.053118
     63 C                     0.049872
     64 C                     0.214603
     65 N                    -0.525393
     66 N                    -0.544969
     67 C                     0.174272
     68 C                     0.315705
     69 S                     0.618130
     70 N                    -0.540213
     71 C                    -0.205491
     72 S                     0.341479
     73 C                    -0.114588
     74 C                    -0.215403
     75 S                     0.272879
     76 C                     0.119975
     77 C                     0.053023
     78 C                    -0.306360
     79 C                    -0.035455
     80 N                    -0.448115
     81 S                     0.242587
     82 C                     0.138353
     83 C                    -0.302212
     84 C                    -0.238045
     85 H                     0.098506
     86 H                     0.090504
     87 H                     0.138709
     88 H                     0.118622
     89 H                     0.125821
     90 H                     0.120429
     91 H                     0.117046
     92 H                     0.130240
     93 H                     0.111698
     94 C                    -0.158287
     95 H                     0.090512
     96 H                     0.112114
     97 H                     0.087633
     98 C                    -0.190498
     99 H                     0.094712
    100 C                    -0.180867
    101 H                     0.089094
    102 H                     0.087855
    103 H                     0.089733
    104 C                    -0.193938
    105 H                     0.112591
    106 C                    -0.315580
    107 H                     0.091319
    108 H                     0.106579
    109 H                     0.105386
    110 H                     0.093242
  ----------------------------------------
  Sum of atomic charges =     0.000000

                    Cartesian Multipole Moments
 -----------------------------------------------------------------
    Charge (ESU x 10^10)
                 0.0000
    Dipole Moment (Debye)
         X       0.0457      Y      -2.7666      Z      -1.1195
       Tot       2.9849
    Quadrupole Moments (Debye-Ang)
        XX    -391.8862     XY      24.1263     YY    -447.8463
        XZ      -3.5674     YZ       9.7839     ZZ    -431.8175

 Total job time:  120.61s(wall), 1425.10s(cpu)
        *  Thank you very much for using Q-Chem.  Have a nice day.  *
