 Q-Chem 4.4, Q-Chem, Inc., Pleasanton, CA (2016)
 Q-Chem 4.4.2 for Intel X86 Linux

User input:
--------------------------------------------------------------
$comment
SP
$end

$rem
MEM_STATIC 5000
MEM_TOTAL 20000
JOBTYPE SP
EXCHANGE B3LYP
BASIS 6-31g(d,p)
$end

$molecule
0 1
C         -27.641000     -0.932000     -5.170000
C         -26.987000     -2.158000     -5.042000
N         -27.030000      0.219000     -5.416000
C         -25.568000     -2.070000     -5.103000
C         -25.697000      0.244000     -5.644000
C         -24.898000     -0.900000     -5.480000
C         -23.369000     -0.801000     -5.616000
C         -22.797000      0.453000     -5.267000
C         -22.441000     -1.850000     -5.798000
N         -21.464000      0.706000     -5.462000
N         -22.813000     -3.138000     -6.115000
C         -21.014000     -1.553000     -5.888000
C         -20.589000     -0.223000     -5.827000
S         -21.366000     -3.807000     -6.673000
N         -20.330000     -2.654000     -6.288000
C         -19.145000      0.086000     -6.115000
S         -17.876000     -1.086000     -6.348000
C         -18.599000      1.327000     -6.088000
C         -16.605000      0.182000     -6.378000
S         -19.334000      2.896000     -5.853000
C         -17.168000      1.388000     -6.263000
C         -15.245000     -0.063000     -6.457000
C         -17.705000      3.693000     -6.194000
C         -16.756000      2.750000     -6.438000
N         -14.318000      0.864000     -6.539000
S         -14.618000     -1.707000     -6.516000
C         -13.035000      0.315000     -6.463000
C         -13.052000     -1.021000     -6.109000
C         -29.207000     -0.734000     -5.132000
H         -27.473000     -3.045000     -4.647000
H         -25.059000     -3.014000     -4.934000
H         -25.321000      1.203000     -5.997000
H         -23.457000      1.248000     -4.925000
H         -17.620000      4.772000     -6.215000
H         -15.720000      3.069000     -6.458000
H         -12.145000      0.868000     -6.735000
H         -12.202000     -1.685000     -6.020000
H         -29.411000      0.253000     -4.699000
C         -29.906000     -1.751000     -4.185000
H         -29.632000     -0.887000     -6.132000
H         -29.306000     -1.836000     -3.271000
H         -29.926000     -2.738000     -4.665000
C         -31.373000     -1.494000     -3.916000
H         -31.446000     -0.415000     -3.732000
C         -31.866000     -2.335000     -2.632000
H         -32.019000     -1.759000     -4.762000
H         -32.447000     -1.673000     -1.978000
H         -30.984000     -2.424000     -1.985000
C         -32.456000     -3.724000     -2.954000
H         -32.821000     -4.194000     -2.033000
C         -31.376000     -4.777000     -3.433000
H         -33.224000     -3.768000     -3.736000
H         -31.320000     -4.720000     -4.528000
H         -31.667000     -5.801000     -3.168000
H         -30.404000     -4.543000     -2.983000
C         -29.784000      1.649000     -0.675000
C         -29.032000      1.161000     -1.727000
N         -29.894000      2.962000     -0.298000
C         -28.309000      2.146000     -2.477000
C         -29.209000      3.865000     -1.100000
C         -28.406000      3.529000     -2.277000
C         -27.758000      4.491000     -3.251000
C         -26.873000      4.053000     -4.260000
C         -28.054000      5.887000     -3.279000
N         -26.484000      4.799000     -5.255000
N         -28.994000      6.608000     -2.510000
C         -27.514000      6.691000     -4.339000
C         -26.842000      6.068000     -5.443000
S         -28.918000      8.110000     -3.120000
N         -27.973000      7.930000     -4.365000
C         -26.644000      6.715000     -6.817000
S         -27.139000      8.324000     -7.318000
C         -26.219000      5.979000     -7.903000
C         -26.789000      7.964000     -9.011000
S         -25.751000      4.318000     -8.040000
C         -26.244000      6.662000     -9.119000
C         -27.151000      8.688000    -10.195000
C         -25.798000      4.509000     -9.781000
C         -26.044000      5.749000    -10.220000
N         -26.509000      8.492000    -11.344000
S         -28.395000      9.892000    -10.292000
C         -27.112000      9.128000    -12.405000
C         -28.142000      9.904000    -12.090000
C         -30.614000      0.668000      0.211000
H         -28.953000      0.100000     -1.942000
H         -27.674000      1.782000     -3.279000
H         -29.353000      4.867000     -0.698000
H         -26.560000      3.014000     -4.351000
H         -25.689000      3.604000    -10.364000
H         -26.210000      5.931000    -11.276000
H         -26.766000      9.064000    -13.428000
H         -28.766000     10.505000    -12.738000
H         -31.484000      1.236000      0.563000
C         -29.919000      0.177000      1.442000
H         -31.064000     -0.162000     -0.347000
H         -29.452000      1.036000      1.941000
H         -29.085000     -0.440000      1.086000
C         -30.825000     -0.612000      2.372000
H         -31.362000      0.108000      3.002000
C         -30.066000     -1.635000      3.297000
H         -31.619000     -1.094000      1.788000
H         -29.859000     -2.482000      2.631000
H         -30.800000     -1.983000      4.035000
C         -28.784000     -1.063000      4.063000
H         -28.005000     -0.645000      3.414000
C         -28.254000     -2.033000      5.142000
H         -29.221000     -0.200000      4.580000
H         -28.001000     -2.929000      4.562000
H         -29.019000     -2.192000      5.913000
H         -27.436000     -1.639000      5.758000
$end

--------------------------------------------------------------

             Standard Nuclear Orientation (Angstroms)
    I     Atom           X                Y                Z
 ----------------------------------------------------------------
    1      C       1.8588621371    -2.4052527959     2.6539931359
    2      C       1.0241843716    -3.4691669117     2.9983414800
    3      N       1.4610807262    -1.3269336905     1.9924526186
    4      C      -0.3016488879    -3.3557608377     2.4940288484
    5      C       0.1549601178    -1.1666558112     1.6796300527
    6      C      -0.7877683125    -2.1847708893     1.9003964321
    7      C      -2.2354379026    -2.0178685978     1.4079186327
    8      C      -2.4060999760    -1.2063317388     0.2530232334
    9      C      -3.3769112607    -2.7550925860     1.7929489744
   10      N      -3.6546255315    -0.8810578616    -0.2099063962
   11      N      -3.3914124723    -3.6120505750     2.8714802534
   12      C      -4.6742458077    -2.4555601209     1.1930811760
   13      C      -4.7730796930    -1.4138451511     0.2666321571
   14      S      -5.0446093460    -3.8184893164     3.1490719372
   15      N      -5.6603815822    -3.1077313157     1.8581119775
   16      C      -6.1399660262    -0.9880896845    -0.1958773400
   17      S      -7.6408559378    -1.7932734103     0.1745853986
   18      C      -6.3804421459     0.0021807370    -1.0905626077
   19      C      -8.5698618209    -0.7443954947    -0.9483429996
   20      S      -5.2944353481     1.1296690661    -1.8693888418
   21      C      -7.7555622383     0.1608454228    -1.4979656621
   22      C      -9.9160639413    -0.8899935491    -1.2354092940
   23      C      -6.7461571717     1.9821092236    -2.6250213747
   24      C      -7.9024434317     1.3671719715    -2.2586332458
   25      N     -10.6102301591    -0.0878723634    -2.0100813959
   26      S     -10.8669802018    -2.1821282224    -0.5105008503
   27      C     -11.9047359577    -0.5708396631    -2.2204699055
   28      C     -12.0709847150    -1.8596352284    -1.7494408816
   29      C       3.3761506741    -2.2744792670     3.0708117773
   30      H       1.4031881464    -4.4210317392     3.3579238612
   31      H      -0.9294253739    -4.2163591484     2.7038984063
   32      H      -0.0940150645    -0.1817511772     1.2876603847
   33      H      -1.5236000501    -0.7674319841    -0.2086583518
   34      H      -6.6033680604     2.8675186437    -3.2312955937
   35      H      -8.8095712871     1.6415791670    -2.7852039865
   36      H     -12.6973318936     0.0403669348    -2.6329152680
   37      H     -12.9811591985    -2.4451985205    -1.7533190945
   38      H       3.8986107639    -1.7317651585     2.2734593765
   39      C       4.0835187620    -3.6570652157     3.1590471599
   40      H       3.4574806302    -1.8120402238     4.0625625371
   41      H       3.7637665669    -4.2606351327     2.3010944287
   42      H       3.7572191923    -4.1731431170     4.0712758542
   43      C       5.5862527659    -3.6139779902     3.3334977387
   44      H       5.9349905892    -2.8498347041     2.6278824265
   45      C       6.2338247511    -5.0514802004     2.9970101171
   46      H       5.8942876823    -3.3336788326     4.3482902655
   47      H       7.1028478345    -4.9032781514     2.3440506748
   48      H       5.5737101129    -5.5000019325     2.2436636363
   49      C       6.4004267237    -5.9881620297     4.2119076163
   50      H       6.9037481830    -6.9115555787     3.9014597746
   51      C       5.0316612560    -6.5532778306     4.7702759768
   52      H       6.8874754763    -5.5673058692     5.1001348421
   53      H       4.6805922009    -5.8629699242     5.5485018520
   54      H       5.1624157279    -7.5386207821     5.2344790961
   55      H       4.2997917990    -6.6243054561     3.9570342081
   56      C       5.6847436944    -2.9708390458    -1.4082448561
   57      C       4.5796487533    -2.7434872148    -0.6098537764
   58      N       6.1723571435    -2.1311069373    -2.3753441840
   59      C       3.8989722152    -1.5025281189    -0.8382262196
   60      C       5.4951175510    -0.9260579213    -2.5058869100
   61      C       4.3390035684    -0.5020312721    -1.7142835623
   62      C       3.6600370644     0.8517213221    -1.7338386151
   63      C       2.4533320334     1.0948206859    -1.0425241661
   64      C       4.2242310470     1.9959245231    -2.3739168799
   65      N       1.9649472975     2.2850648588    -0.8359783878
   66      N       5.4741298431     2.1226057980    -3.0192903021
   67      C       3.5884442821     3.2719806665    -2.2034120167
   68      C       2.5148559550     3.4203685965    -1.2632428160
   69      S       5.5476622424     3.6964745298    -3.4084049396
   70      N       4.2724426233     4.2872979713    -2.7011619940
   71      C       2.0766073174     4.7525723649    -0.6477265682
   72      S       2.7377419302     6.3463203718    -0.9760180762
   73      C       1.2152335682     4.7978750463     0.4282380833
   74      C       1.8537883885     7.0523592700     0.3798890778
   75      S       0.3872921541     3.5371492816     1.2778247834
   76      C       1.0380027284     6.0652777401     0.9832602820
   77      C       2.0094951608     8.3325929578     1.0074503145
   78      C      -0.0224286421     4.7152774590     2.5082368554
   79      C       0.3453644393     5.9752384550     2.2473469593
   80      N       1.0415194233     8.8526614271     1.7580052816
   81      S       3.4001213868     9.3578388291     0.8605129027
   82      C       1.4389156929     9.9883071481     2.4259955520
   83      C       2.6557810890    10.4260601028     2.1261423238
   84      C       6.5049350888    -4.2890225035    -1.2471999914
   85      H       4.2203094418    -3.4748147632     0.1072391577
   86      H       3.0004811729    -1.3224333268    -0.2558133825
   87      H       5.9558373906    -0.3527124121    -3.3092275329
   88      H       1.9149853019     0.3094122454    -0.5142369542
   89      H      -0.4812617210     4.3266710985     3.4078213719
   90      H       0.2394333085     6.7427140561     3.0060140781
   91      H       0.8114578976    10.5397095084     3.1134496611
   92      H       3.1826200982    11.2904239595     2.5079757712
   93      H       7.5386595946    -4.0405389167    -1.5175655830
   94      C       6.1004118213    -5.4069570625    -2.1560730562
   95      H       6.5918734661    -4.6341775360    -0.2098602582
   96      H       5.9869647882    -5.0035739017    -3.1706580926
   97      H       5.0888563833    -5.6928800898    -1.8430481076
   98      C       7.0447846503    -6.5960703521    -2.1068130876
   99      H       7.8781142151    -6.3866474867    -2.7889955411
  100      C       6.3810278593    -7.9640366190    -2.5146491025
  101      H       7.5196887349    -6.6460197843    -1.1189936888
  102      H       5.8192533972    -8.2564829627    -1.6187146240
  103      H       7.2033344325    -8.6827921471    -2.6228451767
  104      C       5.5204040420    -7.9461414434    -3.8624140701
  105      H       4.6960755617    -7.2229091292    -3.8759630996
  106      C       5.1257375465    -9.3628339853    -4.3349197304
  107      H       6.2583884055    -7.5541602678    -4.5728764809
  108      H       4.5349819021    -9.7452801692    -3.4935115743
  109      H       6.0263824439    -9.9482750520    -4.5608500874
  110      H       4.6188534422    -9.4027688494    -5.3071798352
 ----------------------------------------------------------------

   10   -5663.4974275140      5.10E-06 Convergence criterion met
 Total energy in the final basis set = -5663.4974275140

                    Orbital Energies (a.u.)
 --------------------------------------------------------------

 Alpha MOs
 -- Occupied --
-88.993 -88.988 -88.930 -88.924 -88.920 -88.918 -88.905 -88.903
-14.395 -14.389 -14.383 -14.381 -14.355 -14.343 -14.342 -14.335
-14.334 -14.331 -10.271 -10.269 -10.267 -10.265 -10.265 -10.263
-10.261 -10.254 -10.250 -10.245 -10.242 -10.242 -10.237 -10.236
-10.236 -10.235 -10.235 -10.233 -10.231 -10.230 -10.229 -10.229
-10.228 -10.226 -10.226 -10.225 -10.225 -10.224 -10.221 -10.216
-10.213 -10.211 -10.211 -10.207 -10.207 -10.197 -10.197 -10.191
-10.188 -10.187 -10.186 -10.182 -10.181 -10.181 -10.180 -10.177
-10.176 -10.176 -10.173 -10.171  -8.048  -8.044  -7.989  -7.983
 -7.980  -7.980  -7.964  -7.964  -6.014  -6.009  -6.008  -6.006
 -6.003  -6.002  -5.953  -5.949  -5.948  -5.945  -5.944  -5.944
 -5.944  -5.941  -5.941  -5.940  -5.937  -5.937  -5.929  -5.928
 -5.925  -5.924  -5.920  -5.920  -1.045  -1.034  -0.968  -0.966
 -0.963  -0.960  -0.948  -0.920  -0.914  -0.913  -0.904  -0.902
 -0.848  -0.840  -0.831  -0.826  -0.813  -0.806  -0.805  -0.801
 -0.801  -0.798  -0.793  -0.789  -0.787  -0.775  -0.771  -0.766
 -0.751  -0.748  -0.742  -0.739  -0.728  -0.725  -0.707  -0.707
 -0.695  -0.695  -0.678  -0.677  -0.657  -0.654  -0.646  -0.641
 -0.638  -0.632  -0.629  -0.619  -0.613  -0.608  -0.599  -0.594
 -0.593  -0.586  -0.584  -0.581  -0.580  -0.573  -0.571  -0.557
 -0.549  -0.546  -0.541  -0.538  -0.525  -0.521  -0.510  -0.507
 -0.505  -0.501  -0.500  -0.499  -0.488  -0.482  -0.480  -0.478
 -0.474  -0.473  -0.472  -0.470  -0.463  -0.458  -0.458  -0.454
 -0.450  -0.444  -0.439  -0.439  -0.438  -0.437  -0.435  -0.433
 -0.428  -0.427  -0.427  -0.425  -0.423  -0.420  -0.417  -0.414
 -0.412  -0.409  -0.406  -0.405  -0.404  -0.400  -0.398  -0.396
 -0.396  -0.390  -0.388  -0.388  -0.385  -0.384  -0.383  -0.379
 -0.378  -0.377  -0.368  -0.366  -0.365  -0.356  -0.355  -0.353
 -0.351  -0.350  -0.348  -0.348  -0.344  -0.344  -0.343  -0.342
 -0.339  -0.338  -0.337  -0.335  -0.332  -0.328  -0.323  -0.316
 -0.315  -0.312  -0.309  -0.309  -0.306  -0.303  -0.301  -0.299
 -0.295  -0.295  -0.289  -0.283  -0.283  -0.280  -0.279  -0.276
 -0.271  -0.270  -0.266  -0.263  -0.256  -0.255  -0.252  -0.251
 -0.247  -0.246  -0.238  -0.229  -0.199  -0.194

          Ground-State Mulliken Net Atomic Charges

     Atom                 Charge (a.u.)
  ----------------------------------------
      1 C                     0.250586
      2 C                    -0.110360
      3 N                    -0.485441
      4 C                    -0.096683
      5 C                     0.037516
      6 C                     0.061002
      7 C                     0.039793
      8 C                     0.065459
      9 C                     0.184802
     10 N                    -0.539909
     11 N                    -0.562396
     12 C                     0.200139
     13 C                     0.360446
     14 S                     0.610042
     15 N                    -0.545525
     16 C                    -0.213095
     17 S                     0.331346
     18 C                    -0.128759
     19 C                    -0.245042
     20 S                     0.261375
     21 C                     0.174190
     22 C                     0.086721
     23 C                    -0.295310
     24 C                    -0.051643
     25 N                    -0.456494
     26 S                     0.240965
     27 C                     0.113276
     28 C                    -0.294912
     29 C                    -0.217200
     30 H                     0.107302
     31 H                     0.121260
     32 H                     0.128354
     33 H                     0.126485
     34 H                     0.136307
     35 H                     0.128971
     36 H                     0.121961
     37 H                     0.127698
     38 H                     0.120757
     39 C                    -0.190490
     40 H                     0.119673
     41 H                     0.089675
     42 H                     0.097432
     43 C                    -0.187582
     44 H                     0.096176
     45 C                    -0.190402
     46 H                     0.095487
     47 H                     0.098026
     48 H                     0.090131
     49 C                    -0.177474
     50 H                     0.098421
     51 C                    -0.324195
     52 H                     0.100409
     53 H                     0.103296
     54 H                     0.102198
     55 H                     0.103300
     56 C                     0.252140
     57 C                    -0.104115
     58 N                    -0.480599
     59 C                    -0.117803
     60 C                     0.057583
     61 C                     0.055338
     62 C                     0.041687
     63 C                     0.064330
     64 C                     0.202420
     65 N                    -0.521410
     66 N                    -0.546285
     67 C                     0.155974
     68 C                     0.323853
     69 S                     0.615867
     70 N                    -0.526002
     71 C                    -0.213620
     72 S                     0.333732
     73 C                    -0.109192
     74 C                    -0.222198
     75 S                     0.285485
     76 C                     0.127034
     77 C                     0.053207
     78 C                    -0.307170
     79 C                    -0.033067
     80 N                    -0.441649
     81 S                     0.237085
     82 C                     0.139261
     83 C                    -0.300363
     84 C                    -0.244278
     85 H                     0.097998
     86 H                     0.115293
     87 H                     0.127655
     88 H                     0.121903
     89 H                     0.125845
     90 H                     0.119997
     91 H                     0.116701
     92 H                     0.129364
     93 H                     0.113038
     94 C                    -0.155279
     95 H                     0.093910
     96 H                     0.112067
     97 H                     0.083307
     98 C                    -0.190671
     99 H                     0.096479
    100 C                    -0.180821
    101 H                     0.088055
    102 H                     0.087836
    103 H                     0.090784
    104 C                    -0.183447
    105 H                     0.101989
    106 C                    -0.313813
    107 H                     0.095302
    108 H                     0.106652
    109 H                     0.103405
    110 H                     0.101147
  ----------------------------------------
  Sum of atomic charges =     0.000000

                    Cartesian Multipole Moments
 -----------------------------------------------------------------
    Charge (ESU x 10^10)
                 0.0000
    Dipole Moment (Debye)
         X      -2.2339      Y      -0.7591      Z       3.1368
       Tot       3.9251
    Quadrupole Moments (Debye-Ang)
        XX    -418.1023     XY      14.5964     YY    -407.7905
        XZ      10.4760     YZ      -2.9956     ZZ    -430.8551

 Total job time:  90.66s(wall), 1074.78s(cpu)
        *  Thank you very much for using Q-Chem.  Have a nice day.  *
