 Q-Chem 4.4, Q-Chem, Inc., Pleasanton, CA (2016)
 Q-Chem 4.4.2 for Intel X86 Linux

User input:
--------------------------------------------------------------
$comment
SP
$end

$rem
MEM_STATIC 5000
MEM_TOTAL 20000
JOBTYPE SP
EXCHANGE B3LYP
BASIS 6-31g(d,p)
$end

$molecule
0 1
C          13.007000      0.189000     -9.485000
C          11.999000      1.041000     -8.915000
N          14.145000      0.645000    -10.064000
C          12.196000      2.418000     -8.942000
C          14.229000      1.964000    -10.140000
C          13.309000      2.902000     -9.666000
C          13.459000      4.449000     -9.660000
C          12.288000      5.199000     -9.898000
C          14.688000      5.113000     -9.775000
N          12.371000      6.522000    -10.059000
N          15.910000      4.516000     -9.771000
C          14.711000      6.471000     -9.984000
C          13.525000      7.207000    -10.124000
S          16.944000      5.729000     -9.910000
N          15.974000      6.976000    -10.092000
C          13.506000      8.614000    -10.386000
S          14.803000      9.699000    -10.698000
C          12.436000      9.387000    -10.068000
C          13.959000     11.156000    -10.361000
S          10.797000      8.992000     -9.582000
C          12.674000     10.743000    -10.025000
C          14.415000     12.480000    -10.583000
C          10.530000     10.716000     -9.295000
C          11.631000     11.512000     -9.464000
N          13.598000     13.500000    -10.595000
S          16.125000     12.914000    -10.631000
C          14.257000     14.707000    -10.644000
C          15.624000     14.536000    -10.475000
C          12.946000     -1.324000     -9.451000
H          11.126000      0.643000     -8.407000
H          11.544000      3.094000     -8.397000
H          15.072000      2.337000    -10.720000
H          11.328000      4.692000     -9.806000
H           9.554000     11.066000     -8.987000
H          11.643000     12.569000     -9.226000
H          13.699000     15.634000    -10.624000
H          16.394000     15.291000    -10.565000
H          11.905000     -1.658000     -9.532000
C          13.541000     -1.907000     -8.189000
H          13.410000     -1.729000    -10.359000
H          13.290000     -1.217000     -7.374000
H          14.631000     -1.834000     -8.285000
C          13.145000     -3.398000     -7.954000
H          12.121000     -3.380000     -7.563000
C          14.062000     -4.216000     -7.077000
H          13.176000     -3.902000     -8.928000
H          14.093000     -3.741000     -6.088000
H          15.043000     -4.291000     -7.561000
C          13.522000     -5.634000     -6.843000
H          12.491000     -5.560000     -6.475000
C          14.496000     -6.304000     -5.850000
H          13.536000     -6.190000     -7.788000
H          14.353000     -7.392000     -5.821000
H          14.316000     -5.860000     -4.864000
H          15.548000     -6.087000     -6.073000
C           9.101000     -0.069000     -6.737000
C           9.299000     -1.414000     -7.061000
N           8.163000      0.662000     -7.337000
C           8.301000     -2.019000     -7.903000
C           7.269000      0.099000     -8.192000
C           7.296000     -1.264000     -8.487000
C           6.171000     -1.895000     -9.261000
C           5.986000     -1.673000    -10.597000
C           5.381000     -2.954000     -8.741000
N           5.097000     -2.321000    -11.333000
N           5.431000     -3.433000     -7.473000
C           4.538000     -3.652000     -9.576000
C           4.384000     -3.350000    -10.917000
S           4.624000     -4.822000     -7.486000
N           4.038000     -4.790000     -8.993000
C           3.533000     -4.147000    -11.788000
S           2.076000     -5.120000    -11.303000
C           3.645000     -4.135000    -13.139000
C           1.674000     -5.513000    -12.995000
S           4.701000     -3.282000    -14.236000
C           2.628000     -4.827000    -13.769000
C           0.535000     -6.176000    -13.480000
C           3.677000     -3.850000    -15.576000
C           2.635000     -4.629000    -15.168000
N           0.649000     -6.937000    -14.593000
S          -0.860000     -6.547000    -12.421000
C          -0.381000     -7.817000    -14.705000
C          -1.237000     -7.725000    -13.655000
C          10.094000      0.705000     -5.833000
H          10.013000     -1.995000     -6.484000
H           8.483000     -3.061000     -8.151000
H           6.516000      0.759000     -8.620000
H           6.532000     -0.916000    -11.158000
H           3.858000     -3.462000    -16.569000
H           1.868000     -5.097000    -15.774000
H          -0.589000     -8.529000    -15.492000
H          -2.161000     -8.287000    -13.607000
H          11.114000      0.318000     -5.948000
C           9.629000      0.658000     -4.321000
H          10.312000      1.707000     -6.221000
H           9.467000     -0.357000     -3.937000
H           8.603000      1.046000     -4.333000
C          10.580000      1.543000     -3.450000
H          11.632000      1.253000     -3.571000
C           9.992000      1.609000     -2.001000
H          10.594000      2.566000     -3.844000
H           8.898000      1.685000     -1.975000
H          10.399000      2.469000     -1.455000
C          10.324000      0.285000     -1.248000
H          10.312000     -0.624000     -1.861000
C           9.433000      0.031000     -0.004000
H          11.322000      0.171000     -0.808000
H           9.657000      0.761000      0.783000
H           9.662000     -0.955000      0.419000
H           8.376000      0.111000     -0.285000
$end

--------------------------------------------------------------

             Standard Nuclear Orientation (Angstroms)
    I     Atom           X                Y                Z
 ----------------------------------------------------------------
    1      C       1.2778030504     2.3817685470     2.6101923054
    2      C       1.3940172890     1.8859434012     1.2657520221
    3      N       2.2728593711     2.3192525259     3.5289826328
    4      C       2.5986906645     1.3156859687     0.8667087675
    5      C       3.3586403564     1.6840666016     3.1164156762
    6      C       3.5870580411     1.1223606815     1.8581502747
    7      C       4.9006765815     0.4721679613     1.3410422039
    8      C       4.7614153808    -0.6427404060     0.4878302429
    9      C       6.1589160407     0.6933507590     1.9176474704
   10      N       5.8417398183    -1.3418861722     0.1311324613
   11      N       6.4278936543     1.5922056050     2.9022387609
   12      C       7.2260216701    -0.0872387531     1.5430282111
   13      C       7.0758495029    -1.1320950828     0.6191150277
   14      S       7.9994761144     1.4389411755     3.1600848114
   15      N       8.3799011896     0.2311283289     2.1980568025
   16      C       8.1512294989    -1.9953077527     0.2356104638
   17      S       9.7647005281    -2.0812857636     0.8239105741
   18      C       8.1437229421    -2.6675594961    -0.9440395882
   19      C      10.4362743573    -2.9489106038    -0.4970624493
   20      S       6.8846024734    -2.9530301311    -2.1321743288
   21      C       9.3632394021    -3.1565940673    -1.3573842286
   22      C      11.7375925800    -3.5052161934    -0.5824496509
   23      C       8.1119340385    -3.6928114736    -3.1676523801
   24      C       9.3918303468    -3.6373690536    -2.6847760210
   25      N      12.0473841280    -4.4058721337    -1.4773692416
   26      S      13.1118140928    -2.8851919984     0.3350715922
   27      C      13.3955442135    -4.6796167100    -1.5099159886
   28      C      14.1044651009    -3.7893610766    -0.7153298807
   29      C       0.0487292794     3.0896306411     3.1415630999
   30      H       0.5986210839     2.0028722937     0.5361839917
   31      H       2.7891568747     1.0637482363    -0.1722113458
   32      H       4.1093267660     1.5117003032     3.8864402042
   33      H       3.7879966089    -0.8194431892     0.0313819753
   34      H       7.8262418610    -4.1254661045    -4.1169310273
   35      H      10.2565993716    -3.9576787619    -3.2536461507
   36      H      13.7917730070    -5.3830195374    -2.2305547369
   37      H      15.1589049748    -3.8237345255    -0.4744979513
   38      H      -0.8533851582     2.6652699086     2.6855965329
   39      C       0.0675103730     4.5779361198     2.8748196418
   40      H      -0.0757332858     2.8562571578     4.2063780544
   41      H       0.5373979346     4.7165395280     1.8933305819
   42      H       0.7764263670     5.0218686477     3.5840495228
   43      C      -1.3281725502     5.2526163590     3.0536987982
   44      H      -1.8974116327     5.0126060930     2.1480813629
   45      C      -1.3362765242     6.7347908188     3.3404655963
   46      H      -1.7993680860     4.8004902739     3.9352938131
   47      H      -0.8490205386     7.2426313755     2.4982146993
   48      H      -0.8468826223     6.9127165059     4.3053894579
   49      C      -2.7616120819     7.3019171681     3.4026447868
   50      H      -3.2930171510     7.0153049561     2.4864990056
   51      C      -2.6073290395     8.8269360635     3.5874125101
   52      H      -3.2814545213     6.8867875874     4.2743031312
   53      H      -3.5507815504     9.2894241900     3.9052742607
   54      H      -2.2726647252     9.2411664624     2.6292136929
   55      H      -1.8196362883     9.0918291753     4.3035785307
   56      C      -1.0331814617     2.5305745611    -1.5745551607
   57      C      -2.0063743199     3.0300422221    -0.7047087855
   58      N      -1.0804257243     1.2795393306    -2.0294000044
   59      C      -3.1682619646     2.2039349265    -0.5083498357
   60      C      -2.1473567779     0.4764762006    -1.7764617983
   61      C      -3.2356240885     0.9194859335    -1.0248371333
   62      C      -4.4885769362     0.0910627764    -0.9430677362
   63      C      -4.5511693175    -1.0744132591    -0.2316235679
   64      C      -5.7547776541     0.5702935299    -1.3709165724
   65      N      -5.6710093698    -1.7486587113    -0.0236035510
   66      N      -5.9834126890     1.7399161877    -2.0185845887
   67      C      -6.8955844423    -0.1289475137    -1.0473430338
   68      C      -6.8766661731    -1.3202097860    -0.3446786063
   69      S      -7.5708569631     1.9802305607    -1.9637331652
   70      N      -8.0425868484     0.5789683236    -1.3084438717
   71      C      -8.1039256649    -2.0028364621     0.0372977820
   72      S      -9.7095313929    -1.9248199717    -0.8116702228
   73      C      -8.1539253909    -2.9307967090     1.0243534073
   74      C     -10.4230006192    -3.1670621021     0.2497972295
   75      S      -6.9437171337    -3.5970669611     2.0909526410
   76      C      -9.3760757303    -3.5718422148     1.0982601559
   77      C     -11.6824783102    -3.7780864275     0.1380823266
   78      C      -8.1390580590    -4.8144285303     2.5969080563
   79      C      -9.3472583845    -4.6751147141     1.9805375232
   80      N     -12.3195345562    -4.1679118481     1.2663914513
   81      S     -12.7208265904    -3.5371759383    -1.3002993979
   82      C     -13.6492673765    -4.3515721787     1.0520937389
   83      C     -13.9961658794    -4.0647025068    -0.2289477202
   84      C       0.2650368523     3.3193368861    -1.8824905498
   85      H      -1.9784849725     4.0810420781    -0.4310164639
   86      H      -3.9046032268     2.6074422526     0.1811248800
   87      H      -2.1224156055    -0.5234752416    -2.2068895519
   88      H      -3.6752321291    -1.5634984912     0.1919513107
   89      H      -7.8164654865    -5.6257994417     3.2348463576
   90      H     -10.2387356414    -5.2787999634     2.1045593769
   91      H     -14.4119459732    -4.6902406102     1.7399905711
   92      H     -14.9953757479    -4.2292291286    -0.6116154996
   93      H       0.5663411149     3.9313669969    -1.0234044744
   94      C       0.0887215798     4.2029881300    -3.1835099208
   95      H       1.1521446616     2.6750858845    -1.8752530357
   96      H      -0.7751104929     4.8786254224    -3.1483901354
   97      H      -0.2273965384     3.4954776097    -3.9599519336
   98      C       1.4460814819     4.8943600906    -3.5382575890
   99      H       1.8428385504     5.4723609700    -2.6933056307
  100      C       1.2785929961     5.6172301738    -4.9163386642
  101      H       2.2256372093     4.1333088017    -3.6609556073
  102      H       0.6783722069     5.0502779179    -5.6385492593
  103      H       2.2560322771     5.8115295939    -5.3748418674
  104      C       0.5046674220     6.9542730357    -4.7076173396
  105      H      -0.2785184314     6.9331186282    -3.9405668783
  106      C      -0.1185021504     7.5273305397    -6.0073087573
  107      H       1.0606314558     7.8284459604    -4.3479985264
  108      H       0.6680894572     7.8655485952    -6.6923833442
  109      H      -0.7188908961     8.4140796161    -5.7690328049
  110      H      -0.7220828210     6.7547142260    -6.4985972733
 ----------------------------------------------------------------

    9   -5663.5159919094      7.76E-06 Convergence criterion met
 Total energy in the final basis set = -5663.5159919094

                    Orbital Energies (a.u.)
 --------------------------------------------------------------

 Alpha MOs
 -- Occupied --
-88.991 -88.989 -88.932 -88.927 -88.924 -88.919 -88.908 -88.903
-14.382 -14.382 -14.378 -14.377 -14.350 -14.343 -14.342 -14.340
-14.329 -14.326 -10.275 -10.268 -10.258 -10.258 -10.253 -10.249
-10.247 -10.246 -10.244 -10.240 -10.239 -10.235 -10.234 -10.234
-10.232 -10.232 -10.232 -10.231 -10.229 -10.229 -10.228 -10.225
-10.222 -10.221 -10.220 -10.220 -10.217 -10.217 -10.215 -10.212
-10.211 -10.207 -10.206 -10.204 -10.199 -10.197 -10.190 -10.190
-10.188 -10.186 -10.185 -10.185 -10.179 -10.177 -10.177 -10.177
-10.177 -10.175 -10.173 -10.170  -8.046  -8.045  -7.993  -7.986
 -7.985  -7.980  -7.968  -7.963  -6.011  -6.010  -6.006  -6.005
 -6.004  -6.004  -5.957  -5.954  -5.950  -5.950  -5.950  -5.947
 -5.946  -5.945  -5.943  -5.942  -5.940  -5.937  -5.933  -5.929
 -5.927  -5.924  -5.924  -5.919  -1.049  -1.043  -0.974  -0.970
 -0.969  -0.960  -0.941  -0.939  -0.922  -0.914  -0.905  -0.900
 -0.847  -0.842  -0.836  -0.829  -0.814  -0.813  -0.811  -0.809
 -0.806  -0.803  -0.801  -0.799  -0.785  -0.783  -0.772  -0.770
 -0.750  -0.747  -0.743  -0.738  -0.724  -0.721  -0.711  -0.710
 -0.696  -0.695  -0.678  -0.673  -0.651  -0.649  -0.648  -0.647
 -0.642  -0.635  -0.634  -0.620  -0.613  -0.607  -0.601  -0.597
 -0.593  -0.590  -0.589  -0.579  -0.578  -0.575  -0.574  -0.571
 -0.557  -0.553  -0.544  -0.542  -0.525  -0.523  -0.513  -0.511
 -0.510  -0.504  -0.501  -0.501  -0.495  -0.489  -0.484  -0.484
 -0.479  -0.475  -0.472  -0.471  -0.461  -0.456  -0.453  -0.451
 -0.444  -0.441  -0.440  -0.437  -0.436  -0.436  -0.433  -0.427
 -0.426  -0.425  -0.424  -0.423  -0.420  -0.418  -0.415  -0.414
 -0.412  -0.410  -0.407  -0.404  -0.403  -0.400  -0.398  -0.396
 -0.395  -0.391  -0.390  -0.390  -0.390  -0.389  -0.387  -0.385
 -0.384  -0.384  -0.374  -0.370  -0.369  -0.364  -0.357  -0.352
 -0.350  -0.350  -0.349  -0.346  -0.346  -0.343  -0.341  -0.338
 -0.338  -0.336  -0.335  -0.334  -0.333  -0.328  -0.324  -0.319
 -0.315  -0.310  -0.309  -0.307  -0.305  -0.304  -0.303  -0.301
 -0.298  -0.297  -0.294  -0.292  -0.286  -0.286  -0.284  -0.279
 -0.268  -0.265  -0.264  -0.262  -0.256  -0.252  -0.251  -0.251
 -0.247  -0.241  -0.239  -0.229  -0.194  -0.192

          Ground-State Mulliken Net Atomic Charges

     Atom                 Charge (a.u.)
  ----------------------------------------
      1 C                     0.229849
      2 C                    -0.114145
      3 N                    -0.466435
      4 C                    -0.097539
      5 C                     0.085268
      6 C                     0.051289
      7 C                    -0.005089
      8 C                     0.083038
      9 C                     0.229794
     10 N                    -0.539213
     11 N                    -0.544884
     12 C                     0.170374
     13 C                     0.329480
     14 S                     0.614731
     15 N                    -0.547064
     16 C                    -0.211901
     17 S                     0.320960
     18 C                    -0.103071
     19 C                    -0.226259
     20 S                     0.274614
     21 C                     0.127100
     22 C                     0.080550
     23 C                    -0.317909
     24 C                    -0.033326
     25 N                    -0.430315
     26 S                     0.269000
     27 C                     0.110019
     28 C                    -0.302992
     29 C                    -0.217070
     30 H                     0.100649
     31 H                     0.110152
     32 H                     0.105516
     33 H                     0.119192
     34 H                     0.119910
     35 H                     0.122360
     36 H                     0.119786
     37 H                     0.131296
     38 H                     0.092807
     39 C                    -0.179789
     40 H                     0.115282
     41 H                     0.090802
     42 H                     0.107879
     43 C                    -0.178828
     44 H                     0.083625
     45 C                    -0.168621
     46 H                     0.093372
     47 H                     0.089105
     48 H                     0.096557
     49 C                    -0.174143
     50 H                     0.091031
     51 C                    -0.316950
     52 H                     0.093485
     53 H                     0.096482
     54 H                     0.102934
     55 H                     0.104980
     56 C                     0.252736
     57 C                    -0.126016
     58 N                    -0.471267
     59 C                    -0.066397
     60 C                     0.073836
     61 C                     0.041768
     62 C                     0.004723
     63 C                     0.058098
     64 C                     0.241112
     65 N                    -0.527285
     66 N                    -0.549667
     67 C                     0.150810
     68 C                     0.335396
     69 S                     0.610595
     70 N                    -0.548700
     71 C                    -0.221963
     72 S                     0.317973
     73 C                    -0.079804
     74 C                    -0.182845
     75 S                     0.276007
     76 C                     0.120500
     77 C                     0.011283
     78 C                    -0.324059
     79 C                    -0.030307
     80 N                    -0.428047
     81 S                     0.270745
     82 C                     0.143386
     83 C                    -0.299065
     84 C                    -0.226142
     85 H                     0.101935
     86 H                     0.101745
     87 H                     0.110354
     88 H                     0.116542
     89 H                     0.128973
     90 H                     0.120074
     91 H                     0.125554
     92 H                     0.123604
     93 H                     0.098645
     94 C                    -0.183667
     95 H                     0.113197
     96 H                     0.101830
     97 H                     0.115652
     98 C                    -0.181435
     99 H                     0.098251
    100 C                    -0.174566
    101 H                     0.093757
    102 H                     0.100309
    103 H                     0.092912
    104 C                    -0.179333
    105 H                     0.092583
    106 C                    -0.322463
    107 H                     0.092216
    108 H                     0.102640
    109 H                     0.096857
    110 H                     0.098704
  ----------------------------------------
  Sum of atomic charges =     0.000000

                    Cartesian Multipole Moments
 -----------------------------------------------------------------
    Charge (ESU x 10^10)
                 0.0000
    Dipole Moment (Debye)
         X      -1.5022      Y       0.7572      Z      -1.4831
       Tot       2.2427
    Quadrupole Moments (Debye-Ang)
        XX    -334.3349     XY       4.5754     YY    -431.9005
        XZ       0.6451     YZ      -0.3167     ZZ    -448.0309

 Total job time:  82.10s(wall), 961.50s(cpu)
        *  Thank you very much for using Q-Chem.  Have a nice day.  *
