 Q-Chem 4.4, Q-Chem, Inc., Pleasanton, CA (2016)
 Q-Chem 4.4.2 for Intel X86 Linux

User input:
--------------------------------------------------------------
$comment
SP
$end

$rem
MEM_STATIC 5000
MEM_TOTAL 20000
JOBTYPE SP
EXCHANGE B3LYP
BASIS 6-31g(d,p)
$end

$molecule
0 1
C          -3.255000    -13.671000    -14.522000
C          -2.389000    -12.852000    -15.312000
N          -3.274000    -13.520000    -13.220000
C          -1.560000    -11.933000    -14.715000
C          -2.513000    -12.588000    -12.650000
C          -1.601000    -11.747000    -13.296000
C          -0.789000    -10.824000    -12.434000
C          -1.434000    -10.226000    -11.368000
C           0.512000    -10.394000    -12.621000
N          -0.891000     -9.351000    -10.469000
N           1.191000    -10.646000    -13.719000
C           1.113000     -9.537000    -11.706000
C           0.405000     -9.198000    -10.547000
S           2.634000     -9.908000    -13.549000
N           2.377000     -9.215000    -12.043000
C           0.919000     -8.392000     -9.445000
S          -0.120000     -7.165000     -8.609000
C           2.188000     -8.533000     -8.855000
C           1.196000     -6.903000     -7.370000
S           3.411000     -9.771000     -9.008000
C           2.275000     -7.698000     -7.705000
C           1.096000     -6.207000     -6.153000
C           4.065000     -9.230000     -7.401000
C           3.338000     -8.161000     -6.875000
N           2.133000     -5.443000     -5.823000
S          -0.192000     -6.415000     -4.914000
C           1.982000     -4.985000     -4.531000
C           0.804000     -5.321000     -3.919000
C          -4.238000    -14.663000    -15.023000
H          -2.411000    -12.975000    -16.391000
H          -0.880000    -11.371000    -15.349000
H          -2.567000    -12.656000    -11.564000
H          -2.457000    -10.521000    -11.138000
H           4.945000     -9.673000     -6.954000
H           3.569000     -7.637000     -5.955000
H           2.712000     -4.360000     -4.033000
H           0.443000     -4.929000     -2.977000
H          -4.124000    -14.890000    -16.090000
C          -5.703000    -14.074000    -14.990000
H          -4.206000    -15.601000    -14.454000
H          -5.666000    -13.163000    -15.601000
H          -6.149000    -13.766000    -14.036000
C          -6.590000    -15.164000    -15.582000
H          -6.006000    -16.025000    -15.930000
C          -7.469000    -14.666000    -16.730000
H          -7.244000    -15.542000    -14.787000
H          -7.857000    -13.693000    -16.406000
H          -8.327000    -15.341000    -16.836000
C          -6.609000    -14.609000    -18.045000
H          -5.838000    -13.832000    -17.967000
C          -7.618000    -14.329000    -19.191000
H          -6.124000    -15.575000    -18.231000
H          -8.324000    -15.162000    -19.294000
H          -7.053000    -14.278000    -20.131000
H          -8.187000    -13.393000    -19.138000
C           9.101000     -0.069000     -6.737000
C           9.299000     -1.414000     -7.061000
N           8.163000      0.662000     -7.337000
C           8.301000     -2.019000     -7.903000
C           7.269000      0.099000     -8.192000
C           7.296000     -1.264000     -8.487000
C           6.171000     -1.895000     -9.261000
C           5.986000     -1.673000    -10.597000
C           5.381000     -2.954000     -8.741000
N           5.097000     -2.321000    -11.333000
N           5.431000     -3.433000     -7.473000
C           4.538000     -3.652000     -9.576000
C           4.384000     -3.350000    -10.917000
S           4.624000     -4.822000     -7.486000
N           4.038000     -4.790000     -8.993000
C           3.533000     -4.147000    -11.788000
S           2.076000     -5.120000    -11.303000
C           3.645000     -4.135000    -13.139000
C           1.674000     -5.513000    -12.995000
S           4.701000     -3.282000    -14.236000
C           2.628000     -4.827000    -13.769000
C           0.535000     -6.176000    -13.480000
C           3.677000     -3.850000    -15.576000
C           2.635000     -4.629000    -15.168000
N           0.649000     -6.937000    -14.593000
S          -0.860000     -6.547000    -12.421000
C          -0.381000     -7.817000    -14.705000
C          -1.237000     -7.725000    -13.655000
C          10.094000      0.705000     -5.833000
H          10.013000     -1.995000     -6.484000
H           8.483000     -3.061000     -8.151000
H           6.516000      0.759000     -8.620000
H           6.532000     -0.916000    -11.158000
H           3.858000     -3.462000    -16.569000
H           1.868000     -5.097000    -15.774000
H          -0.589000     -8.529000    -15.492000
H          -2.161000     -8.287000    -13.607000
H          11.114000      0.318000     -5.948000
C           9.629000      0.658000     -4.321000
H          10.312000      1.707000     -6.221000
H           9.467000     -0.357000     -3.937000
H           8.603000      1.046000     -4.333000
C          10.580000      1.543000     -3.450000
H          11.632000      1.253000     -3.571000
C           9.992000      1.609000     -2.001000
H          10.594000      2.566000     -3.844000
H           8.898000      1.685000     -1.975000
H          10.399000      2.469000     -1.455000
C          10.324000      0.285000     -1.248000
H          10.312000     -0.624000     -1.861000
C           9.433000      0.031000     -0.004000
H          11.322000      0.171000     -0.808000
H           9.657000      0.761000      0.783000
H           9.662000     -0.955000      0.419000
H           8.376000      0.111000     -0.285000
$end

--------------------------------------------------------------

             Standard Nuclear Orientation (Angstroms)
    I     Atom           X                Y                Z
 ----------------------------------------------------------------
    1      C       9.7844297914    -0.9063747450     1.0297127941
    2      C       9.1497351141     0.3677682147     1.1658722038
    3      N       9.0503469418    -1.9737417455     0.8291733808
    4      C       7.7806729197     0.4750152058     1.1171096087
    5      C       7.7281921863    -1.8581552326     0.7233832086
    6      C       6.9797842277    -0.6855631120     0.8691715695
    7      C       5.4857496014    -0.8103913293     0.7879591829
    8      C       4.9758073851    -1.6781541027    -0.1591056011
    9      C       4.5234396565    -0.0857361005     1.4671530942
   10      N       3.6564093057    -1.9346729018    -0.4082276872
   11      N       4.8158613982     0.9610629133     2.2079974434
   12      C       3.1718088829    -0.3461255528     1.2717903932
   13      C       2.8129214404    -1.4186701180     0.4469789243
   14      S       3.3986864465     1.5457920380     2.7607179940
   15      N       2.3736567879     0.4528200836     2.0063570024
   16      C       1.4518478903    -1.8871571888     0.2098404505
   17      S       0.9099181169    -2.4170312392    -1.4362128936
   18      C       0.4707793662    -2.0756114787     1.1999573788
   19      C      -0.6730586458    -2.9868662993    -0.7255135387
   20      S       0.5651234227    -2.0846886629     2.9443193836
   21      C      -0.6724232550    -2.7009218827     0.6260508833
   22      C      -1.6505635406    -3.7824754736    -1.3476029393
   23      C      -0.9712546813    -3.0553854347     2.9559855109
   24      C      -1.4503741377    -3.2893326016     1.6661485950
   25      N      -2.9169472826    -3.4461702997    -1.1214701284
   26      S      -1.3601538634    -5.3202669840    -2.2354027422
   27      C      -3.7545942681    -4.4188790260    -1.6254684037
   28      C      -3.1380162997    -5.4351831420    -2.3052342110
   29      C      11.2439676622    -1.1721552723     1.0081741100
   30      H       9.7797365566     1.2419461239     1.3028582088
   31      H       7.3390488853     1.4541810330     1.2795980547
   32      H       7.2584318991    -2.8390193593     0.6588321618
   33      H       5.6643713471    -2.3019330507    -0.7276418746
   34      H      -1.4581660938    -3.3597121351     3.8729154623
   35      H      -2.3745316817    -3.8002861776     1.4228457444
   36      H      -4.8329097771    -4.3757771188    -1.5423607099
   37      H      -3.6318297111    -6.1954460051    -2.8964175106
   38      H      11.8492002234    -0.3102711747     1.3145453703
   39      C      11.7563120382    -1.3966895885    -0.4687560106
   40      H      11.5163493278    -2.0365990348     1.6271847801
   41      H      11.4796202616    -0.4864711223    -1.0160721939
   42      H      11.3598761867    -2.2269397790    -1.0666015064
   43      C      13.2633621467    -1.5953656728    -0.3476742860
   44      H      13.6122688804    -1.4726731873     0.6851333656
   45      C      14.0672621369    -0.6634569139    -1.2553305376
   46      H      13.4952463960    -2.6305551558    -0.6255905127
   47      H      13.5422367536    -0.6612948323    -2.2179273754
   48      H      15.0576893907    -1.1033409445    -1.4243893868
   49      C      14.1682432974     0.7506950322    -0.5755871459
   50      H      13.1820262751     1.2304635950    -0.5374805705
   51      C      15.1843554277     1.5531130516    -1.4319973635
   52      H      14.5607649606     0.6612321005     0.4446579854
   53      H      16.1780155572     1.0914169393    -1.3829030977
   54      H      15.2804989305     2.5533504241    -0.9896088175
   55      H      14.9280727669     1.7200446041    -2.4851445776
   56      C     -10.0042873072     1.6135343839     0.4397140020
   57      C      -9.1347951079     1.4028382545     1.5133971286
   58      N      -9.5825792159     2.1501940144    -0.7041232796
   59      C      -7.7332800690     1.5848400196     1.2420597862
   60      C      -8.2636588601     2.3915568364    -0.9264363091
   61      C      -7.2935981407     2.0975287221     0.0317143412
   62      C      -5.8329132472     2.1723948781    -0.3199342057
   63      C      -5.1871661214     3.3606225429    -0.5187574092
   64      C      -4.9614335057     1.0558498376    -0.2207816327
   65      N      -3.8786498445     3.4660910344    -0.6878211562
   66      N      -5.3328381764    -0.2188887307     0.0564640222
   67      C      -3.6005076635     1.2400260516    -0.3158498942
   68      C      -3.0203340084     2.4744752873    -0.5454900789
   69      S      -3.9807700649    -1.0153870008     0.4003263893
   70      N      -2.8884365028     0.1232873846     0.0457886154
   71      C      -1.5755827945     2.6469001649    -0.5773427320
   72      S      -0.3336801234     1.3968980655    -1.0245289428
   73      C      -0.9738002975     3.8508230612    -0.4151191642
   74      C       1.0009424176     2.5764701455    -0.9450973293
   75      S      -1.5910955678     5.4603529538    -0.1421465025
   76      C       0.3865180693     3.8087209034    -0.6555653105
   77      C       2.3449468919     2.3847467646    -1.3042757228
   78      C       0.0531377994     6.0793911261    -0.4251453989
   79      C       0.9618068585     5.0987227642    -0.6928749362
   80      N       3.3017872270     3.0682530405    -0.6348268867
   81      S       2.8909799831     0.9038087700    -2.1491529442
   82      C       4.5259908612     2.4985728903    -0.7917790720
   83      C       4.4637569796     1.3751017722    -1.5518051181
   84      C     -11.5378213933     1.4455624685     0.5893791023
   85      H      -9.5009841081     0.8805229082     2.3928164228
   86      H      -7.0785776677     1.4275372335     2.0947101244
   87      H      -7.9970472381     2.8059530377    -1.8975115026
   88      H      -5.7038397617     4.3165012417    -0.5910779628
   89      H       0.2021281884     7.1485389823    -0.4890102993
   90      H       2.0201814716     5.2018902139    -0.9020367292
   91      H       5.4851461284     2.8248555862    -0.4134435387
   92      H       5.3476077044     0.8288226416    -1.8556323843
   93      H     -11.8626096294     1.6907205208     1.6081058229
   94      C     -11.9840274763    -0.0167627480     0.1806211143
   95      H     -12.0924155896     2.2544776343     0.0993244810
   96      H     -11.4534987902    -0.8108467354     0.7208941324
   97      H     -11.5925346525    -0.1537246959    -0.8349274043
   98      C     -13.5437589649    -0.1234502696     0.2266912381
   99      H     -13.9446870552     0.1760323664     1.2039382985
  100      C     -13.9530742823    -1.5219293411    -0.3446390145
  101      H     -13.9841563908     0.6384227713    -0.4271899261
  102      H     -13.3473028233    -1.8393523750    -1.2022936986
  103      H     -15.0035327796    -1.5205343368    -0.6607086261
  104      C     -13.7179631509    -2.6133535432     0.7433522387
  105      H     -12.8440770088    -2.4592356806     1.3873745171
  106      C     -13.6432844879    -4.0559327900     0.1782670999
  107      H     -14.4755728339    -2.7421231768     1.5256858950
  108      H     -14.6232484000    -4.3700967196    -0.2004369486
  109      H     -13.3880260964    -4.7553005023     0.9840548862
  110      H     -12.9085741210    -4.0958157731    -0.6348872670
 ----------------------------------------------------------------

    9   -5663.4922357141      9.25E-06 Convergence criterion met
 Total energy in the final basis set = -5663.4922357141

                    Orbital Energies (a.u.)
 --------------------------------------------------------------

 Alpha MOs
 -- Occupied --
-88.988 -88.976 -88.932 -88.928 -88.927 -88.918 -88.917 -88.901
-14.389 -14.381 -14.366 -14.362 -14.352 -14.352 -14.345 -14.330
-14.324 -14.319 -10.274 -10.269 -10.259 -10.255 -10.250 -10.246
-10.244 -10.240 -10.239 -10.237 -10.236 -10.236 -10.234 -10.234
-10.233 -10.232 -10.231 -10.230 -10.228 -10.225 -10.224 -10.224
-10.222 -10.222 -10.222 -10.222 -10.217 -10.215 -10.214 -10.214
-10.211 -10.207 -10.206 -10.205 -10.203 -10.197 -10.196 -10.190
-10.187 -10.184 -10.184 -10.183 -10.182 -10.182 -10.181 -10.178
-10.175 -10.175 -10.172 -10.169  -8.043  -8.031  -7.992  -7.987
 -7.985  -7.976  -7.976  -7.961  -6.008  -6.003  -6.001  -5.996
 -5.990  -5.989  -5.956  -5.953  -5.951  -5.949  -5.949  -5.948
 -5.946  -5.944  -5.941  -5.941  -5.940  -5.937  -5.936  -5.932
 -5.932  -5.925  -5.922  -5.917  -1.040  -1.027  -0.974  -0.970
 -0.964  -0.959  -0.952  -0.930  -0.910  -0.906  -0.902  -0.886
 -0.844  -0.835  -0.834  -0.825  -0.814  -0.808  -0.804  -0.803
 -0.800  -0.800  -0.797  -0.790  -0.787  -0.776  -0.772  -0.765
 -0.751  -0.745  -0.744  -0.736  -0.722  -0.716  -0.714  -0.704
 -0.696  -0.689  -0.679  -0.668  -0.660  -0.650  -0.642  -0.641
 -0.636  -0.634  -0.627  -0.624  -0.613  -0.606  -0.601  -0.595
 -0.592  -0.591  -0.584  -0.582  -0.579  -0.572  -0.572  -0.571
 -0.558  -0.549  -0.547  -0.533  -0.523  -0.518  -0.513  -0.512
 -0.505  -0.502  -0.501  -0.493  -0.489  -0.484  -0.483  -0.476
 -0.474  -0.471  -0.463  -0.463  -0.460  -0.456  -0.453  -0.450
 -0.444  -0.442  -0.440  -0.439  -0.434  -0.430  -0.429  -0.427
 -0.426  -0.423  -0.422  -0.421  -0.417  -0.415  -0.414  -0.413
 -0.409  -0.405  -0.404  -0.400  -0.399  -0.398  -0.396  -0.396
 -0.390  -0.389  -0.388  -0.385  -0.384  -0.383  -0.382  -0.382
 -0.381  -0.378  -0.376  -0.368  -0.367  -0.362  -0.362  -0.356
 -0.352  -0.351  -0.351  -0.349  -0.343  -0.340  -0.340  -0.338
 -0.337  -0.335  -0.332  -0.331  -0.328  -0.326  -0.325  -0.321
 -0.317  -0.314  -0.303  -0.303  -0.302  -0.300  -0.297  -0.296
 -0.294  -0.293  -0.291  -0.287  -0.287  -0.282  -0.281  -0.276
 -0.272  -0.271  -0.258  -0.256  -0.252  -0.252  -0.248  -0.247
 -0.243  -0.238  -0.235  -0.230  -0.200  -0.186

          Ground-State Mulliken Net Atomic Charges

     Atom                 Charge (a.u.)
  ----------------------------------------
      1 C                     0.275003
      2 C                    -0.129800
      3 N                    -0.472534
      4 C                    -0.067507
      5 C                     0.053265
      6 C                     0.037848
      7 C                     0.076841
      8 C                     0.022016
      9 C                     0.224545
     10 N                    -0.495004
     11 N                    -0.562745
     12 C                     0.266150
     13 C                     0.270835
     14 S                     0.616193
     15 N                    -0.558887
     16 C                    -0.223349
     17 S                     0.313126
     18 C                    -0.103491
     19 C                    -0.192174
     20 S                     0.267122
     21 C                     0.153036
     22 C                     0.012316
     23 C                    -0.304110
     24 C                    -0.063593
     25 N                    -0.414717
     26 S                     0.269844
     27 C                     0.123499
     28 C                    -0.298322
     29 C                    -0.230738
     30 H                     0.087849
     31 H                     0.112246
     32 H                     0.102520
     33 H                     0.111737
     34 H                     0.134208
     35 H                     0.113178
     36 H                     0.120343
     37 H                     0.133539
     38 H                     0.099120
     39 C                    -0.164871
     40 H                     0.124526
     41 H                     0.090806
     42 H                     0.113061
     43 C                    -0.188342
     44 H                     0.091067
     45 C                    -0.169379
     46 H                     0.087567
     47 H                     0.093417
     48 H                     0.088078
     49 C                    -0.173665
     50 H                     0.095714
     51 C                    -0.319650
     52 H                     0.097619
     53 H                     0.105493
     54 H                     0.091375
     55 H                     0.105677
     56 C                     0.262135
     57 C                    -0.123655
     58 N                    -0.473677
     59 C                    -0.064049
     60 C                     0.072577
     61 C                     0.041720
     62 C                     0.003868
     63 C                     0.054177
     64 C                     0.236173
     65 N                    -0.528742
     66 N                    -0.560841
     67 C                     0.147648
     68 C                     0.330703
     69 S                     0.647596
     70 N                    -0.558213
     71 C                    -0.226779
     72 S                     0.341666
     73 C                    -0.080948
     74 C                    -0.189876
     75 S                     0.269425
     76 C                     0.120687
     77 C                     0.008215
     78 C                    -0.325451
     79 C                    -0.032091
     80 N                    -0.437438
     81 S                     0.275683
     82 C                     0.134334
     83 C                    -0.312169
     84 C                    -0.221963
     85 H                     0.093171
     86 H                     0.097553
     87 H                     0.106593
     88 H                     0.110966
     89 H                     0.125188
     90 H                     0.116573
     91 H                     0.121684
     92 H                     0.125601
     93 H                     0.090614
     94 C                    -0.179483
     95 H                     0.114474
     96 H                     0.099634
     97 H                     0.114544
     98 C                    -0.180628
     99 H                     0.095656
    100 C                    -0.174209
    101 H                     0.093485
    102 H                     0.099785
    103 H                     0.091162
    104 C                    -0.178675
    105 H                     0.093356
    106 C                    -0.322550
    107 H                     0.090916
    108 H                     0.101973
    109 H                     0.095831
    110 H                     0.098167
  ----------------------------------------
  Sum of atomic charges =     0.000000

                    Cartesian Multipole Moments
 -----------------------------------------------------------------
    Charge (ESU x 10^10)
                 0.0000
    Dipole Moment (Debye)
         X       2.4283      Y      -2.4310      Z       1.8088
       Tot       3.8831
    Quadrupole Moments (Debye-Ang)
        XX    -414.1917     XY      33.1404     YY    -434.7945
        XZ     -15.2570     YZ       7.8479     ZZ    -436.5386

 Total job time:  92.58s(wall), 1098.40s(cpu)
        *  Thank you very much for using Q-Chem.  Have a nice day.  *
