 Q-Chem 4.4, Q-Chem, Inc., Pleasanton, CA (2016)
 Q-Chem 4.4.2 for Intel X86 Linux

User input:
--------------------------------------------------------------
$comment
SP
$end

$rem
MEM_STATIC 5000
MEM_TOTAL 20000
JOBTYPE SP
EXCHANGE B3LYP
BASIS 6-31g(d,p)
$end

$molecule
0 1
C          -3.255000    -13.671000    -14.522000
C          -2.389000    -12.852000    -15.312000
N          -3.274000    -13.520000    -13.220000
C          -1.560000    -11.933000    -14.715000
C          -2.513000    -12.588000    -12.650000
C          -1.601000    -11.747000    -13.296000
C          -0.789000    -10.824000    -12.434000
C          -1.434000    -10.226000    -11.368000
C           0.512000    -10.394000    -12.621000
N          -0.891000     -9.351000    -10.469000
N           1.191000    -10.646000    -13.719000
C           1.113000     -9.537000    -11.706000
C           0.405000     -9.198000    -10.547000
S           2.634000     -9.908000    -13.549000
N           2.377000     -9.215000    -12.043000
C           0.919000     -8.392000     -9.445000
S          -0.120000     -7.165000     -8.609000
C           2.188000     -8.533000     -8.855000
C           1.196000     -6.903000     -7.370000
S           3.411000     -9.771000     -9.008000
C           2.275000     -7.698000     -7.705000
C           1.096000     -6.207000     -6.153000
C           4.065000     -9.230000     -7.401000
C           3.338000     -8.161000     -6.875000
N           2.133000     -5.443000     -5.823000
S          -0.192000     -6.415000     -4.914000
C           1.982000     -4.985000     -4.531000
C           0.804000     -5.321000     -3.919000
C          -4.238000    -14.663000    -15.023000
H          -2.411000    -12.975000    -16.391000
H          -0.880000    -11.371000    -15.349000
H          -2.567000    -12.656000    -11.564000
H          -2.457000    -10.521000    -11.138000
H           4.945000     -9.673000     -6.954000
H           3.569000     -7.637000     -5.955000
H           2.712000     -4.360000     -4.033000
H           0.443000     -4.929000     -2.977000
H          -4.124000    -14.890000    -16.090000
C          -5.703000    -14.074000    -14.990000
H          -4.206000    -15.601000    -14.454000
H          -5.666000    -13.163000    -15.601000
H          -6.149000    -13.766000    -14.036000
C          -6.590000    -15.164000    -15.582000
H          -6.006000    -16.025000    -15.930000
C          -7.469000    -14.666000    -16.730000
H          -7.244000    -15.542000    -14.787000
H          -7.857000    -13.693000    -16.406000
H          -8.327000    -15.341000    -16.836000
C          -6.609000    -14.609000    -18.045000
H          -5.838000    -13.832000    -17.967000
C          -7.618000    -14.329000    -19.191000
H          -6.124000    -15.575000    -18.231000
H          -8.324000    -15.162000    -19.294000
H          -7.053000    -14.278000    -20.131000
H          -8.187000    -13.393000    -19.138000
C           1.371000    -10.386000     -4.700000
C           0.095000     -9.967000     -4.230000
N           1.620000    -10.859000     -5.960000
C          -0.967000    -10.119000     -5.159000
C           0.612000    -10.985000     -6.812000
C          -0.716000    -10.706000     -6.440000
C          -1.775000    -10.778000     -7.457000
C          -1.962000    -12.018000     -8.099000
C          -2.649000     -9.701000     -7.821000
N          -2.930000    -12.239000     -8.994000
N          -2.604000     -8.408000     -7.407000
C          -3.665000     -9.929000     -8.690000
C          -3.777000    -11.210000     -9.293000
S          -3.899000     -7.620000     -8.038000
N          -4.497000     -8.869000     -8.904000
C          -4.894000    -11.515000    -10.216000
S          -5.745000    -10.399000    -11.284000
C          -5.459000    -12.792000    -10.318000
C          -6.799000    -11.716000    -11.892000
S          -5.060000    -14.226000     -9.487000
C          -6.424000    -12.882000    -11.260000
C          -7.926000    -11.467000    -12.708000
C          -6.359000    -15.033000    -10.436000
C          -7.050000    -14.183000    -11.252000
N          -8.345000    -12.502000    -13.483000
S          -8.486000     -9.936000    -13.165000
C          -9.397000    -12.045000    -14.340000
C          -9.577000    -10.728000    -14.339000
C           2.629000    -10.190000     -3.814000
H          -0.050000     -9.534000     -3.245000
H          -1.972000     -9.737000     -5.003000
H           0.913000    -11.239000     -7.827000
H          -1.477000    -12.971000     -7.892000
H          -6.436000    -16.109000    -10.346000
H          -7.891000    -14.477000    -11.869000
H          -9.885000    -12.768000    -14.980000
H         -10.270000    -10.136000    -14.922000
H           3.470000    -10.221000     -4.517000
C           2.663000    -11.309000     -2.704000
H           2.582000     -9.149000     -3.471000
H           2.729000    -12.322000     -3.121000
H           1.681000    -11.282000     -2.215000
C           3.807000    -11.075000     -1.730000
H           4.715000    -11.369000     -2.272000
C           3.575000    -11.958000     -0.502000
H           3.852000    -10.041000     -1.367000
H           3.641000    -12.960000     -0.944000
H           2.567000    -11.761000     -0.118000
C           4.635000    -11.912000      0.608000
H           4.639000    -10.884000      0.992000
C           6.037000    -12.254000      0.034000
H           4.372000    -12.603000      1.418000
H           6.394000    -11.731000     -0.862000
H           6.049000    -13.335000     -0.152000
H           6.725000    -12.114000      0.876000
$end

--------------------------------------------------------------

             Standard Nuclear Orientation (Angstroms)
    I     Atom           X                Y                Z
 ----------------------------------------------------------------
    1      C       5.3014988757     2.0051353677     1.8761489676
    2      C       5.0947355455     3.2494926667     1.2026203210
    3      N       4.3362277174     1.1186145089     1.9025754277
    4      C       3.8868200460     3.5315262353     0.6113435564
    5      C       3.1877576284     1.3709138135     1.2780704113
    6      C       2.8420186470     2.5526400892     0.6144978334
    7      C       1.4532525233     2.6421735680     0.0509116289
    8      C       0.9379407528     1.5043557199    -0.5405351766
    9      C       0.6391099227     3.7546473391    -0.0588332320
   10      N      -0.2923218987     1.3688768809    -1.1208577528
   11      N       1.0623931199     4.9717032863     0.2052787826
   12      C      -0.6349353335     3.6486646996    -0.6051402567
   13      C      -1.1069993671     2.3772370263    -0.9516849432
   14      S      -0.1825260237     5.9731946468    -0.1156330136
   15      N      -1.2883590749     4.8262480391    -0.6409717060
   16      C      -2.4461437791     2.0758756335    -1.4457593857
   17      S      -2.7133818832     0.8683071038    -2.7702623271
   18      C      -3.6448618054     2.5817085340    -0.9113904398
   19      C      -4.5177613057     1.0042600373    -2.5225675568
   20      S      -3.9838148655     3.4564833521     0.5622655040
   21      C      -4.7530448181     1.9404423014    -1.5342885289
   22      C      -5.5169754213     0.1684495622    -3.0502957074
   23      C      -5.7044421274     2.8876100083     0.4256238403
   24      C      -5.9057565141     2.1027526318    -0.7107904399
   25      N      -6.6241440521     0.7686922214    -3.4767360588
   26      S      -5.5278676783    -1.6302754307    -3.0078839322
   27      C      -7.5805033324    -0.1777663828    -3.7790968324
   28      C      -7.1761997006    -1.4816015232    -3.6710389770
   29      C       6.5586018347     1.5390028952     2.5115753353
   30      H       5.9182639033     3.9569783149     1.1691673482
   31      H       3.7561697848     4.5102597523     0.1583411151
   32      H       2.4593363966     0.5854098044     1.4763680684
   33      H       1.5068065398     0.5771615271    -0.4843511460
   34      H      -6.4698634544     3.1799083396     1.1321292385
   35      H      -6.8567865633     1.6932628834    -1.0304730817
   36      H      -8.5745577250     0.0720177592    -4.1269369493
   37      H      -7.7285409918    -2.3482949899    -4.0103184088
   38      H       7.3144864373     2.3271861686     2.6136517529
   39      C       7.3137704769     0.5088757850     1.5827085750
   40      H       6.3816565371     1.0857785258     3.4953979984
   41      H       7.4840468048     1.0382430919     0.6364595451
   42      H       6.8298505510    -0.4356451432     1.3041448991
   43      C       8.6013181904     0.1651456707     2.3239261504
   44      H       8.7100215477     0.7446274608     3.2490561061
   45      C       9.8556028418     0.3563567953     1.4702533096
   46      H       8.5498854976    -0.8869808514     2.6289006733
   47      H       9.6085133615    -0.0538990729     0.4839035180
   48      H      10.6630450410    -0.2581345041     1.8867416503
   49      C      10.2358394517     1.8818882318     1.4545066745
   50      H       9.4767275198     2.4619609386     0.9145819301
   51      C      11.6306724555     1.9567338775     0.7772799614
   52      H      10.3196702107     2.2692003033     2.4772181505
   53      H      12.3812640852     1.4355733019     1.3838587773
   54      H      11.9315574605     3.0120842994     0.7436689408
   55      H      11.7043833907     1.5962180806    -0.2558033161
   56      C      -5.6116159177    -1.0174776885     1.2200081146
   57      C      -5.2459854088    -2.2242277852     0.5606860876
   58      N      -4.7369624212    -0.0231042861     1.5657432702
   59      C      -3.8568728118    -2.3765904812     0.3134194266
   60      C      -3.4448216261    -0.1862666165     1.3175614424
   61      C      -2.9376545125    -1.3772513698     0.7660672572
   62      C      -1.5087203276    -1.4599099345     0.4310021041
   63      C      -0.5928128340    -1.2756641466     1.4854687716
   64      C      -0.9777920634    -1.7443754905    -0.8703416344
   65      N       0.7302748300    -1.3894905316     1.3325878138
   66      N      -1.6530641713    -1.8713463277    -2.0421590206
   67      C       0.3592011093    -1.9114198917    -1.0250879563
   68      C       1.2100986056    -1.7031849421     0.0928233356
   69      S      -0.5826502749    -2.3068651347    -3.2086355353
   70      N       0.7599124990    -2.2691999553    -2.2792983885
   71      C       2.6713505891    -1.9140436930    -0.0208614385
   72      S       3.6835326816    -1.6985014791    -1.4489055435
   73      C       3.4506824615    -2.3755725435     1.0468421499
   74      C       5.1506882976    -2.1740435328    -0.5343656844
   75      S       2.9840639939    -2.7878540894     2.6337917813
   76      C       4.7703438091    -2.4427988283     0.7628288504
   77      C       6.3919912773    -2.4126081796    -1.1670107838
   78      C       4.7158647766    -3.1606356312     2.9518341861
   79      C       5.5160521830    -3.0258189734     1.8530341208
   80      N       7.4968117099    -2.2867472334    -0.3853831013
   81      S       6.6664362139    -2.3628075180    -2.8369239165
   82      C       8.6635253220    -2.4232464468    -1.2040095801
   83      C       8.4229318474    -2.4298990077    -2.5112817490
   84      C      -7.1071110468    -0.6893826416     1.4686523563
   85      H      -5.9785744136    -2.9595453882     0.2423146492
   86      H      -3.4288214546    -3.1762096013    -0.2846326601
   87      H      -2.8387633698     0.6996727399     1.4996241976
   88      H      -0.7952298520    -1.1548638973     2.5488208538
   89      H       4.9905107231    -3.3797129904     3.9757383391
   90      H       6.5775256728    -3.2437658818     1.8396484690
   91      H       9.6312647118    -2.4099051250    -0.7205062372
   92      H       9.1263299402    -2.4796981098    -3.3318627459
   93      H      -7.1312881111     0.3970831308     1.6151398811
   94      C      -7.6257563630    -1.5268632152     2.6995261617
   95      H      -7.6044711223    -0.8586212510     0.5055686380
   96      H      -7.0948680364    -1.2907674405     3.6305634165
   97      H      -7.3562879667    -2.5702625144     2.4924544693
   98      C      -9.1218393371    -1.3378729295     2.8949395865
   99      H      -9.2338228893    -0.3373587736     3.3320838509
  100      C      -9.6187484464    -2.4264842083     3.8486186838
  101      H      -9.6905883078    -1.4546192535     1.9644317122
  102      H      -9.0728397506    -2.1723150421     4.7657368500
  103      H      -9.3029312782    -3.4011273276     3.4579022826
  104      C     -11.1082212001    -2.4089202398     4.2214167831
  105      H     -11.6642175999    -2.5703023797     3.2891722827
  106      C     -11.5004398501    -1.0325668359     4.8246247392
  107      H     -11.3363258031    -3.2170815956     4.9268198686
  108      H     -11.2253342369    -0.1134884866     4.2922659416
  109      H     -11.0828454435    -0.9994816464     5.8384399500
  110      H     -12.5843354991    -1.0935465667     4.9774635255
 ----------------------------------------------------------------

   11   -5663.4974826257      5.51E-06 Convergence criterion met
 Total energy in the final basis set = -5663.4974826257

                    Orbital Energies (a.u.)
 --------------------------------------------------------------

 Alpha MOs
 -- Occupied --
-88.990 -88.985 -88.925 -88.923 -88.922 -88.918 -88.907 -88.901
-14.386 -14.381 -14.377 -14.376 -14.348 -14.348 -14.341 -14.340
-14.324 -14.310 -10.265 -10.263 -10.259 -10.253 -10.251 -10.250
-10.247 -10.246 -10.237 -10.235 -10.235 -10.235 -10.230 -10.229
-10.229 -10.228 -10.227 -10.227 -10.225 -10.225 -10.224 -10.222
-10.220 -10.219 -10.218 -10.216 -10.216 -10.212 -10.209 -10.208
-10.208 -10.203 -10.203 -10.202 -10.201 -10.192 -10.191 -10.189
-10.184 -10.184 -10.180 -10.179 -10.176 -10.175 -10.173 -10.173
-10.169 -10.169 -10.164 -10.159  -8.045  -8.040  -7.987  -7.982
 -7.980  -7.975  -7.966  -7.962  -6.010  -6.006  -6.005  -6.003
 -6.000  -5.998  -5.951  -5.947  -5.946  -5.945  -5.944  -5.943
 -5.941  -5.940  -5.939  -5.937  -5.936  -5.932  -5.931  -5.928
 -5.926  -5.922  -5.922  -5.918  -1.037  -1.031  -0.969  -0.959
 -0.957  -0.954  -0.938  -0.932  -0.912  -0.905  -0.893  -0.890
 -0.840  -0.836  -0.829  -0.823  -0.810  -0.808  -0.804  -0.799
 -0.797  -0.793  -0.792  -0.789  -0.784  -0.775  -0.765  -0.762
 -0.751  -0.741  -0.737  -0.734  -0.722  -0.713  -0.709  -0.705
 -0.688  -0.686  -0.676  -0.673  -0.653  -0.651  -0.643  -0.639
 -0.634  -0.631  -0.623  -0.615  -0.607  -0.603  -0.593  -0.591
 -0.586  -0.582  -0.581  -0.578  -0.577  -0.570  -0.560  -0.560
 -0.550  -0.549  -0.538  -0.537  -0.518  -0.516  -0.510  -0.507
 -0.501  -0.500  -0.496  -0.494  -0.488  -0.478  -0.477  -0.475
 -0.470  -0.467  -0.466  -0.464  -0.459  -0.454  -0.448  -0.446
 -0.442  -0.440  -0.434  -0.432  -0.431  -0.430  -0.429  -0.426
 -0.421  -0.419  -0.417  -0.416  -0.414  -0.413  -0.411  -0.409
 -0.406  -0.404  -0.403  -0.401  -0.397  -0.396  -0.393  -0.392
 -0.391  -0.387  -0.385  -0.383  -0.380  -0.380  -0.378  -0.377
 -0.372  -0.370  -0.370  -0.369  -0.366  -0.357  -0.352  -0.350
 -0.349  -0.348  -0.347  -0.345  -0.343  -0.343  -0.340  -0.337
 -0.334  -0.332  -0.330  -0.328  -0.327  -0.323  -0.321  -0.318
 -0.311  -0.308  -0.305  -0.304  -0.302  -0.299  -0.298  -0.295
 -0.290  -0.287  -0.287  -0.282  -0.280  -0.279  -0.276  -0.274
 -0.273  -0.272  -0.263  -0.260  -0.254  -0.249  -0.245  -0.242
 -0.237  -0.235  -0.227  -0.223  -0.191  -0.190

          Ground-State Mulliken Net Atomic Charges

     Atom                 Charge (a.u.)
  ----------------------------------------
      1 C                     0.275192
      2 C                    -0.132222
      3 N                    -0.477250
      4 C                    -0.060243
      5 C                     0.047705
      6 C                     0.033525
      7 C                     0.071107
      8 C                     0.049741
      9 C                     0.213304
     10 N                    -0.527065
     11 N                    -0.550566
     12 C                     0.250046
     13 C                     0.281113
     14 S                     0.593991
     15 N                    -0.557850
     16 C                    -0.235009
     17 S                     0.321735
     18 C                    -0.115605
     19 C                    -0.190548
     20 S                     0.250452
     21 C                     0.151043
     22 C                     0.000791
     23 C                    -0.280835
     24 C                    -0.044359
     25 N                    -0.406005
     26 S                     0.261530
     27 C                     0.117611
     28 C                    -0.303704
     29 C                    -0.231168
     30 H                     0.082850
     31 H                     0.108444
     32 H                     0.125533
     33 H                     0.105907
     34 H                     0.128484
     35 H                     0.109300
     36 H                     0.112656
     37 H                     0.125477
     38 H                     0.092387
     39 C                    -0.171885
     40 H                     0.118864
     41 H                     0.084123
     42 H                     0.143483
     43 C                    -0.182304
     44 H                     0.083986
     45 C                    -0.175707
     46 H                     0.085266
     47 H                     0.097830
     48 H                     0.079634
     49 C                    -0.172084
     50 H                     0.097752
     51 C                    -0.318552
     52 H                     0.096017
     53 H                     0.102716
     54 H                     0.089531
     55 H                     0.101704
     56 C                     0.241023
     57 C                    -0.103164
     58 N                    -0.464649
     59 C                    -0.071516
     60 C                     0.095348
     61 C                     0.022264
     62 C                     0.001130
     63 C                     0.050484
     64 C                     0.317209
     65 N                    -0.493446
     66 N                    -0.585346
     67 C                     0.240204
     68 C                     0.216914
     69 S                     0.615572
     70 N                    -0.570342
     71 C                    -0.217033
     72 S                     0.314849
     73 C                    -0.093060
     74 C                    -0.225729
     75 S                     0.272974
     76 C                     0.167799
     77 C                     0.050121
     78 C                    -0.302648
     79 C                    -0.050098
     80 N                    -0.446998
     81 S                     0.270499
     82 C                     0.129002
     83 C                    -0.307537
     84 C                    -0.230958
     85 H                     0.097923
     86 H                     0.105181
     87 H                     0.110661
     88 H                     0.124474
     89 H                     0.125904
     90 H                     0.125960
     91 H                     0.120482
     92 H                     0.134191
     93 H                     0.114953
     94 C                    -0.179957
     95 H                     0.104050
     96 H                     0.108747
     97 H                     0.091631
     98 C                    -0.168050
     99 H                     0.098680
    100 C                    -0.168317
    101 H                     0.087647
    102 H                     0.084827
    103 H                     0.083467
    104 C                    -0.178098
    105 H                     0.088980
    106 C                    -0.321754
    107 H                     0.094818
    108 H                     0.110231
    109 H                     0.103027
    110 H                     0.099605
  ----------------------------------------
  Sum of atomic charges =     0.000000

                    Cartesian Multipole Moments
 -----------------------------------------------------------------
    Charge (ESU x 10^10)
                 0.0000
    Dipole Moment (Debye)
         X      -0.0457      Y      -2.3523      Z      -0.9456
       Tot       2.5357
    Quadrupole Moments (Debye-Ang)
        XX    -393.7193     XY      16.2243     YY    -431.8455
        XZ     -10.7439     YZ      11.5681     ZZ    -438.7720

 Total job time:  127.99s(wall), 1545.12s(cpu)
        *  Thank you very much for using Q-Chem.  Have a nice day.  *
