 Q-Chem 4.4, Q-Chem, Inc., Pleasanton, CA (2016)
 Q-Chem 4.4.2 for Intel X86 Linux

User input:
--------------------------------------------------------------
$comment
SP
$end

$rem
MEM_STATIC 5000
MEM_TOTAL 20000
JOBTYPE SP
EXCHANGE B3LYP
BASIS 6-31g(d,p)
$end

$molecule
0 1
C          20.055000     12.988000     -7.362000
C          21.378000     12.522000     -7.455000
N          19.042000     12.690000     -8.255000
C          21.696000     11.549000     -8.382000
C          19.451000     11.913000     -9.309000
C          20.707000     11.247000     -9.366000
C          21.034000     10.311000    -10.451000
C          22.410000     10.094000    -10.797000
C          20.107000      9.480000    -11.181000
N          22.875000      9.160000    -11.716000
N          18.797000      9.515000    -11.027000
C          20.573000      8.564000    -12.137000
C          21.920000      8.480000    -12.415000
S          18.198000      8.446000    -12.111000
N          19.611000      7.824000    -12.719000
C          22.510000      7.592000    -13.474000
S          21.573000      6.699000    -14.684000
C          23.819000      7.354000    -13.701000
C          23.044000      6.485000    -15.742000
S          25.312000      7.700000    -12.816000
C          24.128000      6.711000    -14.919000
C          23.084000      5.768000    -16.976000
C          26.293000      7.092000    -14.189000
C          25.474000      6.517000    -15.143000
N          24.194000      5.739000    -17.650000
S          21.595000      5.249000    -17.838000
C          23.966000      5.355000    -18.947000
C          22.676000      4.929000    -19.174000
C          19.715000     14.123000     -6.270000
H          22.163000     12.851000     -6.780000
H          22.744000     11.268000     -8.350000
H          18.756000     11.809000    -10.141000
H          23.184000     10.713000    -10.346000
H          27.369000      7.066000    -14.083000
H          25.909000      5.995000    -15.987000
H          24.692000      5.505000    -19.735000
H          22.264000      4.678000    -20.142000
H          20.084000     15.025000     -6.773000
C          20.406000     13.995000     -4.908000
H          18.623000     14.036000     -6.212000
H          20.114000     14.844000     -4.277000
H          21.464000     14.152000     -5.152000
C          20.199000     12.605000     -4.270000
H          19.169000     12.358000     -3.987000
C          21.188000     12.460000     -3.053000
H          20.464000     11.857000     -5.028000
H          20.991000     13.326000     -2.409000
H          22.181000     12.712000     -3.445000
C          20.903000     11.049000     -2.430000
H          21.326000     10.977000     -1.421000
C          21.469000      9.921000     -3.294000
H          19.823000     10.942000     -2.270000
H          22.556000     10.071000     -3.310000
H          21.004000      9.813000     -4.281000
H          21.372000      8.899000     -2.908000
C          13.007000      0.189000     -9.485000
C          11.999000      1.041000     -8.915000
N          14.145000      0.645000    -10.064000
C          12.196000      2.418000     -8.942000
C          14.229000      1.964000    -10.140000
C          13.309000      2.902000     -9.666000
C          13.459000      4.449000     -9.660000
C          12.288000      5.199000     -9.898000
C          14.688000      5.113000     -9.775000
N          12.371000      6.522000    -10.059000
N          15.910000      4.516000     -9.771000
C          14.711000      6.471000     -9.984000
C          13.525000      7.207000    -10.124000
S          16.944000      5.729000     -9.910000
N          15.974000      6.976000    -10.092000
C          13.506000      8.614000    -10.386000
S          14.803000      9.699000    -10.698000
C          12.436000      9.387000    -10.068000
C          13.959000     11.156000    -10.361000
S          10.797000      8.992000     -9.582000
C          12.674000     10.743000    -10.025000
C          14.415000     12.480000    -10.583000
C          10.530000     10.716000     -9.295000
C          11.631000     11.512000     -9.464000
N          13.598000     13.500000    -10.595000
S          16.125000     12.914000    -10.631000
C          14.257000     14.707000    -10.644000
C          15.624000     14.536000    -10.475000
C          12.946000     -1.324000     -9.451000
H          11.126000      0.643000     -8.407000
H          11.544000      3.094000     -8.397000
H          15.072000      2.337000    -10.720000
H          11.328000      4.692000     -9.806000
H           9.554000     11.066000     -8.987000
H          11.643000     12.569000     -9.226000
H          13.699000     15.634000    -10.624000
H          16.394000     15.291000    -10.565000
H          11.905000     -1.658000     -9.532000
C          13.541000     -1.907000     -8.189000
H          13.410000     -1.729000    -10.359000
H          13.290000     -1.217000     -7.374000
H          14.631000     -1.834000     -8.285000
C          13.145000     -3.398000     -7.954000
H          12.121000     -3.380000     -7.563000
C          14.062000     -4.216000     -7.077000
H          13.176000     -3.902000     -8.928000
H          14.093000     -3.741000     -6.088000
H          15.043000     -4.291000     -7.561000
C          13.522000     -5.634000     -6.843000
H          12.491000     -5.560000     -6.475000
C          14.496000     -6.304000     -5.850000
H          13.536000     -6.190000     -7.788000
H          14.353000     -7.392000     -5.821000
H          14.316000     -5.860000     -4.864000
H          15.548000     -6.087000     -6.073000
$end

--------------------------------------------------------------

             Standard Nuclear Orientation (Angstroms)
    I     Atom           X                Y                Z
 ----------------------------------------------------------------
    1      C       5.1614544544    -3.8122372756    -2.4067298231
    2      C       5.6314758241    -2.7271016870    -3.1667921010
    3      N       4.4747580470    -3.7077636302    -1.2109224383
    4      C       5.2482891913    -1.4428142886    -2.8336916915
    5      C       4.3212317355    -2.4152000374    -0.7777538449
    6      C       4.5898838778    -1.2705307479    -1.5789399930
    7      C       4.2695604633     0.0868126852    -1.1149769396
    8      C       5.0097306677     1.1987499707    -1.6402621399
    9      C       3.1961443003     0.4631289692    -0.2267462290
   10      N       4.7451787329     2.5394887000    -1.3841880613
   11      N       2.3916992164    -0.3942808666     0.3722174430
   12      C       2.9528089140     1.8148199195     0.0628525708
   13      C       3.7649701501     2.7928491254    -0.4687506636
   14      S       1.4012459419     0.5115960817     1.3076356732
   15      N       1.9007892981     2.0331754290     0.8736198611
   16      C       3.6380245515     4.2574297497    -0.1572809057
   17      S       2.5986569217     4.9375026948     1.1063383879
   18      C       4.2992039034     5.2758411904    -0.7466313974
   19      C       3.5296555079     6.5066476664     1.1011720785
   20      S       5.3185426656     5.4220292220    -2.1859255117
   21      C       4.2173569555     6.5251536154    -0.0947314497
   22      C       3.2289408287     7.6549885908     1.8944745448
   23      C       5.7039604020     7.1230421333    -1.7674016244
   24      C       4.9344871309     7.5369918386    -0.6959266940
   25      N       4.0105232595     8.6900027195     1.8231186952
   26      S       2.0748919089     7.6003551829     3.2709600265
   27      C       3.8129418555     9.5238935460     2.8942100444
   28      C       2.7361839805     9.1671620273     3.6755167078
   29      C       5.6254624041    -5.2987127238    -2.8207061083
   30      H       6.2420973453    -2.8564091636    -4.0558994817
   31      H       5.6690117391    -0.6954286114    -3.4990458733
   32      H       3.9674337866    -2.2782933423     0.2431029366
   33      H       5.8774655156     1.0189076144    -2.2729792651
   34      H       6.3242825916     7.6935382781    -2.4452087723
   35      H       4.9544496904     8.5742289682    -0.3832197493
   36      H       4.5175170495    10.2982018624     3.1672309725
   37      H       2.4678062033     9.6301664285     4.6153939834
   38      H       6.6369398222    -5.3353933914    -2.3984005776
   39      C       5.7015344325    -5.6018826075    -4.3211094101
   40      H       4.8784798210    -5.9047201273    -2.2932887713
   41      H       6.0595256540    -6.6297219110    -4.4611617275
   42      H       6.5155012849    -4.9510186085    -4.6637214617
   43      C       4.3896398457    -5.2606018800    -5.0589800343
   44      H       3.5165369690    -5.8643779910    -4.7848563863
   45      C       4.6618831106    -5.3008825433    -6.6096237951
   46      H       4.1159532609    -4.2357724443    -4.7777092020
   47      H       5.0888053248    -6.2918365449    -6.8077363634
   48      H       5.5360880202    -4.6592761309    -6.7749234851
   49      C       3.2887721507    -4.9832620276    -7.2980702345
   50      H       3.3081597815    -5.2722055572    -8.3555813486
   51      C       2.9269869355    -3.5012588734    -7.1884613442
   52      H       2.5151129608    -5.6285454867    -6.8638931791
   53      H       3.7116358933    -2.9592487274    -7.7314862191
   54      H       2.7394897262    -3.1423586838    -6.1695926332
   55      H       2.0114591036    -3.1715415829    -7.6944102521
   56      C      -8.6075432936     0.9349034165     0.0171493538
   57      C      -8.6750669526    -0.4695190717     0.3169926962
   58      N      -7.4534438359     1.6450358405    -0.0274307118
   59      C      -7.4910917369    -1.1560793616     0.5670020097
   60      C      -6.3743577457     0.9560097642     0.3093322256
   61      C      -6.3042699317    -0.3943996682     0.6591922880
   62      C      -5.0245001452    -1.2271579922     0.9497914405
   63      C      -5.1225051936    -2.2052487526     1.9617788292
   64      C      -3.7396561828    -0.8517321747     0.5341071279
   65      N      -4.0254052695    -2.8489047229     2.3682486907
   66      N      -3.4499830524     0.1980072793    -0.2806600512
   67      C      -2.6436614254    -1.5231262658     1.0203164105
   68      C      -2.7795538418    -2.5572102356     1.9584505131
   69      S      -1.8583847357     0.1507909248    -0.4369655662
   70      N      -1.4614476328    -1.0381774086     0.5417214310
   71      C      -1.6619542243    -3.2514884217     2.5220131938
   72      S       0.0241741662    -2.9742561959     2.3299419990
   73      C      -1.7820938163    -4.5014160611     3.0385404194
   74      C       0.5647878181    -4.5103561747     2.8748160526
   75      S      -3.1794615472    -5.4812977147     3.4456489672
   76      C      -0.6019285436    -5.1918892789     3.2049305167
   77      C       1.9025052220    -4.9066186406     3.1271733499
   78      C      -2.0707434671    -6.8169423858     3.7812551821
   79      C      -0.7530512944    -6.5621141992     3.5108334130
   80      N       2.1876871203    -5.9704209324     3.8307563008
   81      S       3.2932326694    -4.1581323964     2.3395151060
   82      C       3.5282928780    -6.2796984416     3.8051706639
   83      C       4.2040651346    -5.4928105892     2.8828744180
   84      C      -9.8139361657     1.7757143091    -0.3457546019
   85      H      -9.6091286275    -1.0220578490     0.2882405271
   86      H      -7.4710359973    -2.2385856181     0.6499656880
   87      H      -5.4647280139     1.5471004179     0.4060978711
   88      H      -6.1175581582    -2.5066370280     2.2875819985
   89      H      -2.4565060378    -7.7572016408     4.1514440155
   90      H       0.0230847668    -7.3157860335     3.5710711149
   91      H       3.8949408548    -7.1585521330     4.3192508621
   92      H       5.2728557731    -5.4479241722     2.7194829234
   93      H     -10.6940417097     1.4239852880     0.2051527652
   94      C     -10.1281016760     1.7436323426    -1.8245476163
   95      H      -9.6745662602     2.7966979274     0.0310125419
   96      H      -9.9008354304     0.7287245937    -2.1733144651
   97      H      -9.3861515548     2.3783743119    -2.3238047144
   98      C     -11.5597545833     2.2656095494    -2.1607495623
   99      H     -12.2452820190     1.4471234017    -1.9119252047
  100      C     -11.7866580443     2.7755005079    -3.5634854711
  101      H     -11.7498656273     3.1350363202    -1.5191828228
  102      H     -11.5835663340     1.9501612827    -4.2579463560
  103      H     -11.1542830994     3.6559685659    -3.7281667630
  104      C     -13.2503127992     3.1725098032    -3.8026054781
  105      H     -13.8928863565     2.3299650542    -3.5178624898
  106      C     -13.3497533225     3.5615224185    -5.2933790248
  107      H     -13.4961159628     4.0464934932    -3.1877149884
  108      H     -14.2788843142     4.1068695387    -5.5039642067
  109      H     -13.2993016209     2.6355565027    -5.8779932126
  110      H     -12.4971962925     4.1615268945    -5.6349388867
 ----------------------------------------------------------------

   10   -5663.5171524483      9.22E-06 Convergence criterion met
 Total energy in the final basis set = -5663.5171524483

                    Orbital Energies (a.u.)
 --------------------------------------------------------------

 Alpha MOs
 -- Occupied --
-88.991 -88.988 -88.922 -88.921 -88.920 -88.916 -88.904 -88.903
-14.391 -14.384 -14.383 -14.379 -14.355 -14.344 -14.342 -14.342
-14.340 -14.328 -10.268 -10.265 -10.262 -10.259 -10.258 -10.253
-10.251 -10.248 -10.243 -10.241 -10.240 -10.238 -10.237 -10.235
-10.232 -10.231 -10.231 -10.231 -10.230 -10.229 -10.227 -10.226
-10.226 -10.223 -10.222 -10.221 -10.220 -10.217 -10.216 -10.213
-10.212 -10.210 -10.202 -10.202 -10.200 -10.199 -10.190 -10.189
-10.186 -10.186 -10.184 -10.182 -10.178 -10.178 -10.177 -10.176
-10.175 -10.174 -10.173 -10.171  -8.047  -8.042  -7.983  -7.983
 -7.981  -7.975  -7.963  -7.963  -6.012  -6.008  -6.006  -6.005
 -6.002  -6.000  -5.947  -5.947  -5.945  -5.944  -5.943  -5.941
 -5.940  -5.940  -5.940  -5.938  -5.936  -5.931  -5.928  -5.927
 -5.924  -5.924  -5.919  -5.919  -1.051  -1.041  -0.973  -0.972
 -0.961  -0.948  -0.941  -0.930  -0.923  -0.912  -0.907  -0.907
 -0.848  -0.836  -0.832  -0.831  -0.815  -0.809  -0.808  -0.807
 -0.806  -0.803  -0.802  -0.796  -0.785  -0.782  -0.770  -0.766
 -0.747  -0.745  -0.737  -0.735  -0.721  -0.717  -0.710  -0.707
 -0.695  -0.691  -0.675  -0.674  -0.655  -0.650  -0.649  -0.645
 -0.636  -0.635  -0.623  -0.622  -0.617  -0.607  -0.601  -0.595
 -0.593  -0.590  -0.580  -0.578  -0.578  -0.576  -0.574  -0.569
 -0.553  -0.549  -0.543  -0.537  -0.526  -0.522  -0.512  -0.508
 -0.505  -0.504  -0.502  -0.498  -0.490  -0.484  -0.484  -0.480
 -0.474  -0.473  -0.470  -0.466  -0.462  -0.460  -0.454  -0.452
 -0.448  -0.440  -0.439  -0.437  -0.436  -0.435  -0.430  -0.429
 -0.427  -0.424  -0.423  -0.422  -0.420  -0.419  -0.416  -0.416
 -0.413  -0.409  -0.406  -0.404  -0.401  -0.400  -0.397  -0.396
 -0.394  -0.391  -0.390  -0.389  -0.388  -0.385  -0.385  -0.380
 -0.379  -0.377  -0.373  -0.370  -0.364  -0.360  -0.357  -0.352
 -0.351  -0.351  -0.349  -0.346  -0.344  -0.342  -0.339  -0.337
 -0.336  -0.334  -0.333  -0.331  -0.329  -0.328  -0.324  -0.319
 -0.318  -0.313  -0.313  -0.312  -0.305  -0.304  -0.302  -0.300
 -0.298  -0.294  -0.291  -0.290  -0.288  -0.286  -0.283  -0.279
 -0.277  -0.269  -0.267  -0.266  -0.262  -0.253  -0.250  -0.247
 -0.242  -0.241  -0.230  -0.228  -0.192  -0.191

          Ground-State Mulliken Net Atomic Charges

     Atom                 Charge (a.u.)
  ----------------------------------------
      1 C                     0.235217
      2 C                    -0.106053
      3 N                    -0.488931
      4 C                    -0.073506
      5 C                     0.085404
      6 C                     0.030450
      7 C                     0.055519
      8 C                     0.040495
      9 C                     0.226525
     10 N                    -0.528274
     11 N                    -0.559387
     12 C                     0.243708
     13 C                     0.299665
     14 S                     0.621232
     15 N                    -0.578013
     16 C                    -0.243629
     17 S                     0.290605
     18 C                    -0.076494
     19 C                    -0.210699
     20 S                     0.261650
     21 C                     0.132865
     22 C                     0.060982
     23 C                    -0.311289
     24 C                    -0.045996
     25 N                    -0.432229
     26 S                     0.259358
     27 C                     0.120754
     28 C                    -0.304850
     29 C                    -0.225899
     30 H                     0.093706
     31 H                     0.106117
     32 H                     0.128647
     33 H                     0.110509
     34 H                     0.132404
     35 H                     0.129148
     36 H                     0.119573
     37 H                     0.128642
     38 H                     0.112364
     39 C                    -0.188439
     40 H                     0.119638
     41 H                     0.099102
     42 H                     0.088109
     43 C                    -0.173595
     44 H                     0.096924
     45 C                    -0.174404
     46 H                     0.104946
     47 H                     0.089898
     48 H                     0.087122
     49 C                    -0.179968
     50 H                     0.089202
     51 C                    -0.316905
     52 H                     0.097435
     53 H                     0.104168
     54 H                     0.110400
     55 H                     0.098251
     56 C                     0.233877
     57 C                    -0.114225
     58 N                    -0.463212
     59 C                    -0.089378
     60 C                     0.086212
     61 C                     0.051612
     62 C                    -0.004976
     63 C                     0.083881
     64 C                     0.227551
     65 N                    -0.538824
     66 N                    -0.543114
     67 C                     0.174845
     68 C                     0.331467
     69 S                     0.621166
     70 N                    -0.560135
     71 C                    -0.219617
     72 S                     0.329782
     73 C                    -0.099595
     74 C                    -0.233125
     75 S                     0.272719
     76 C                     0.126890
     77 C                     0.064284
     78 C                    -0.317596
     79 C                    -0.031431
     80 N                    -0.430310
     81 S                     0.304589
     82 C                     0.108513
     83 C                    -0.305322
     84 C                    -0.217786
     85 H                     0.092177
     86 H                     0.105920
     87 H                     0.106787
     88 H                     0.115326
     89 H                     0.119384
     90 H                     0.123589
     91 H                     0.118444
     92 H                     0.132201
     93 H                     0.089883
     94 C                    -0.177696
     95 H                     0.116385
     96 H                     0.090737
     97 H                     0.107632
     98 C                    -0.175993
     99 H                     0.087615
    100 C                    -0.169036
    101 H                     0.092000
    102 H                     0.090132
    103 H                     0.095253
    104 C                    -0.174432
    105 H                     0.093828
    106 C                    -0.317141
    107 H                     0.092602
    108 H                     0.095946
    109 H                     0.103264
    110 H                     0.104279
  ----------------------------------------
  Sum of atomic charges =     0.000000

                    Cartesian Multipole Moments
 -----------------------------------------------------------------
    Charge (ESU x 10^10)
                 0.0000
    Dipole Moment (Debye)
         X       1.9312      Y      -1.2370      Z      -0.9299
       Tot       2.4747
    Quadrupole Moments (Debye-Ang)
        XX    -404.7040     XY       1.1189     YY    -417.5262
        XZ      -5.4216     YZ      15.9583     ZZ    -435.6674

 Total job time:  92.62s(wall), 1093.99s(cpu)
        *  Thank you very much for using Q-Chem.  Have a nice day.  *
