 Q-Chem 4.4, Q-Chem, Inc., Pleasanton, CA (2016)
 Q-Chem 4.4.2 for Intel X86 Linux

User input:
--------------------------------------------------------------
$comment
SP
$end

$rem
MEM_STATIC 5000
MEM_TOTAL 20000
JOBTYPE SP
EXCHANGE B3LYP
BASIS 6-31g(d,p)
$end

$molecule
0 1
C          16.933000     15.139000    -13.699000
C          17.678000     13.918000    -13.775000
N          17.247000     16.231000    -12.968000
C          18.928000     13.857000    -13.095000
C          18.440000     16.164000    -12.371000
C          19.347000     15.019000    -12.374000
C          20.523000     15.044000    -11.481000
C          20.505000     15.561000    -10.176000
C          21.699000     14.330000    -11.821000
N          21.549000     15.348000     -9.318000
N          21.941000     13.977000    -13.055000
C          22.759000     14.132000    -10.941000
C          22.613000     14.638000     -9.632000
S          23.364000     13.183000    -12.965000
N          23.774000     13.410000    -11.395000
C          23.661000     14.515000     -8.593000
S          25.153000     13.544000     -8.663000
C          23.537000     15.035000     -7.283000
C          25.379000     13.672000     -6.903000
S          22.597000     16.435000     -6.701000
C          24.429000     14.554000     -6.367000
C          26.424000     13.065000     -6.145000
C          23.396000     16.252000     -5.154000
C          24.350000     15.255000     -5.134000
N          27.184000     12.308000     -6.873000
S          26.475000     12.757000     -4.420000
C          27.967000     11.461000     -6.095000
C          27.648000     11.521000     -4.764000
C          15.496000     15.212000    -14.140000
H          17.210000     13.101000    -14.317000
H          19.458000     12.911000    -13.145000
H          18.645000     17.037000    -11.754000
H          19.654000     16.171000     -9.876000
H          23.133000     16.966000     -4.385000
H          24.940000     15.012000     -4.258000
H          28.700000     10.829000     -6.578000
H          27.979000     10.961000     -3.899000
H          15.142000     14.201000    -14.374000
C          15.180000     16.039000    -15.474000
H          14.995000     15.670000    -13.278000
H          15.499000     17.089000    -15.484000
H          14.097000     16.140000    -15.613000
C          15.725000     15.281000    -16.748000
H          16.805000     15.134000    -16.625000
C          15.679000     16.105000    -17.993000
H          15.265000     14.297000    -16.901000
H          16.313000     15.587000    -18.722000
H          16.244000     17.040000    -17.901000
C          14.360000     16.358000    -18.675000
H          13.758000     16.928000    -17.957000
C          13.549000     15.086000    -18.937000
H          14.461000     17.003000    -19.557000
H          12.577000     15.230000    -19.425000
H          13.382000     14.444000    -18.064000
H          14.139000     14.582000    -19.712000
C          13.007000      0.189000     -9.485000
C          11.999000      1.041000     -8.915000
N          14.145000      0.645000    -10.064000
C          12.196000      2.418000     -8.942000
C          14.229000      1.964000    -10.140000
C          13.309000      2.902000     -9.666000
C          13.459000      4.449000     -9.660000
C          12.288000      5.199000     -9.898000
C          14.688000      5.113000     -9.775000
N          12.371000      6.522000    -10.059000
N          15.910000      4.516000     -9.771000
C          14.711000      6.471000     -9.984000
C          13.525000      7.207000    -10.124000
S          16.944000      5.729000     -9.910000
N          15.974000      6.976000    -10.092000
C          13.506000      8.614000    -10.386000
S          14.803000      9.699000    -10.698000
C          12.436000      9.387000    -10.068000
C          13.959000     11.156000    -10.361000
S          10.797000      8.992000     -9.582000
C          12.674000     10.743000    -10.025000
C          14.415000     12.480000    -10.583000
C          10.530000     10.716000     -9.295000
C          11.631000     11.512000     -9.464000
N          13.598000     13.500000    -10.595000
S          16.125000     12.914000    -10.631000
C          14.257000     14.707000    -10.644000
C          15.624000     14.536000    -10.475000
C          12.946000     -1.324000     -9.451000
H          11.126000      0.643000     -8.407000
H          11.544000      3.094000     -8.397000
H          15.072000      2.337000    -10.720000
H          11.328000      4.692000     -9.806000
H           9.554000     11.066000     -8.987000
H          11.643000     12.569000     -9.226000
H          13.699000     15.634000    -10.624000
H          16.394000     15.291000    -10.565000
H          11.905000     -1.658000     -9.532000
C          13.541000     -1.907000     -8.189000
H          13.410000     -1.729000    -10.359000
H          13.290000     -1.217000     -7.374000
H          14.631000     -1.834000     -8.285000
C          13.145000     -3.398000     -7.954000
H          12.121000     -3.380000     -7.563000
C          14.062000     -4.216000     -7.077000
H          13.176000     -3.902000     -8.928000
H          14.093000     -3.741000     -6.088000
H          15.043000     -4.291000     -7.561000
C          13.522000     -5.634000     -6.843000
H          12.491000     -5.560000     -6.475000
C          14.496000     -6.304000     -5.850000
H          13.536000     -6.190000     -7.788000
H          14.353000     -7.392000     -5.821000
H          14.316000     -5.860000     -4.864000
H          15.548000     -6.087000     -6.073000
$end

--------------------------------------------------------------

             Standard Nuclear Orientation (Angstroms)
    I     Atom           X                Y                Z
 ----------------------------------------------------------------
    1      C      -4.0429756363     4.7100959808     0.7223433190
    2      C      -3.4263228158     3.7451590313     1.5827374045
    3      N      -5.0855703418     4.4981906848    -0.1104312156
    4      C      -4.0111721572     2.4485825220     1.6566400676
    5      C      -5.6394676371     3.2882141394     0.0049011121
    6      C      -5.1698949095     2.1982254621     0.8564345154
    7      C      -5.7742139756     0.8605998464     0.6933205109
    8      C      -6.1207708556     0.3034451786    -0.5476931897
    9      C      -5.8317358683    -0.0402125651     1.7858406394
   10      N      -6.4560906234    -1.0181531737    -0.6590819168
   11      N      -5.7397458479     0.3857406824     3.0171126106
   12      C      -6.1869912198    -1.3799560726     1.6590141065
   13      C      -6.4548246811    -1.8552658954     0.3577920619
   14      S      -5.8383008646    -0.9752119404     3.9124113692
   15      N      -6.1574494248    -2.1044209199     2.7689253495
   16      C      -6.8570720844    -3.2512379696     0.0707154265
   17      S      -6.8539707626    -4.6361357107     1.1913641799
   18      C      -7.1484943013    -3.7367214497    -1.2259167041
   19      C      -6.9792422135    -5.7913222532    -0.1558221901
   20      S      -7.7797828645    -2.8662319880    -2.6493094282
   21      C      -7.1733108401    -5.0960807954    -1.3586092384
   22      C      -6.9905173535    -7.2133797950    -0.0432912208
   23      C      -7.9668377141    -4.4171530034    -3.4397229195
   24      C      -7.6454852419    -5.4935377829    -2.6380662628
   25      N      -6.8098904220    -7.6118052816     1.1770628439
   26      S      -6.6574256319    -8.4028757936    -1.2871719122
   27      C      -6.4768856443    -8.9614006756     1.2360720850
   28      C      -6.2756685565    -9.5104713455    -0.0028609573
   29      C      -3.3528348196     5.9984499802     0.3636949877
   30      H      -2.5198821906     4.0622529458     2.0907667761
   31      H      -3.5073352584     1.7283793446     2.2936422361
   32      H      -6.4461322236     3.1312387394    -0.7088873501
   33      H      -6.1542301654     0.9608689682    -1.4154347615
   34      H      -8.3778791366    -4.4049412227    -4.4403336437
   35      H      -7.7089197429    -6.5234695337    -2.9693390397
   36      H      -6.3719774638    -9.4367541299     2.2020096436
   37      H      -5.9336916532   -10.4826792683    -0.3333901579
   38      H      -2.3270676385     5.9742289520     0.7502283393
   39      C      -3.9547250484     7.3482269160     0.9794639185
   40      H      -3.4148305142     6.0164527172    -0.7315864534
   41      H      -5.0087426297     7.5581046766     0.7572944700
   42      H      -3.4617036555     8.2224064022     0.5377047851
   43      C      -3.6893109173     7.4242219250     2.5345989923
   44      H      -4.1430697867     6.5430542909     3.0044760922
   45      C      -4.4294979817     8.5326004705     3.2089409750
   46      H      -2.6240343670     7.4360262895     2.7959637342
   47      H      -4.3812452115     8.3187911185     4.2830351194
   48      H      -5.5141013185     8.4646239241     3.0642731109
   49      C      -3.9684966629     9.9558774604     3.0338570116
   50      H      -4.0783380228    10.1751248655     1.9648886066
   51      C      -2.4781691004    10.1593715909     3.3199739375
   52      H      -4.6165338573    10.6733225088     3.5529623932
   53      H      -2.1019793982    11.1823378877     3.1947331149
   54      H      -1.7974709056     9.4942395561     2.7755188486
   55      H      -2.4205813171    10.0091667161     4.4048071702
   56      C      10.8724421934    -1.1349485003     0.9211849182
   57      C      10.7369392155    -0.4319548808    -0.3255335399
   58      N       9.8398216079    -1.3933037026     1.7609279241
   59      C       9.4736131138     0.0049296323    -0.7112874549
   60      C       8.6833862955    -0.8723559598     1.3816340835
   61      C       8.4224308276    -0.1382341323     0.2223725141
   62      C       7.0438840727     0.3803163996    -0.2740740495
   63      C       7.0342186716     1.6371959916    -0.9148121170
   64      C       5.8150596988    -0.1338364792     0.1620445988
   65      N       5.8699274153     2.2111851207    -1.2280234677
   66      N       5.6549029402    -1.2244771045     0.9586384973
   67      C       4.6510257653     0.5245347568    -0.1540982761
   68      C       4.6670334366     1.7276528425    -0.8753074180
   69      S       4.0696235298    -1.3670265347     1.1211649599
   70      N       3.5376009676    -0.0816984299     0.3505050764
   71      C       3.4814765274     2.4665848203    -1.1868974487
   72      S       1.8510075274     2.1932675402    -0.7139846616
   73      C       3.4308451760     3.3309628712    -2.2327655338
   74      C       1.1054277065     3.1665327418    -1.9163238725
   75      S       4.6778605975     4.0166222808    -3.2591015959
   76      C       2.1671029254     3.6891648895    -2.6473446435
   77      C      -0.2651441772     3.5189026926    -2.0032958753
   78      C       3.3931309206     4.7280115032    -4.2435958983
   79      C       2.1196306812     4.3881899639    -3.8733305045
   80      N      -0.6794445697     4.5049014985    -2.7544247188
   81      S      -1.5573139076     2.5384269252    -1.3077927069
   82      C      -2.0514467613     4.5660256657    -2.8404759978
   83      C      -2.6376349007     3.4488461117    -2.2618705113
   84      C      12.1766833369    -1.7252752686     1.4156698483
   85      H      11.5733070479    -0.2913563322    -1.0032634988
   86      H       9.2916440916     0.4049664379    -1.7042440648
   87      H       7.8799523513    -0.9593154381     2.1117778682
   88      H       7.9844242750     2.0422379013    -1.2614579919
   89      H       3.6458890103     5.3620461522    -5.0826748051
   90      H       1.2405626429     4.6655913705    -4.4428257579
   91      H      -2.5259740828     5.3158439000    -3.4599026978
   92      H      -3.6929573376     3.2746139645    -2.0976672433
   93      H      13.0153301778    -1.0908515376     1.1058699037
   94      C      12.4186555195    -3.1266392066     0.9016790157
   95      H      12.2115103267    -1.6687404527     2.5108300628
   96      H      12.0239824734    -3.1599078841    -0.1212835358
   97      H      11.7619438946    -3.7949993504     1.4714768393
   98      C      13.8976257140    -3.5959218063     1.0676398706
   99      H      14.4597852964    -3.1125244628     0.2601223090
  100      C      14.1396699629    -5.0857072044     1.1007465066
  101      H      14.2458754328    -3.2400608180     2.0452584518
  102      H      13.7830902064    -5.5052127434     0.1512345372
  103      H      13.6430767995    -5.5068754235     1.9829338797
  104      C      15.6352587982    -5.4250813038     1.1722954855
  105      H      16.1528647563    -4.9004444647     0.3594601644
  106      C      15.7291879891    -6.9636955671     1.0858752561
  107      H      16.0380484882    -5.0957937705     2.1375349304
  108      H      16.7209792716    -7.3222313369     1.3905655146
  109      H      15.5126038104    -7.2477664847     0.0494742684
  110      H      14.9647068022    -7.4716558971     1.6867636135
 ----------------------------------------------------------------

    9   -5663.5220478393      7.01E-06 Convergence criterion met
 Total energy in the final basis set = -5663.5220478393

                    Orbital Energies (a.u.)
 --------------------------------------------------------------

 Alpha MOs
 -- Occupied --
-88.990 -88.984 -88.930 -88.928 -88.922 -88.920 -88.911 -88.904
-14.391 -14.384 -14.383 -14.379 -14.347 -14.344 -14.342 -14.340
-14.338 -14.329 -10.266 -10.265 -10.262 -10.260 -10.252 -10.251
-10.250 -10.248 -10.245 -10.242 -10.241 -10.241 -10.236 -10.235
-10.235 -10.234 -10.232 -10.232 -10.231 -10.231 -10.229 -10.229
-10.227 -10.226 -10.225 -10.223 -10.222 -10.221 -10.218 -10.213
-10.213 -10.211 -10.210 -10.206 -10.205 -10.202 -10.199 -10.187
-10.185 -10.184 -10.178 -10.177 -10.177 -10.177 -10.176 -10.173
-10.173 -10.171 -10.170 -10.169  -8.046  -8.041  -7.992  -7.985
 -7.984  -7.981  -7.970  -7.964  -6.011  -6.006  -6.005  -6.005
 -6.000  -5.998  -5.956  -5.952  -5.949  -5.948  -5.948  -5.946
 -5.945  -5.944  -5.942  -5.941  -5.941  -5.938  -5.935  -5.931
 -5.928  -5.926  -5.924  -5.920  -1.054  -1.050  -0.977  -0.972
 -0.961  -0.960  -0.947  -0.941  -0.925  -0.923  -0.910  -0.906
 -0.848  -0.844  -0.835  -0.831  -0.815  -0.811  -0.809  -0.808
 -0.807  -0.805  -0.802  -0.798  -0.786  -0.785  -0.771  -0.770
 -0.748  -0.747  -0.739  -0.738  -0.725  -0.721  -0.711  -0.711
 -0.696  -0.692  -0.674  -0.674  -0.660  -0.650  -0.650  -0.649
 -0.638  -0.635  -0.631  -0.623  -0.619  -0.607  -0.606  -0.599
 -0.595  -0.593  -0.587  -0.581  -0.578  -0.574  -0.570  -0.553
 -0.548  -0.546  -0.543  -0.542  -0.530  -0.526  -0.523  -0.512
 -0.506  -0.504  -0.503  -0.502  -0.493  -0.490  -0.484  -0.480
 -0.479  -0.475  -0.473  -0.471  -0.464  -0.462  -0.453  -0.452
 -0.449  -0.441  -0.440  -0.439  -0.437  -0.436  -0.434  -0.433
 -0.427  -0.425  -0.424  -0.424  -0.421  -0.420  -0.417  -0.415
 -0.413  -0.411  -0.404  -0.404  -0.401  -0.399  -0.398  -0.396
 -0.394  -0.393  -0.391  -0.391  -0.390  -0.388  -0.386  -0.385
 -0.381  -0.380  -0.376  -0.370  -0.364  -0.363  -0.362  -0.356
 -0.353  -0.352  -0.351  -0.349  -0.347  -0.343  -0.342  -0.339
 -0.337  -0.336  -0.336  -0.332  -0.331  -0.329  -0.325  -0.322
 -0.318  -0.316  -0.313  -0.311  -0.305  -0.305  -0.302  -0.299
 -0.297  -0.293  -0.293  -0.291  -0.288  -0.287  -0.284  -0.277
 -0.272  -0.269  -0.267  -0.267  -0.265  -0.255  -0.254  -0.250
 -0.246  -0.242  -0.234  -0.230  -0.192  -0.192

          Ground-State Mulliken Net Atomic Charges

     Atom                 Charge (a.u.)
  ----------------------------------------
      1 C                     0.280528
      2 C                    -0.117431
      3 N                    -0.464965
      4 C                    -0.053249
      5 C                     0.049399
      6 C                     0.024305
      7 C                     0.035540
      8 C                     0.072160
      9 C                     0.201353
     10 N                    -0.546363
     11 N                    -0.521738
     12 C                     0.210553
     13 C                     0.342932
     14 S                     0.580063
     15 N                    -0.554471
     16 C                    -0.247096
     17 S                     0.366437
     18 C                    -0.134355
     19 C                    -0.222570
     20 S                     0.285014
     21 C                     0.157502
     22 C                     0.075053
     23 C                    -0.305701
     24 C                    -0.080734
     25 N                    -0.430986
     26 S                     0.273756
     27 C                     0.124466
     28 C                    -0.320836
     29 C                    -0.227193
     30 H                     0.105622
     31 H                     0.113665
     32 H                     0.100780
     33 H                     0.111262
     34 H                     0.132429
     35 H                     0.106770
     36 H                     0.120982
     37 H                     0.141616
     38 H                     0.093191
     39 C                    -0.183938
     40 H                     0.120254
     41 H                     0.104547
     42 H                     0.097358
     43 C                    -0.178267
     44 H                     0.095807
     45 C                    -0.177043
     46 H                     0.092608
     47 H                     0.080871
     48 H                     0.089444
     49 C                    -0.172443
     50 H                     0.089250
     51 C                    -0.318957
     52 H                     0.091812
     53 H                     0.099117
     54 H                     0.107089
     55 H                     0.099068
     56 C                     0.234125
     57 C                    -0.114072
     58 N                    -0.463488
     59 C                    -0.089678
     60 C                     0.086085
     61 C                     0.051304
     62 C                    -0.005080
     63 C                     0.083661
     64 C                     0.229306
     65 N                    -0.539958
     66 N                    -0.545206
     67 C                     0.170553
     68 C                     0.329612
     69 S                     0.614503
     70 N                    -0.546656
     71 C                    -0.213195
     72 S                     0.315619
     73 C                    -0.102516
     74 C                    -0.222897
     75 S                     0.272015
     76 C                     0.125707
     77 C                     0.077071
     78 C                    -0.318973
     79 C                    -0.031996
     80 N                    -0.432822
     81 S                     0.266745
     82 C                     0.107462
     83 C                    -0.301134
     84 C                    -0.217347
     85 H                     0.092125
     86 H                     0.105937
     87 H                     0.106283
     88 H                     0.115075
     89 H                     0.119551
     90 H                     0.123229
     91 H                     0.121322
     92 H                     0.138851
     93 H                     0.089836
     94 C                    -0.177566
     95 H                     0.116097
     96 H                     0.090762
     97 H                     0.107252
     98 C                    -0.175941
     99 H                     0.087671
    100 C                    -0.169170
    101 H                     0.091979
    102 H                     0.090129
    103 H                     0.095061
    104 C                    -0.174256
    105 H                     0.093920
    106 C                    -0.317186
    107 H                     0.092598
    108 H                     0.096024
    109 H                     0.103290
    110 H                     0.104113
  ----------------------------------------
  Sum of atomic charges =     0.000000

                    Cartesian Multipole Moments
 -----------------------------------------------------------------
    Charge (ESU x 10^10)
                 0.0000
    Dipole Moment (Debye)
         X      -0.5442      Y      -2.7331      Z      -1.5171
       Tot       3.1730
    Quadrupole Moments (Debye-Ang)
        XX    -436.6385     XY      12.0237     YY    -415.6034
        XZ      -2.6874     YZ       7.1733     ZZ    -432.0726

 Total job time:  81.87s(wall), 963.88s(cpu)
        *  Thank you very much for using Q-Chem.  Have a nice day.  *
