 Q-Chem 4.4, Q-Chem, Inc., Pleasanton, CA (2016)
 Q-Chem 4.4.2 for Intel X86 Linux

User input:
--------------------------------------------------------------
$comment
SP
$end

$rem
MEM_STATIC 5000
MEM_TOTAL 20000
JOBTYPE SP
EXCHANGE B3LYP
BASIS 6-31g(d,p)
$end

$molecule
0 1
C         -27.641000     -0.932000     -5.170000
C         -26.987000     -2.158000     -5.042000
N         -27.030000      0.219000     -5.416000
C         -25.568000     -2.070000     -5.103000
C         -25.697000      0.244000     -5.644000
C         -24.898000     -0.900000     -5.480000
C         -23.369000     -0.801000     -5.616000
C         -22.797000      0.453000     -5.267000
C         -22.441000     -1.850000     -5.798000
N         -21.464000      0.706000     -5.462000
N         -22.813000     -3.138000     -6.115000
C         -21.014000     -1.553000     -5.888000
C         -20.589000     -0.223000     -5.827000
S         -21.366000     -3.807000     -6.673000
N         -20.330000     -2.654000     -6.288000
C         -19.145000      0.086000     -6.115000
S         -17.876000     -1.086000     -6.348000
C         -18.599000      1.327000     -6.088000
C         -16.605000      0.182000     -6.378000
S         -19.334000      2.896000     -5.853000
C         -17.168000      1.388000     -6.263000
C         -15.245000     -0.063000     -6.457000
C         -17.705000      3.693000     -6.194000
C         -16.756000      2.750000     -6.438000
N         -14.318000      0.864000     -6.539000
S         -14.618000     -1.707000     -6.516000
C         -13.035000      0.315000     -6.463000
C         -13.052000     -1.021000     -6.109000
C         -29.207000     -0.734000     -5.132000
H         -27.473000     -3.045000     -4.647000
H         -25.059000     -3.014000     -4.934000
H         -25.321000      1.203000     -5.997000
H         -23.457000      1.248000     -4.925000
H         -17.620000      4.772000     -6.215000
H         -15.720000      3.069000     -6.458000
H         -12.145000      0.868000     -6.735000
H         -12.202000     -1.685000     -6.020000
H         -29.411000      0.253000     -4.699000
C         -29.906000     -1.751000     -4.185000
H         -29.632000     -0.887000     -6.132000
H         -29.306000     -1.836000     -3.271000
H         -29.926000     -2.738000     -4.665000
C         -31.373000     -1.494000     -3.916000
H         -31.446000     -0.415000     -3.732000
C         -31.866000     -2.335000     -2.632000
H         -32.019000     -1.759000     -4.762000
H         -32.447000     -1.673000     -1.978000
H         -30.984000     -2.424000     -1.985000
C         -32.456000     -3.724000     -2.954000
H         -32.821000     -4.194000     -2.033000
C         -31.376000     -4.777000     -3.433000
H         -33.224000     -3.768000     -3.736000
H         -31.320000     -4.720000     -4.528000
H         -31.667000     -5.801000     -3.168000
H         -30.404000     -4.543000     -2.983000
C         -14.526000     -4.414000    -11.650000
C         -14.647000     -3.537000    -10.523000
N         -15.610000     -4.692000    -12.436000
C         -15.899000     -2.986000    -10.279000
C         -16.756000     -4.111000    -12.166000
C         -17.012000     -3.284000    -11.077000
C         -18.412000     -2.945000    -10.597000
C         -18.667000     -1.794000     -9.835000
C         -19.568000     -3.720000    -10.852000
N         -19.925000     -1.381000     -9.519000
N         -19.458000     -4.984000    -11.338000
C         -20.811000     -3.346000    -10.412000
C         -21.010000     -2.145000     -9.809000
S         -21.020000     -5.574000    -11.330000
N         -21.784000     -4.327000    -10.545000
C         -22.316000     -1.619000     -9.497000
S         -23.932000     -2.469000     -9.673000
C         -22.596000     -0.269000     -9.188000
C         -24.854000     -1.019000     -9.417000
S         -21.464000      0.972000     -8.757000
C         -23.951000     -0.013000     -9.057000
C         -26.305000     -0.839000     -9.199000
C         -22.842000      2.047000     -8.459000
C         -24.044000      1.360000     -8.731000
N         -26.876000      0.253000     -9.703000
S         -27.450000     -2.105000     -8.690000
C         -28.234000      0.197000     -9.624000
C         -28.677000     -0.930000     -9.041000
C         -13.275000     -5.278000    -11.909000
H         -13.813000     -3.384000     -9.845000
H         -16.140000     -2.432000     -9.376000
H         -17.574000     -4.396000    -12.827000
H         -17.905000     -1.107000     -9.469000
H         -22.689000      3.081000     -8.179000
H         -25.050000      1.757000     -8.652000
H         -28.768000      1.055000    -10.011000
H         -29.689000     -0.976000     -8.662000
H         -12.406000     -4.725000    -11.531000
C         -13.034000     -5.719000    -13.391000
H         -13.317000     -6.146000    -11.239000
H         -13.129000     -4.933000    -14.150000
H         -13.833000     -6.445000    -13.588000
C         -11.624000     -6.419000    -13.530000
H         -10.839000     -5.667000    -13.676000
C         -11.532000     -7.405000    -14.714000
H         -11.395000     -7.050000    -12.662000
H         -12.218000     -8.253000    -14.600000
H         -10.576000     -7.941000    -14.752000
C         -11.602000     -6.906000    -16.175000
H         -11.013000     -7.613000    -16.772000
C         -11.188000     -5.439000    -16.416000
H         -12.615000     -7.083000    -16.557000
H         -11.158000     -5.307000    -17.505000
H         -10.234000     -5.178000    -15.941000
H         -11.938000     -4.776000    -15.968000
$end

--------------------------------------------------------------

             Standard Nuclear Orientation (Angstroms)
    I     Atom           X                Y                Z
 ----------------------------------------------------------------
    1      C      -7.3732944433    -0.0151445292    -0.3884032085
    2      C      -6.6319695010     0.5047687477    -1.4501487121
    3      N      -6.9011259089    -0.8779244594     0.5011504252
    4      C      -5.3239452462    -0.0427019142    -1.5700420954
    5      C      -5.6000439752    -1.2458307579     0.4646983002
    6      C      -4.7520658129    -0.8584220659    -0.5864346798
    7      C      -3.3171973875    -1.4072444362    -0.6644385744
    8      C      -3.1176578664    -2.6985289268    -0.1038412645
    9      C      -2.2373751716    -0.9163904515    -1.4310906127
   10      N      -1.8641934499    -3.2436720084    -0.0010357335
   11      N      -2.2604346891     0.3042060543    -2.0693926013
   12      C      -0.9436744481    -1.5922257523    -1.3839410197
   13      C      -0.7835457511    -2.7011459304    -0.5485364237
   14      S      -0.6248070768     0.5771854800    -2.3902329776
   15      N       0.0017971788    -0.8389820867    -1.9993793860
   16      C       0.5973829628    -3.2676577897    -0.3596946896
   17      S       2.0273891448    -2.7866310939    -1.2325804997
   18      C       0.8947106844    -4.3389665445     0.4167200049
   19      C       3.0053958421    -4.1091592140    -0.5124504618
   20      S      -0.1087640352    -5.2915498648     1.4857543846
   21      C       2.2602415405    -4.8010228508     0.3539788630
   22      C       4.3177416046    -4.3948239769    -0.8471297753
   23      C       1.3855145469    -6.2285447158     2.0282515445
   24      C       2.4911439188    -5.7794819769     1.3760917875
   25      N       5.0530336520    -5.3233013627    -0.2791004195
   26      S       5.1686235448    -3.4608526293    -2.0731164986
   27      C       6.2844819919    -5.4686344640    -0.9238323604
   28      C       6.3446780269    -4.7661986246    -2.1127231582
   29      C      -8.8517075796     0.4046908133    -0.0264130382
   30      H      -7.0859843507     1.0467597761    -2.2742277382
   31      H      -4.7743240531     0.3115484531    -2.4367607472
   32      H      -5.2734922694    -1.8228329069     1.3284682368
   33      H      -3.9721596609    -3.2142083634     0.3303135487
   34      H       1.3037716657    -6.9879417681     2.7954159456
   35      H       3.3974979101    -6.3695013070     1.4526204253
   36      H       7.1144661389    -6.0076959168    -0.4851615660
   37      H       7.1927464255    -4.6804214912    -2.7796109109
   38      H      -9.3523369450    -0.4685524958     0.4095804958
   39      C      -9.6855329468     0.7695030378    -1.2878987884
   40      H      -8.8456961928     1.2926122394     0.6182523047
   41      H      -9.4624910053     0.0340706289    -2.0702110433
   42      H      -9.3725107041     1.7550518614    -1.6562458963
   43      C     -11.1682486992     0.9676751949    -1.0581580782
   44      H     -11.4707584107     0.1385199176    -0.4066863593
   45      C     -11.9659332864     0.9245574883    -2.4584531053
   46      H     -11.4043673744     1.9179813783    -0.5637664026
   47      H     -12.8433462781     0.2758168506    -2.3453026437
   48      H     -11.3849650530     0.2545202263    -3.1049668169
   49      C     -12.1710385587     2.2983344747    -3.1305941758
   50      H     -12.7742895984     2.1801053002    -4.0386008087
   51      C     -10.8411579289     2.9214643962    -3.7203200539
   52      H     -12.5768854643     3.1019734724    -2.5039071321
   53      H     -10.3921093009     3.5465571098    -2.9373612879
   54      H     -11.0471364712     3.5666976462    -4.5832968167
   55      H     -10.1547418214     2.1195072476    -4.0165254880
   56      C       7.5791962552     1.5758343853    -0.4871807730
   57      C       6.9138958351     0.3132959842    -0.6186004704
   58      N       6.9218467890     2.6596457549     0.0260254178
   59      C       5.5916853424     0.2456088421    -0.1969147299
   60      C       5.6823657646     2.5158582106     0.4344234250
   61      C       4.9153460594     1.3613962615     0.3149061459
   62      C       3.4028929467     1.3464628820     0.4475092234
   63      C       2.7079661530     0.1736545359     0.7822738192
   64      C       2.5595315982     2.4661072991     0.2548332907
   65      N       1.3749300040     0.1579296443     1.0575125397
   66      N       3.0367532367     3.5975426974    -0.3266350638
   67      C       1.2002291691     2.3940494392     0.4149256730
   68      C       0.6078564896     1.2656350777     0.8854430875
   69      S       1.6953620744     4.5758744172    -0.5042436104
   70      N       0.5110414451     3.5111313409    -0.0366574380
   71      C      -0.7851622307     1.1925675771     1.2512517607
   72      S      -2.0673335348     2.4845569232     1.0238044556
   73      C      -1.3656204646     0.1757058539     2.0421003395
   74      C      -3.2313382978     1.6697792228     2.0234795082
   75      S      -0.6818640236    -1.3652071138     2.4487086955
   76      C      -2.6944051121     0.4194369513     2.3481207844
   77      C      -4.6685254158     1.9468169739     2.2310084752
   78      C      -2.2207467561    -1.7799306717     3.2253407230
   79      C      -3.1135547449    -0.6930666669     3.1140863743
   80      N      -5.1734583437     1.7234211165     3.4424778430
   81      S      -5.7093707605     2.9217031828     1.1637222679
   82      C      -6.4372877318     2.2150771129     3.5631039550
   83      C      -6.8845271280     2.7883873195     2.4328122539
   84      C       8.9546081885     1.8682479986    -1.1206744923
   85      H       7.4018763115    -0.5245770202    -1.1069578018
   86      H       4.9498104322    -0.6105535243    -0.3850333152
   87      H       5.2231929368     3.4278348677     0.8148559305
   88      H       3.1630703607    -0.8091610562     0.8985608438
   89      H      -2.3450348652    -2.7218765033     3.7432746148
   90      H      -4.1254072256    -0.6428174983     3.5007588176
   91      H      -6.9155029093     2.0655136283     4.5222859024
   92      H      -7.9445663593     2.9574540952     2.3000182274
   93      H       9.5239927682     0.9303572049    -1.1246819358
   94      C       9.7939662175     3.0089884933    -0.4550355339
   95      H       8.8019851704     2.0608360192    -2.1901154998
   96      H       9.8669409602     2.9790978382     0.6388946447
   97      H       9.2482818341     3.9265675922    -0.7091283340
   98      C      11.2449362462     3.0548516357    -1.0795381745
   99      H      11.9011435341     2.3391574877    -0.5694216369
  100      C      11.9217614489     4.4386420116    -0.9818251229
  101      H      11.2301141148     2.8605069104    -2.1593698429
  102      H      11.3829563406     5.2036466728    -1.5537979577
  103      H      12.8941753906     4.4767186094    -1.4874309957
  104      C      12.3228216245     5.0357444257     0.3860350463
  105      H      13.1933710142     5.6767750232     0.2005558475
  106      C      12.5637781292     4.0257151613     1.5276772179
  107      H      11.5647798135     5.7711908913     0.6825364951
  108      H      12.9751644308     4.6051663796     2.3638844868
  109      H      13.2202447749     3.1962374840     1.2363349348
  110      H      11.6079966424     3.5676980929     1.8095905281
 ----------------------------------------------------------------

   10   -5663.4795528829      9.88E-06 Convergence criterion met
 Total energy in the final basis set = -5663.4795528829

                    Orbital Energies (a.u.)
 --------------------------------------------------------------

 Alpha MOs
 -- Occupied --
-88.988 -88.987 -88.930 -88.927 -88.924 -88.920 -88.906 -88.905
-14.390 -14.387 -14.384 -14.383 -14.350 -14.346 -14.343 -14.342
-14.325 -14.324 -10.275 -10.266 -10.265 -10.259 -10.256 -10.254
-10.253 -10.248 -10.247 -10.244 -10.241 -10.241 -10.238 -10.236
-10.234 -10.234 -10.230 -10.229 -10.229 -10.229 -10.228 -10.227
-10.226 -10.226 -10.225 -10.225 -10.221 -10.219 -10.215 -10.210
-10.210 -10.209 -10.207 -10.202 -10.202 -10.201 -10.198 -10.193
-10.190 -10.187 -10.187 -10.185 -10.182 -10.180 -10.179 -10.178
-10.177 -10.172 -10.171 -10.169  -8.043  -8.042  -7.990  -7.985
 -7.983  -7.981  -7.965  -7.964  -6.008  -6.007  -6.002  -6.001
 -6.001  -6.000  -5.954  -5.951  -5.950  -5.947  -5.947  -5.946
 -5.945  -5.943  -5.942  -5.942  -5.939  -5.938  -5.929  -5.929
 -5.926  -5.925  -5.921  -5.921  -1.027  -1.026  -0.970  -0.969
 -0.954  -0.954  -0.940  -0.937  -0.913  -0.908  -0.897  -0.896
 -0.839  -0.839  -0.827  -0.824  -0.810  -0.809  -0.805  -0.804
 -0.800  -0.796  -0.794  -0.794  -0.782  -0.779  -0.768  -0.765
 -0.749  -0.746  -0.741  -0.737  -0.725  -0.722  -0.705  -0.705
 -0.694  -0.690  -0.674  -0.672  -0.657  -0.653  -0.648  -0.643
 -0.640  -0.635  -0.627  -0.623  -0.613  -0.609  -0.599  -0.596
 -0.593  -0.589  -0.583  -0.582  -0.578  -0.575  -0.570  -0.551
 -0.546  -0.543  -0.537  -0.537  -0.520  -0.516  -0.509  -0.508
 -0.505  -0.501  -0.499  -0.497  -0.484  -0.483  -0.478  -0.475
 -0.472  -0.470  -0.469  -0.465  -0.463  -0.458  -0.455  -0.450
 -0.446  -0.444  -0.444  -0.439  -0.438  -0.436  -0.435  -0.434
 -0.433  -0.427  -0.426  -0.423  -0.421  -0.416  -0.413  -0.410
 -0.407  -0.404  -0.402  -0.400  -0.400  -0.398  -0.394  -0.392
 -0.391  -0.390  -0.389  -0.388  -0.385  -0.384  -0.383  -0.382
 -0.379  -0.375  -0.374  -0.373  -0.366  -0.363  -0.357  -0.351
 -0.351  -0.348  -0.348  -0.345  -0.345  -0.343  -0.341  -0.340
 -0.337  -0.335  -0.334  -0.332  -0.331  -0.328  -0.327  -0.311
 -0.311  -0.309  -0.308  -0.306  -0.305  -0.301  -0.296  -0.296
 -0.292  -0.290  -0.289  -0.285  -0.283  -0.281  -0.280  -0.279
 -0.272  -0.270  -0.266  -0.265  -0.252  -0.250  -0.247  -0.246
 -0.246  -0.243  -0.233  -0.227  -0.198  -0.191

          Ground-State Mulliken Net Atomic Charges

     Atom                 Charge (a.u.)
  ----------------------------------------
      1 C                     0.260055
      2 C                    -0.111095
      3 N                    -0.480371
      4 C                    -0.097454
      5 C                     0.052091
      6 C                     0.055413
      7 C                     0.052565
      8 C                     0.064003
      9 C                     0.183565
     10 N                    -0.533476
     11 N                    -0.565195
     12 C                     0.214813
     13 C                     0.360735
     14 S                     0.610105
     15 N                    -0.552587
     16 C                    -0.194472
     17 S                     0.330429
     18 C                    -0.131834
     19 C                    -0.253959
     20 S                     0.248959
     21 C                     0.174555
     22 C                     0.085417
     23 C                    -0.295489
     24 C                    -0.051152
     25 N                    -0.457204
     26 S                     0.230778
     27 C                     0.112712
     28 C                    -0.296406
     29 C                    -0.213833
     30 H                     0.103456
     31 H                     0.119239
     32 H                     0.112596
     33 H                     0.122510
     34 H                     0.134457
     35 H                     0.128631
     36 H                     0.122046
     37 H                     0.126472
     38 H                     0.117231
     39 C                    -0.188171
     40 H                     0.105602
     41 H                     0.095692
     42 H                     0.094937
     43 C                    -0.183005
     44 H                     0.088222
     45 C                    -0.184440
     46 H                     0.090724
     47 H                     0.092326
     48 H                     0.091794
     49 C                    -0.177163
     50 H                     0.098170
     51 C                    -0.323377
     52 H                     0.098454
     53 H                     0.101533
     54 H                     0.101659
     55 H                     0.105120
     56 C                     0.252503
     57 C                    -0.122769
     58 N                    -0.477463
     59 C                    -0.082707
     60 C                     0.089235
     61 C                     0.061514
     62 C                     0.034384
     63 C                     0.064421
     64 C                     0.217670
     65 N                    -0.552749
     66 N                    -0.545478
     67 C                     0.209333
     68 C                     0.312655
     69 S                     0.598276
     70 N                    -0.568033
     71 C                    -0.242826
     72 S                     0.334507
     73 C                    -0.130330
     74 C                    -0.198189
     75 S                     0.319912
     76 C                     0.152931
     77 C                     0.018195
     78 C                    -0.315482
     79 C                    -0.083273
     80 N                    -0.399466
     81 S                     0.284762
     82 C                     0.134279
     83 C                    -0.309926
     84 C                    -0.236430
     85 H                     0.094107
     86 H                     0.100453
     87 H                     0.106049
     88 H                     0.124763
     89 H                     0.135980
     90 H                     0.109156
     91 H                     0.120910
     92 H                     0.128900
     93 H                     0.096403
     94 C                    -0.164127
     95 H                     0.122517
     96 H                     0.105318
     97 H                     0.119332
     98 C                    -0.182596
     99 H                     0.093908
    100 C                    -0.186568
    101 H                     0.090666
    102 H                     0.087585
    103 H                     0.085363
    104 C                    -0.181805
    105 H                     0.088989
    106 C                    -0.318259
    107 H                     0.093819
    108 H                     0.101921
    109 H                     0.102025
    110 H                     0.109348
  ----------------------------------------
  Sum of atomic charges =     0.000000

                    Cartesian Multipole Moments
 -----------------------------------------------------------------
    Charge (ESU x 10^10)
                 0.0000
    Dipole Moment (Debye)
         X      -0.9493      Y      -0.0015      Z      -1.9739
       Tot       2.1903
    Quadrupole Moments (Debye-Ang)
        XX    -402.4707     XY     -30.1238     YY    -436.4391
        XZ      -6.4296     YZ      -8.4923     ZZ    -442.8301

 Total job time:  111.02s(wall), 1316.00s(cpu)
        *  Thank you very much for using Q-Chem.  Have a nice day.  *
