 Q-Chem 4.4, Q-Chem, Inc., Pleasanton, CA (2016)
 Q-Chem 4.4.2 for Intel X86 Linux

User input:
--------------------------------------------------------------
$comment
SP
$end

$rem
MEM_STATIC 5000
MEM_TOTAL 20000
JOBTYPE SP
EXCHANGE B3LYP
BASIS 6-31g(d,p)
$end

$molecule
0 1
C         -22.081000     -3.069000      2.351000
C         -23.038000     -2.712000      3.357000
N         -21.801000     -4.333000      2.067000
C         -23.800000     -3.726000      3.955000
C         -22.485000     -5.297000      2.706000
C         -23.597000     -5.068000      3.598000
C         -24.414000     -6.124000      4.207000
C         -25.808000     -5.982000      4.547000
C         -23.824000     -7.346000      4.634000
N         -26.587000     -7.015000      4.972000
N         -22.483000     -7.619000      4.518000
C         -24.561000     -8.301000      5.216000
C         -25.943000     -8.213000      5.136000
S         -22.331000     -9.036000      5.275000
N         -23.888000     -9.350000      5.703000
C         -26.855000     -9.254000      5.506000
S         -28.467000     -9.021000      6.128000
C         -26.682000    -10.573000      5.136000
C         -28.839000    -10.699000      6.064000
S         -25.609000    -11.300000      3.889000
C         -27.859000    -11.316000      5.335000
C         -30.143000    -11.200000      6.130000
C         -26.715000    -12.677000      3.790000
C         -27.789000    -12.564000      4.598000
N         -30.339000    -12.451000      6.473000
S         -31.574000    -10.228000      5.888000
C         -31.703000    -12.719000      6.451000
C         -32.539000    -11.654000      6.225000
C         -21.217000     -1.982000      1.664000
H         -23.263000     -1.702000      3.688000
H         -24.492000     -3.429000      4.737000
H         -22.273000     -6.299000      2.336000
H         -26.317000     -5.058000      4.273000
H         -26.594000    -13.441000      3.034000
H         -28.511000    -13.370000      4.666000
H         -32.015000    -13.746000      6.593000
H         -33.614000    -11.756000      6.293000
H         -20.482000     -1.756000      2.446000
C         -22.036000     -0.765000      1.145000
H         -20.679000     -2.588000      0.925000
H         -22.562000     -0.265000      1.968000
H         -22.772000     -1.122000      0.414000
C         -21.083000      0.115000      0.533000
H         -20.364000      0.498000      1.268000
C         -21.797000      1.323000     -0.148000
H         -20.500000     -0.390000     -0.247000
H         -21.816000      2.096000      0.630000
H         -22.806000      1.051000     -0.483000
C         -21.024000      2.033000     -1.298000
H         -20.962000      1.492000     -2.250000
C         -19.697000      2.635000     -0.810000
H         -21.734000      2.848000     -1.491000
H         -19.807000      3.146000      0.154000
H         -19.370000      3.429000     -1.492000
H         -18.912000      1.870000     -0.767000
C         -21.650000    -13.269000     -3.833000
C         -21.188000    -12.256000     -3.038000
N         -22.944000    -13.624000     -3.807000
C         -22.017000    -11.747000     -2.011000
C         -23.726000    -12.999000     -2.853000
C         -23.336000    -12.107000     -1.936000
C         -24.358000    -11.366000     -1.040000
C         -25.618000    -11.915000     -0.733000
C         -24.153000    -10.150000     -0.339000
N         -26.605000    -11.348000      0.015000
N         -22.997000     -9.409000     -0.402000
C         -25.096000     -9.549000      0.442000
C         -26.389000    -10.189000      0.614000
S         -23.174000     -8.111000      0.528000
N         -24.727000     -8.357000      1.066000
C         -27.462000     -9.553000      1.384000
S         -27.359000     -7.944000      2.183000
C         -28.627000    -10.175000      1.693000
C         -29.032000     -8.121000      2.806000
S         -29.288000    -11.629000      1.067000
C         -29.508000     -9.380000      2.395000
C         -29.788000     -7.140000      3.496000
C         -30.758000    -11.264000      1.926000
C         -30.780000    -10.045000      2.603000
N         -30.817000     -7.452000      4.290000
S         -29.291000     -5.428000      3.475000
C         -31.315000     -6.300000      4.793000
C         -30.566000     -5.158000      4.637000
C         -20.803000    -13.896000     -4.992000
H         -20.140000    -11.988000     -3.128000
H         -21.527000    -11.176000     -1.228000
H         -24.745000    -13.360000     -2.980000
H         -25.972000    -12.873000     -1.109000
H         -31.520000    -12.029000      1.869000
H         -31.645000     -9.580000      3.061000
H         -32.222000     -6.397000      5.376000
H         -30.720000     -4.205000      5.124000
H         -19.758000    -13.700000     -4.721000
C         -21.245000    -13.384000     -6.352000
H         -20.854000    -14.992000     -4.996000
H         -21.060000    -12.306000     -6.446000
H         -22.339000    -13.449000     -6.414000
C         -20.547000    -14.134000     -7.480000
H         -19.486000    -13.859000     -7.423000
C         -21.054000    -13.579000     -8.861000
H         -20.729000    -15.214000     -7.533000
H         -20.750000    -12.526000     -8.834000
H         -22.138000    -13.416000     -8.818000
C         -20.581000    -14.309000    -10.106000
H         -19.620000    -14.748000     -9.810000
C         -20.281000    -13.477000    -11.429000
H         -21.353000    -15.072000    -10.264000
H         -19.624000    -14.040000    -12.104000
H         -19.642000    -12.620000    -11.185000
H         -21.139000    -13.078000    -11.984000
$end

--------------------------------------------------------------

             Standard Nuclear Orientation (Angstroms)
    I     Atom           X                Y                Z
 ----------------------------------------------------------------
    1      C       0.1757436570    -6.5717441821    -0.7903021652
    2      C      -1.2444344957    -6.5580803772    -0.5947482976
    3      N       0.8265932016    -5.5240715784    -1.2756154513
    4      C      -1.9416878880    -5.3568759356    -0.7881121940
    5      C       0.1310057813    -4.4031269136    -1.5307902914
    6      C      -1.2606910398    -4.2020330193    -1.2030858454
    7      C      -1.9893320924    -2.9405053721    -1.3795404057
    8      C      -3.0867547373    -2.5101572625    -0.5492006904
    9      C      -1.7332831139    -2.1024126186    -2.5001440186
   10      N      -3.6526474286    -1.2742822439    -0.6324677325
   11      N      -0.8162157763    -2.4052571451    -3.4766370760
   12      C      -2.4159333605    -0.9641865467    -2.6799996547
   13      C      -3.1622910192    -0.4646709084    -1.6228798070
   14      S      -1.0315222215    -1.2278598437    -4.5589589918
   15      N      -2.1962452782    -0.3211925994    -3.8327333318
   16      C      -3.7590660141     0.8370542899    -1.5816959063
   17      S      -5.2239053384     1.2585687641    -0.7353577339
   18      C      -3.0897737140     1.9842761278    -1.9592139478
   19      C      -5.0337694255     2.9398489180    -1.0440799049
   20      S      -1.3344781943     2.2725907839    -2.2250697310
   21      C      -3.7653428973     3.1359841750    -1.5185850193
   22      C      -5.7274740139     3.9327088110    -0.3449546108
   23      C      -1.6000778998     3.9879798649    -1.8843893864
   24      C      -2.8790848950     4.2835750065    -1.5747547328
   25      N      -5.8487954434     5.1289392710    -0.8697210326
   26      S      -6.5591552185     3.6600689697     1.1666944526
   27      C      -6.5560466844     5.9405675387     0.0099716622
   28      C      -7.0792667923     5.3351930032     1.1253009366
   29      C       0.9866001170    -7.8762741383    -0.5884423258
   30      H      -1.8476970095    -7.4009297690    -0.2692252689
   31      H      -3.0200150524    -5.3855251747    -0.6656918218
   32      H       0.7560527092    -3.5597970754    -1.8205472961
   33      H      -3.3550952817    -3.1206545026     0.3129010856
   34      H      -0.7712096354     4.6762749946    -1.7889943407
   35      H      -3.1770900371     5.3111281848    -1.3990521400
   36      H      -6.6315345239     6.9937836194    -0.2293491968
   37      H      -7.7272368544     5.8706311850     1.8065452042
   38      H       0.7402261452    -8.4337850398    -1.5002024153
   39      C       0.6733958979    -8.6091101934     0.7479952648
   40      H       2.0075703631    -7.5057551818    -0.7405490627
   41      H      -0.3850125829    -8.8934537438     0.8020806879
   42      H       0.9062915401    -7.9353552774     1.5818537258
   43      C       1.5192454084    -9.7672821296     0.7661438731
   44      H       1.2679858018   -10.4578035895    -0.0486712737
   45      C       1.3964363650   -10.5259044470     2.1234320218
   46      H       2.5772620002    -9.5046746449     0.6438646829
   47      H       0.6066438179   -11.2660923884     1.9458833127
   48      H       1.1413387470    -9.8394980936     2.9407823281
   49      C       2.6012973375   -11.4227459760     2.5334494709
   50      H       3.5048825445   -10.9005556550     2.8706141819
   51      C       2.8479096623   -12.5500021711     1.5185835526
   52      H       2.1765710141   -11.8556080932     3.4487701457
   53      H       1.9136320054   -13.0257295041     1.1971403001
   54      H       3.4088740614   -13.3656694535     1.9902771262
   55      H       3.4239533228   -12.1847144913     0.6594923978
   56      C       7.4655533917     2.8758826454    -1.0522913989
   57      C       6.8872852770     1.7168947540    -1.4927355556
   58      N       6.7786123319     3.7344854318    -0.2828433917
   59      C       5.4918295522     1.5381434086    -1.3450796156
   60      C       5.4435580845     3.4352949232    -0.0818951492
   61      C       4.7527916974     2.4087434023    -0.5895237273
   62      C       3.3019268052     2.1075394962    -0.1415859289
   63      C       2.4525011612     3.1112334641     0.3627200240
   64      C       2.6083734071     0.8768096175    -0.2695298605
   65      N       1.1755098823     2.9622456912     0.8124509627
   66      N       3.1645577805    -0.2724967745    -0.7785875785
   67      C       1.3232814122     0.6766970842     0.1414501133
   68      C       0.5810613916     1.7847781473     0.7179037529
   69      S       2.0535810634    -1.4325337203    -0.7457543912
   70      N       0.7896912434    -0.5958268304    -0.0643785013
   71      C      -0.7770962874     1.6076110967     1.2401532670
   72      S      -1.6892529442     0.0567731573     1.2677742567
   73      C      -1.5583826266     2.6379352283     1.6495599600
   74      C      -3.1037041873     0.8756639589     2.0074583352
   75      S      -1.1353704557     4.2697465513     1.9676252197
   76      C      -2.7861109821     2.2407214595     2.1352494770
   77      C      -4.2894155820     0.2584035654     2.4797665981
   78      C      -2.7344529406     4.4982399968     2.6178036197
   79      C      -3.5395871408     3.3606031115     2.6659205276
   80      N      -5.4423053503     0.9218148975     2.6114920189
   81      S      -4.3477589594    -1.5006117298     2.7641171588
   82      C      -6.3680102468     0.0533037481     3.0771913084
   83      C      -6.0553707874    -1.2851248685     3.0580495617
   84      C       9.0007081781     3.1621399844    -1.1754803500
   85      H       7.5023687036     1.0433547898    -2.0811608226
   86      H       5.0319304191     0.7693473979    -1.9588185513
   87      H       5.0365846490     4.1941702382     0.5839065323
   88      H       2.7489938899     4.1503146274     0.4925599174
   89      H      -2.9649076128     5.5127018725     2.9125505397
   90      H      -4.4954771827     3.2708238137     3.1683425668
   91      H      -7.3289820987     0.4835153998     3.3289809719
   92      H      -6.7296419236    -2.1151080681     3.2179880601
   93      H       9.3430996880     2.5335687366    -2.0070741453
   94      C       9.7179196103     2.9627114577     0.1485075745
   95      H       9.2048556069     4.1782025303    -1.5357215610
   96      H       9.6719412052     1.9131403639     0.4669907065
   97      H       9.1543263679     3.4802567315     0.9355365109
   98      C      11.1690273307     3.4206834747     0.0670458332
   99      H      11.6735852256     2.7265829883    -0.6172354288
  100      C      11.8566343792     3.2105146795     1.4653521746
  101      H      11.3336421337     4.4796253835    -0.1650683638
  102      H      11.7881474546     2.1269091482     1.6172159091
  103      H      11.1676696536     3.5107045790     2.2645315231
  104      C      13.2674393893     3.7508899898     1.6211653556
  105      H      13.6752836025     3.7320076929     0.6027525922
  106      C      14.3129617454     2.9503496804     2.5147934750
  107      H      13.1108824078     4.7737428921     1.9850044022
  108      H      15.3423153209     3.2285377059     2.2553987194
  109      H      14.3054711169     1.8923382474     2.2269363958
  110      H      14.1777513798     2.9782185680     3.6030634241
 ----------------------------------------------------------------

   10   -5663.4931638621      7.70E-06 Convergence criterion met
 Total energy in the final basis set = -5663.4931638621

                    Orbital Energies (a.u.)
 --------------------------------------------------------------

 Alpha MOs
 -- Occupied --
-88.991 -88.990 -88.924 -88.922 -88.918 -88.916 -88.905 -88.904
-14.390 -14.385 -14.384 -14.380 -14.352 -14.348 -14.344 -14.332
-14.331 -14.326 -10.267 -10.262 -10.257 -10.254 -10.254 -10.253
-10.250 -10.246 -10.241 -10.240 -10.238 -10.235 -10.232 -10.231
-10.231 -10.230 -10.227 -10.226 -10.225 -10.225 -10.225 -10.223
-10.220 -10.219 -10.219 -10.219 -10.218 -10.217 -10.217 -10.214
-10.210 -10.206 -10.206 -10.204 -10.201 -10.196 -10.194 -10.190
-10.186 -10.185 -10.184 -10.181 -10.180 -10.178 -10.177 -10.177
-10.175 -10.175 -10.172 -10.169  -8.046  -8.045  -7.984  -7.979
 -7.978  -7.976  -7.966  -7.964  -6.011  -6.010  -6.005  -6.005
 -6.004  -6.003  -5.948  -5.945  -5.944  -5.942  -5.941  -5.941
 -5.940  -5.939  -5.937  -5.936  -5.935  -5.933  -5.931  -5.929
 -5.927  -5.925  -5.923  -5.920  -1.046  -1.031  -0.969  -0.962
 -0.961  -0.955  -0.943  -0.937  -0.913  -0.911  -0.905  -0.892
 -0.844  -0.841  -0.835  -0.835  -0.819  -0.812  -0.809  -0.804
 -0.802  -0.799  -0.798  -0.794  -0.781  -0.780  -0.766  -0.765
 -0.750  -0.749  -0.739  -0.733  -0.724  -0.722  -0.709  -0.706
 -0.693  -0.690  -0.674  -0.671  -0.661  -0.650  -0.649  -0.646
 -0.638  -0.636  -0.628  -0.625  -0.609  -0.608  -0.597  -0.596
 -0.589  -0.586  -0.582  -0.580  -0.579  -0.575  -0.569  -0.563
 -0.553  -0.551  -0.537  -0.535  -0.521  -0.516  -0.511  -0.508
 -0.507  -0.504  -0.496  -0.490  -0.488  -0.487  -0.479  -0.475
 -0.471  -0.469  -0.469  -0.465  -0.464  -0.459  -0.451  -0.447
 -0.444  -0.442  -0.440  -0.439  -0.432  -0.431  -0.430  -0.429
 -0.423  -0.422  -0.421  -0.420  -0.417  -0.414  -0.414  -0.412
 -0.410  -0.409  -0.408  -0.402  -0.398  -0.397  -0.395  -0.394
 -0.392  -0.391  -0.389  -0.389  -0.388  -0.384  -0.379  -0.378
 -0.376  -0.376  -0.373  -0.368  -0.365  -0.363  -0.356  -0.355
 -0.353  -0.352  -0.352  -0.350  -0.348  -0.345  -0.343  -0.340
 -0.339  -0.336  -0.336  -0.331  -0.327  -0.326  -0.324  -0.318
 -0.317  -0.313  -0.310  -0.308  -0.304  -0.302  -0.300  -0.297
 -0.295  -0.294  -0.292  -0.289  -0.287  -0.283  -0.279  -0.278
 -0.273  -0.271  -0.268  -0.262  -0.255  -0.254  -0.251  -0.247
 -0.244  -0.238  -0.233  -0.226  -0.194  -0.189

          Ground-State Mulliken Net Atomic Charges

     Atom                 Charge (a.u.)
  ----------------------------------------
      1 C                     0.253277
      2 C                    -0.109986
      3 N                    -0.483355
      4 C                    -0.086241
      5 C                     0.094447
      6 C                     0.034062
      7 C                     0.032381
      8 C                     0.058633
      9 C                     0.220458
     10 N                    -0.515251
     11 N                    -0.544752
     12 C                     0.231528
     13 C                     0.274354
     14 S                     0.610455
     15 N                    -0.540519
     16 C                    -0.217634
     17 S                     0.343665
     18 C                    -0.118362
     19 C                    -0.193585
     20 S                     0.238050
     21 C                     0.114729
     22 C                     0.027780
     23 C                    -0.295900
     24 C                    -0.034308
     25 N                    -0.417385
     26 S                     0.291972
     27 C                     0.105434
     28 C                    -0.315619
     29 C                    -0.240134
     30 H                     0.088349
     31 H                     0.098092
     32 H                     0.099078
     33 H                     0.110823
     34 H                     0.137702
     35 H                     0.117773
     36 H                     0.105299
     37 H                     0.127051
     38 H                     0.117477
     39 C                    -0.169179
     40 H                     0.122494
     41 H                     0.096474
     42 H                     0.105940
     43 C                    -0.161105
     44 H                     0.093719
     45 C                    -0.185845
     46 H                     0.095007
     47 H                     0.090176
     48 H                     0.085880
     49 C                    -0.183049
     50 H                     0.093270
     51 C                    -0.317268
     52 H                     0.092585
     53 H                     0.100720
     54 H                     0.101591
     55 H                     0.109215
     56 C                     0.250975
     57 C                    -0.113895
     58 N                    -0.480227
     59 C                    -0.093023
     60 C                     0.024227
     61 C                     0.114354
     62 C                     0.076853
     63 C                     0.021467
     64 C                     0.206174
     65 N                    -0.544458
     66 N                    -0.556501
     67 C                     0.195156
     68 C                     0.343351
     69 S                     0.625140
     70 N                    -0.586264
     71 C                    -0.216937
     72 S                     0.346366
     73 C                    -0.101321
     74 C                    -0.233187
     75 S                     0.295675
     76 C                     0.131384
     77 C                     0.058100
     78 C                    -0.320967
     79 C                    -0.042744
     80 N                    -0.417251
     81 S                     0.261997
     82 C                     0.125177
     83 C                    -0.303325
     84 C                    -0.213299
     85 H                     0.087031
     86 H                     0.122131
     87 H                     0.098485
     88 H                     0.113715
     89 H                     0.125717
     90 H                     0.127706
     91 H                     0.105915
     92 H                     0.132336
     93 H                     0.085588
     94 C                    -0.171839
     95 H                     0.112720
     96 H                     0.092665
     97 H                     0.121129
     98 C                    -0.181218
     99 H                     0.096358
    100 C                    -0.183691
    101 H                     0.097574
    102 H                     0.082926
    103 H                     0.088322
    104 C                    -0.176541
    105 H                     0.095898
    106 C                    -0.329428
    107 H                     0.100090
    108 H                     0.103587
    109 H                     0.102598
    110 H                     0.106765
  ----------------------------------------
  Sum of atomic charges =     0.000000

                    Cartesian Multipole Moments
 -----------------------------------------------------------------
    Charge (ESU x 10^10)
                 0.0000
    Dipole Moment (Debye)
         X      -1.5248      Y      -3.0644      Z       1.7144
       Tot       3.8282
    Quadrupole Moments (Debye-Ang)
        XX    -429.1551     XY       0.3269     YY    -414.4141
        XZ     -27.9116     YZ       3.8047     ZZ    -445.3369

 Total job time:  113.93s(wall), 1346.24s(cpu)
        *  Thank you very much for using Q-Chem.  Have a nice day.  *
