 Q-Chem 4.4, Q-Chem, Inc., Pleasanton, CA (2016)
 Q-Chem 4.4.2 for Intel X86 Linux

User input:
--------------------------------------------------------------
$comment
SP
$end

$rem
MEM_STATIC 5000
MEM_TOTAL 20000
JOBTYPE SP
EXCHANGE B3LYP
BASIS 6-31g(d,p)
$end

$molecule
0 1
C          16.933000     15.139000    -13.699000
C          17.678000     13.918000    -13.775000
N          17.247000     16.231000    -12.968000
C          18.928000     13.857000    -13.095000
C          18.440000     16.164000    -12.371000
C          19.347000     15.019000    -12.374000
C          20.523000     15.044000    -11.481000
C          20.505000     15.561000    -10.176000
C          21.699000     14.330000    -11.821000
N          21.549000     15.348000     -9.318000
N          21.941000     13.977000    -13.055000
C          22.759000     14.132000    -10.941000
C          22.613000     14.638000     -9.632000
S          23.364000     13.183000    -12.965000
N          23.774000     13.410000    -11.395000
C          23.661000     14.515000     -8.593000
S          25.153000     13.544000     -8.663000
C          23.537000     15.035000     -7.283000
C          25.379000     13.672000     -6.903000
S          22.597000     16.435000     -6.701000
C          24.429000     14.554000     -6.367000
C          26.424000     13.065000     -6.145000
C          23.396000     16.252000     -5.154000
C          24.350000     15.255000     -5.134000
N          27.184000     12.308000     -6.873000
S          26.475000     12.757000     -4.420000
C          27.967000     11.461000     -6.095000
C          27.648000     11.521000     -4.764000
C          15.496000     15.212000    -14.140000
H          17.210000     13.101000    -14.317000
H          19.458000     12.911000    -13.145000
H          18.645000     17.037000    -11.754000
H          19.654000     16.171000     -9.876000
H          23.133000     16.966000     -4.385000
H          24.940000     15.012000     -4.258000
H          28.700000     10.829000     -6.578000
H          27.979000     10.961000     -3.899000
H          15.142000     14.201000    -14.374000
C          15.180000     16.039000    -15.474000
H          14.995000     15.670000    -13.278000
H          15.499000     17.089000    -15.484000
H          14.097000     16.140000    -15.613000
C          15.725000     15.281000    -16.748000
H          16.805000     15.134000    -16.625000
C          15.679000     16.105000    -17.993000
H          15.265000     14.297000    -16.901000
H          16.313000     15.587000    -18.722000
H          16.244000     17.040000    -17.901000
C          14.360000     16.358000    -18.675000
H          13.758000     16.928000    -17.957000
C          13.549000     15.086000    -18.937000
H          14.461000     17.003000    -19.557000
H          12.577000     15.230000    -19.425000
H          13.382000     14.444000    -18.064000
H          14.139000     14.582000    -19.712000
C          20.055000     12.988000     -7.362000
C          21.378000     12.522000     -7.455000
N          19.042000     12.690000     -8.255000
C          21.696000     11.549000     -8.382000
C          19.451000     11.913000     -9.309000
C          20.707000     11.247000     -9.366000
C          21.034000     10.311000    -10.451000
C          22.410000     10.094000    -10.797000
C          20.107000      9.480000    -11.181000
N          22.875000      9.160000    -11.716000
N          18.797000      9.515000    -11.027000
C          20.573000      8.564000    -12.137000
C          21.920000      8.480000    -12.415000
S          18.198000      8.446000    -12.111000
N          19.611000      7.824000    -12.719000
C          22.510000      7.592000    -13.474000
S          21.573000      6.699000    -14.684000
C          23.819000      7.354000    -13.701000
C          23.044000      6.485000    -15.742000
S          25.312000      7.700000    -12.816000
C          24.128000      6.711000    -14.919000
C          23.084000      5.768000    -16.976000
C          26.293000      7.092000    -14.189000
C          25.474000      6.517000    -15.143000
N          24.194000      5.739000    -17.650000
S          21.595000      5.249000    -17.838000
C          23.966000      5.355000    -18.947000
C          22.676000      4.929000    -19.174000
C          19.715000     14.123000     -6.270000
H          22.163000     12.851000     -6.780000
H          22.744000     11.268000     -8.350000
H          18.756000     11.809000    -10.141000
H          23.184000     10.713000    -10.346000
H          27.369000      7.066000    -14.083000
H          25.909000      5.995000    -15.987000
H          24.692000      5.505000    -19.735000
H          22.264000      4.678000    -20.142000
H          20.084000     15.025000     -6.773000
C          20.406000     13.995000     -4.908000
H          18.623000     14.036000     -6.212000
H          20.114000     14.844000     -4.277000
H          21.464000     14.152000     -5.152000
C          20.199000     12.605000     -4.270000
H          19.169000     12.358000     -3.987000
C          21.188000     12.460000     -3.053000
H          20.464000     11.857000     -5.028000
H          20.991000     13.326000     -2.409000
H          22.181000     12.712000     -3.445000
C          20.903000     11.049000     -2.430000
H          21.326000     10.977000     -1.421000
C          21.469000      9.921000     -3.294000
H          19.823000     10.942000     -2.270000
H          22.556000     10.071000     -3.310000
H          21.004000      9.813000     -4.281000
H          21.372000      8.899000     -2.908000
$end

--------------------------------------------------------------

             Standard Nuclear Orientation (Angstroms)
    I     Atom           X                Y                Z
 ----------------------------------------------------------------
    1      C      -2.5543460525    -5.8435710138     0.0263899489
    2      C      -2.8307321775    -4.4505206287    -0.1597909703
    3      N      -1.4349835413    -6.3791455163     0.5608134896
    4      C      -1.8876200487    -3.5108847739     0.3464154824
    5      C      -0.5844174112    -5.4792745387     1.0617291332
    6      C      -0.7232213218    -4.0265919097     0.9974667513
    7      C       0.4190104173    -3.1864808907     1.4104681191
    8      C       1.7594613862    -3.4923648400     1.1271587305
    9      C       0.2036488268    -1.8862848663     1.9315071614
   10      N       2.7508679525    -2.5708979763     1.3258565896
   11      N      -0.9530657012    -1.5428143404     2.4314756591
   12      C       1.2244564785    -0.9634478376     2.1401397490
   13      C       2.5282720952    -1.3482730895     1.7622411342
   14      S      -0.7409654743     0.0114761548     2.8816529023
   15      N       0.8585283569     0.2255977741     2.5982796220
   16      C       3.7137430880    -0.4781432605     1.9368452746
   17      S       3.7413867418     1.2420011555     2.3996022480
   18      C       5.0295345870    -0.8581220609     1.5816202160
   19      C       5.4244205883     1.4150665217     1.8495972930
   20      S       5.7647695224    -2.4822419705     1.5184687385
   21      C       5.9373006950     0.1588863743     1.4936683205
   22      C       6.1909843901     2.6181070862     1.8601489795
   23      C       7.3132206955    -1.7055856976     1.2650856326
   24      C       7.2593280973    -0.3273209282     1.3098831022
   25      N       5.4952928424     3.6414204195     2.2467703605
   26      S       7.6427822604     2.9875972761     0.9497370159
   27      C       6.1225547082     4.8422076425     1.9298561815
   28      C       7.2432574598     4.6661016014     1.1617845670
   29      C      -3.3327137355    -6.9041117800    -0.7044835239
   30      H      -3.7301392752    -4.2083207954    -0.7189717223
   31      H      -2.1072440453    -2.4631834403     0.1664065498
   32      H       0.3265271280    -5.9367201928     1.4435229520
   33      H       1.9957167234    -4.4978355083     0.7814519895
   34      H       8.1722268439    -2.3562796592     1.1700498223
   35      H       8.1273088221     0.3078208880     1.1767315545
   36      H       5.6814162732     5.7716286599     2.2638853023
   37      H       7.9185427518     5.3551977423     0.6713538554
   38      H      -3.9909117388    -6.4231118380    -1.4377007115
   39      C      -4.3314064507    -7.8076183780     0.1613280537
   40      H      -2.5463764846    -7.5243775977    -1.1525382564
   41      H      -3.8880439179    -8.3564859523     1.0018844470
   42      H      -4.7291959531    -8.6280776420    -0.4477869666
   43      C      -5.5771258933    -6.9649436444     0.6437670278
   44      H      -5.2103434447    -6.1140102061     1.2307260714
   45      C      -6.4203870574    -7.6766050440     1.6505270099
   46      H      -6.1837238028    -6.5706840633    -0.1807712423
   47      H      -7.0705402865    -6.9134730499     2.0939808837
   48      H      -5.8553549770    -7.9674874117     2.5438579656
   49      C      -7.3188169549    -8.8033778833     1.2122340852
   50      H      -6.6514943883    -9.5833230432     0.8259775129
   51      C      -8.2219860811    -8.4452549728     0.0288564994
   52      H      -7.8571054083    -9.2611779406     2.0517664839
   53      H      -8.8856265989    -9.2437220232    -0.3256792992
   54      H      -7.7094993589    -8.0351884845    -0.8494286677
   55      H      -8.9209961355    -7.7252495466     0.4712569175
   56      C       3.2631292497    -1.7432115194    -1.9421849481
   57      C       3.3959779811    -0.5079026281    -1.2845397873
   58      N       2.0732874908    -2.2732032783    -2.4067356175
   59      C       2.3220869026     0.3590225809    -1.2357480519
   60      C       0.9791535593    -1.4952931136    -2.1245074909
   61      C       1.0562815347    -0.1575110835    -1.6462486538
   62      C      -0.1436690366     0.6784780354    -1.4996511795
   63      C      -0.1363591500     1.7521882362    -0.5471418775
   64      C      -1.3467210754     0.6061236610    -2.2935155486
   65      N      -1.1478308416     2.6913516804    -0.3796932523
   66      N      -1.5696927730    -0.3021747684    -3.2242779164
   67      C      -2.3848139285     1.5304810912    -2.0983884894
   68      C      -2.2791248990     2.4917991127    -1.1168353881
   69      S      -3.0780662681    -0.0001091497    -3.7812193508
   70      N      -3.4340805931     1.3773790176    -2.9274646147
   71      C      -3.3644412782     3.4736544413    -0.7759930919
   72      S      -5.0211354178     3.4090375478    -1.4010588363
   73      C      -3.2769614699     4.5246235634     0.0663044729
   74      C      -5.6227731101     4.4998203392    -0.0679324397
   75      S      -1.9411502393     5.3461706050     0.8864622716
   76      C      -4.5001443504     5.1262175333     0.4328591567
   77      C      -6.9623029346     4.9710559191     0.0805326322
   78      C      -3.0997184422     6.3702363633     1.7953973859
   79      C      -4.3843011878     6.1705075876     1.3248045833
   80      N      -7.2594183824     5.7054930586     1.1098729543
   81      S      -8.3359639980     4.2798434707    -0.8494171697
   82      C      -8.6169259054     5.7472924894     1.3024219935
   83      C      -9.3338087375     5.1644201083     0.2809310281
   84      C       4.5341610677    -2.7327092395    -1.9829449729
   85      H       4.3365670134    -0.1697921879    -0.8590229222
   86      H       2.5522085526     1.2800439852    -0.7093901897
   87      H       0.0011815717    -1.9461608029    -2.2868470062
   88      H       0.7005403595     1.8570489492     0.1415100243
   89      H      -2.7076222585     7.1291333602     2.4587403824
   90      H      -5.1953525524     6.7936161524     1.6825424770
   91      H      -9.0636836715     6.0822823958     2.2290876619
   92      H     -10.4035346699     5.0048813838     0.2826117793
   93      H       4.4997147817    -3.1710809751    -0.9782471702
   94      C       5.9052976081    -2.0815598130    -2.1948364828
   95      H       4.2453327145    -3.4096424726    -2.7964169026
   96      H       6.6790663524    -2.8592603160    -2.1685713310
   97      H       6.0421404845    -1.4907118365    -1.2806583295
   98      C       5.9386047855    -1.1683646942    -3.4386042693
   99      H       5.8136349135    -1.6720211300    -4.4043737686
  100      C       7.2589644871    -0.3110277253    -3.3954930145
  101      H       5.0783027434    -0.4908148997    -3.3671922796
  102      H       8.0772528544    -1.0355617252    -3.3008588191
  103      H       7.2776056381     0.1568105748    -2.4035268697
  104      C       7.2494233403     0.5633732361    -4.6976477385
  105      H       8.2477491000     0.9685358978    -4.9010756006
  106      C       6.2491057806     1.7163210614    -4.6011485581
  107      H       7.0483816524    -0.0842865201    -5.5599516756
  108      H       6.5957796380     2.3465942439    -3.7723554887
  109      H       5.1965344881     1.4151893724    -4.5422301382
  110      H       6.2149631424     2.4200533408    -5.4416746786
 ----------------------------------------------------------------

   10   -5663.4991818858      4.32E-06 Convergence criterion met
 Total energy in the final basis set = -5663.4991818858

                    Orbital Energies (a.u.)
 --------------------------------------------------------------

 Alpha MOs
 -- Occupied --
-88.989 -88.982 -88.933 -88.933 -88.923 -88.916 -88.916 -88.903
-14.393 -14.390 -14.385 -14.382 -14.355 -14.348 -14.344 -14.342
-14.333 -14.333 -10.268 -10.268 -10.262 -10.261 -10.258 -10.255
-10.250 -10.249 -10.246 -10.244 -10.241 -10.240 -10.240 -10.237
-10.237 -10.236 -10.233 -10.232 -10.231 -10.230 -10.229 -10.229
-10.228 -10.227 -10.226 -10.225 -10.224 -10.224 -10.221 -10.221
-10.216 -10.211 -10.210 -10.207 -10.206 -10.203 -10.189 -10.189
-10.184 -10.183 -10.180 -10.176 -10.176 -10.176 -10.174 -10.173
-10.170 -10.170 -10.170 -10.168  -8.045  -8.039  -7.994  -7.990
 -7.984  -7.975  -7.975  -7.963  -6.010  -6.004  -6.004  -6.002
 -5.998  -5.996  -5.958  -5.955  -5.955  -5.951  -5.951  -5.948
 -5.947  -5.945  -5.941  -5.940  -5.940  -5.936  -5.936  -5.932
 -5.931  -5.927  -5.924  -5.919  -1.052  -1.043  -0.980  -0.974
 -0.960  -0.948  -0.941  -0.923  -0.923  -0.915  -0.913  -0.907
 -0.849  -0.836  -0.832  -0.829  -0.814  -0.807  -0.806  -0.804
 -0.803  -0.799  -0.796  -0.794  -0.785  -0.777  -0.769  -0.761
 -0.751  -0.743  -0.738  -0.733  -0.730  -0.717  -0.711  -0.702
 -0.693  -0.689  -0.676  -0.674  -0.658  -0.651  -0.648  -0.643
 -0.638  -0.633  -0.627  -0.619  -0.617  -0.613  -0.608  -0.602
 -0.598  -0.590  -0.587  -0.581  -0.578  -0.573  -0.568  -0.549
 -0.548  -0.547  -0.542  -0.536  -0.530  -0.525  -0.522  -0.508
 -0.504  -0.502  -0.501  -0.498  -0.490  -0.482  -0.478  -0.475
 -0.474  -0.469  -0.467  -0.462  -0.460  -0.455  -0.453  -0.449
 -0.448  -0.447  -0.444  -0.440  -0.439  -0.437  -0.430  -0.430
 -0.428  -0.426  -0.422  -0.422  -0.420  -0.418  -0.414  -0.411
 -0.410  -0.409  -0.402  -0.402  -0.401  -0.398  -0.398  -0.397
 -0.395  -0.394  -0.389  -0.388  -0.387  -0.384  -0.383  -0.382
 -0.380  -0.375  -0.374  -0.367  -0.362  -0.361  -0.359  -0.356
 -0.354  -0.352  -0.349  -0.349  -0.348  -0.343  -0.342  -0.341
 -0.335  -0.334  -0.330  -0.329  -0.327  -0.324  -0.323  -0.321
 -0.321  -0.315  -0.315  -0.311  -0.308  -0.304  -0.299  -0.297
 -0.294  -0.292  -0.290  -0.288  -0.287  -0.286  -0.283  -0.282
 -0.278  -0.271  -0.269  -0.264  -0.262  -0.259  -0.255  -0.250
 -0.248  -0.240  -0.232  -0.226  -0.194  -0.190

          Ground-State Mulliken Net Atomic Charges

     Atom                 Charge (a.u.)
  ----------------------------------------
      1 C                     0.281305
      2 C                    -0.124635
      3 N                    -0.464699
      4 C                    -0.049010
      5 C                     0.067706
      6 C                     0.026122
      7 C                     0.032481
      8 C                     0.083869
      9 C                     0.204784
     10 N                    -0.558157
     11 N                    -0.520214
     12 C                     0.210306
     13 C                     0.359241
     14 S                     0.593260
     15 N                    -0.568615
     16 C                    -0.242647
     17 S                     0.360287
     18 C                    -0.150001
     19 C                    -0.228112
     20 S                     0.283677
     21 C                     0.153375
     22 C                     0.075361
     23 C                    -0.302449
     24 C                    -0.081288
     25 N                    -0.431591
     26 S                     0.272467
     27 C                     0.124788
     28 C                    -0.321001
     29 C                    -0.229423
     30 H                     0.099168
     31 H                     0.109980
     32 H                     0.099689
     33 H                     0.119944
     34 H                     0.135248
     35 H                     0.109606
     36 H                     0.122870
     37 H                     0.143123
     38 H                     0.087834
     39 C                    -0.181688
     40 H                     0.123598
     41 H                     0.106394
     42 H                     0.095760
     43 C                    -0.177834
     44 H                     0.097291
     45 C                    -0.177551
     46 H                     0.090576
     47 H                     0.080787
     48 H                     0.090252
     49 C                    -0.172449
     50 H                     0.089596
     51 C                    -0.318234
     52 H                     0.091713
     53 H                     0.098519
     54 H                     0.105697
     55 H                     0.098930
     56 C                     0.240657
     57 C                    -0.095421
     58 N                    -0.483939
     59 C                    -0.087020
     60 C                     0.078197
     61 C                     0.022807
     62 C                     0.050790
     63 C                     0.027534
     64 C                     0.229154
     65 N                    -0.528161
     66 N                    -0.553703
     67 C                     0.249356
     68 C                     0.296694
     69 S                     0.592803
     70 N                    -0.570280
     71 C                    -0.243567
     72 S                     0.288411
     73 C                    -0.077703
     74 C                    -0.210290
     75 S                     0.264510
     76 C                     0.132863
     77 C                     0.061799
     78 C                    -0.312433
     79 C                    -0.045903
     80 N                    -0.431525
     81 S                     0.256998
     82 C                     0.121926
     83 C                    -0.307019
     84 C                    -0.234667
     85 H                     0.099462
     86 H                     0.116269
     87 H                     0.120370
     88 H                     0.129855
     89 H                     0.132836
     90 H                     0.128943
     91 H                     0.119430
     92 H                     0.128449
     93 H                     0.138091
     94 C                    -0.190341
     95 H                     0.109445
     96 H                     0.090044
     97 H                     0.100059
     98 C                    -0.173891
     99 H                     0.092797
    100 C                    -0.176940
    101 H                     0.103065
    102 H                     0.086089
    103 H                     0.089488
    104 C                    -0.178602
    105 H                     0.085123
    106 C                    -0.315533
    107 H                     0.096375
    108 H                     0.103396
    109 H                     0.111640
    110 H                     0.095205
  ----------------------------------------
  Sum of atomic charges =     0.000000

                    Cartesian Multipole Moments
 -----------------------------------------------------------------
    Charge (ESU x 10^10)
                 0.0000
    Dipole Moment (Debye)
         X       0.8644      Y       2.5691      Z       0.4798
       Tot       2.7528
    Quadrupole Moments (Debye-Ang)
        XX    -376.7574     XY       8.9830     YY    -443.8735
        XZ      -0.6437     YZ       6.4611     ZZ    -453.0393

 Total job time:  104.05s(wall), 1254.22s(cpu)
        *  Thank you very much for using Q-Chem.  Have a nice day.  *
