 Q-Chem 4.4, Q-Chem, Inc., Pleasanton, CA (2016)
 Q-Chem 4.4.2 for Intel X86 Linux

User input:
--------------------------------------------------------------
$comment
SP
$end

$rem
MEM_STATIC 5000
MEM_TOTAL 20000
JOBTYPE SP
EXCHANGE B3LYP
BASIS 6-31g(d,p)
$end

$molecule
0 1
C          -2.102000     19.403000     -3.314000
C          -2.290000     20.764000     -3.073000
N          -1.228000     18.913000     -4.176000
C          -1.425000     21.683000     -3.597000
C          -0.322000     19.821000     -4.698000
C          -0.416000     21.221000     -4.435000
C           0.544000     22.269000     -4.994000
C           0.075000     23.429000     -5.639000
C           1.995000     22.144000     -4.990000
N           0.809000     24.448000     -6.034000
N           2.555000     21.012000     -4.523000
C           2.768000     23.206000     -5.184000
C           2.139000     24.384000     -5.655000
S           4.180000     21.360000     -4.601000
N           4.107000     22.920000     -5.129000
C           2.937000     25.598000     -5.885000
S           2.604000     26.789000     -7.138000
C           3.636000     26.175000     -4.849000
C           3.465000     28.042000     -6.199000
S           4.196000     25.455000     -3.356000
C           3.930000     27.503000     -5.006000
C           3.819000     29.339000     -6.584000
C           4.786000     27.049000     -2.881000
C           4.596000     28.025000     -3.836000
N           2.884000     30.026000     -7.296000
S           5.326000     30.103000     -6.243000
C           3.444000     31.344000     -7.607000
C           4.702000     31.575000     -7.081000
C          -3.160000     18.447000     -2.845000
H          -3.036000     20.961000     -2.309000
H          -1.535000     22.701000     -3.235000
H           0.392000     19.461000     -5.437000
H          -0.986000     23.675000     -5.632000
H           5.084000     27.285000     -1.868000
H           4.785000     29.085000     -3.713000
H           2.865000     32.049000     -8.188000
H           5.331000     32.456000     -7.071000
H          -3.913000     18.950000     -2.226000
C          -2.815000     17.125000     -2.122000
H          -3.767000     18.067000     -3.676000
H          -2.499000     17.346000     -1.095000
H          -1.929000     16.661000     -2.573000
C          -3.852000     16.028000     -2.305000
H          -4.828000     16.392000     -1.960000
C          -3.534000     14.699000     -1.606000
H          -4.011000     15.910000     -3.384000
H          -4.292000     13.974000     -1.926000
H          -3.586000     14.769000     -0.512000
C          -2.125000     14.216000     -1.995000
H          -1.876000     14.240000     -3.063000
C          -1.944000     12.772000     -1.615000
H          -1.375000     14.840000     -1.493000
H          -2.572000     12.056000     -2.160000
H          -2.335000     12.646000     -0.598000
H          -0.872000     12.541000     -1.655000
C           8.125000     20.703000     -3.017000
C           8.636000     21.252000     -1.781000
N           6.938000     20.142000     -3.097000
C           7.894000     21.067000     -0.640000
C           6.247000     19.852000     -1.957000
C           6.725000     20.264000     -0.692000
C           6.013000     19.836000      0.589000
C           4.572000     19.713000      0.613000
C           6.647000     19.532000      1.821000
N           3.789000     19.277000      1.613000
N           7.924000     19.655000      2.114000
C           5.869000     18.980000      2.856000
C           4.392000     18.939000      2.738000
S           8.040000     19.145000      3.611000
N           6.556000     18.612000      3.950000
C           3.439000     18.439000      3.769000
S           3.940000     17.464000      5.234000
C           2.066000     18.696000      3.816000
C           2.296000     17.523000      5.860000
S           1.022000     19.697000      2.766000
C           1.477000     18.217000      4.957000
C           1.937000     16.886000      7.077000
C          -0.295000     19.401000      3.898000
C           0.074000     18.588000      4.964000
N           0.917000     17.408000      7.767000
S           2.807000     15.579000      7.819000
C           0.775000     16.646000      8.941000
C           1.659000     15.613000      9.119000
C           8.915000     20.849000     -4.291000
H           9.576000     21.794000     -1.813000
H           8.276000     21.475000      0.291000
H           5.336000     19.257000     -2.002000
H           4.009000     20.109000     -0.231000
H          -1.255000     19.863000      3.710000
H          -0.558000     18.286000      5.791000
H          -0.024000     16.903000      9.624000
H           1.735000     14.844000      9.877000
H           8.264000     21.315000     -5.041000
C           9.473000     19.504000     -4.876000
H           9.716000     21.583000     -4.139000
H           8.648000     18.786000     -4.962000
H          10.131000     19.047000     -4.127000
C          10.175000     19.688000     -6.156000
H           9.619000     20.260000     -6.910000
C          10.526000     18.268000     -6.717000
H          11.090000     20.229000     -5.883000
H           9.611000     17.721000     -6.976000
H          11.090000     17.769000     -5.919000
C          11.281000     18.424000     -8.091000
H          10.546000     18.894000     -8.757000
C          11.704000     17.061000     -8.721000
H          12.140000     19.099000     -7.995000
H          10.879000     16.361000     -8.903000
H          12.475000     16.540000     -8.140000
H          12.106000     17.399000     -9.685000
$end

--------------------------------------------------------------

             Standard Nuclear Orientation (Angstroms)
    I     Atom           X                Y                Z
 ----------------------------------------------------------------
    1      C      -0.7322487335     5.5919243503    -2.1516630968
    2      C      -0.0816081986     5.8604211116    -0.9473697839
    3      N      -0.2340296807     4.8365964527    -3.1151347065
    4      C       1.0592763731     5.1858444222    -0.6146676888
    5      C       0.9061378139     4.1204447084    -2.7912076107
    6      C       1.5830018074     4.2965581073    -1.5466819159
    7      C       2.8502012336     3.5466277385    -1.1414720243
    8      C       3.9817960595     4.2235543258    -0.6486743524
    9      C       3.0429958681     2.1109913224    -1.2925359503
   10      N       5.0650617027     3.6646678721    -0.1513580767
   11      N       2.0795429398     1.3777559960    -1.8818044893
   12      C       4.0107996985     1.4834868852    -0.6348103790
   13      C       4.9934329929     2.2893270600    -0.0101349261
   14      S       2.6677759471    -0.1710634227    -1.7303009001
   15      N       4.0417218648     0.1342060078    -0.8719325702
   16      C       6.0896574004     1.6574267086     0.7398610701
   17      S       7.7212488935     2.3075834741     0.8606268760
   18      C       5.8152841431     0.8479157504     1.8188593669
   19      C       7.9804845633     1.4178979882     2.3884709792
   20      S       4.3472357976    -0.0225729630     2.2037391599
   21      C       6.8338738333     0.7084726672     2.7231268437
   22      C       9.1611445900     1.2556656810     3.1202308987
   23      C       5.1189520122    -0.5358189535     3.7056025483
   24      C       6.4180645425    -0.0966008200     3.8473596105
   25      N       9.9532573620     2.3576688123     3.2264592148
   26      S       9.6786395525    -0.2106536020     3.8639598307
   27      C      11.1310686931     1.9826460991     4.0135827330
   28      C      11.1237066108     0.6799822130     4.4779248478
   29      C      -1.8922052459     6.4618226416    -2.5403002695
   30      H      -0.6688184481     6.4799540271    -0.2762631683
   31      H       1.4159131110     5.3256099194     0.4015723631
   32      H       1.3648181123     3.5130407386    -3.5697895275
   33      H       3.9318239503     5.2858484212    -0.4134722196
   34      H       4.5685793752    -0.9793872842     4.5247521662
   35      H       7.0368238404    -0.2054935864     4.7303824283
   36      H      11.9042842534     2.7146995585     4.2034838384
   37      H      11.7964721752     0.1422660496     5.1337829292
   38      H      -2.1775541395     7.1411280171    -1.7277122954
   39      C      -3.2087677136     5.8783224049    -3.1021087267
   40      H      -1.6281844076     7.1642065465    -3.3405251423
   41      H      -3.7757382143     5.4133257778    -2.2861745454
   42      H      -2.9989223550     5.0434492614    -3.7822886732
   43      C      -3.9671642067     6.8259556727    -4.0181288951
   44      H      -4.1785223078     7.7580165512    -3.4789746760
   45      C      -5.2753681264     6.2723961037    -4.5996272253
   46      H      -3.2659585021     7.1552859078    -4.7948515973
   47      H      -5.6415896547     7.0039374313    -5.3299135241
   48      H      -6.0583864033     6.1430835374    -3.8416030580
   49      C      -5.0247086276     4.9121192718    -5.2754287911
   50      H      -4.1638952040     4.8523808531    -5.9526529571
   51      C      -6.1936865715     4.5368380939    -6.1443083018
   52      H      -4.8603415465     4.1480636785    -4.5053102853
   53      H      -6.3613306533     5.1800868477    -7.0173440986
   54      H      -7.1082642342     4.7352035945    -5.5722551336
   55      H      -6.1074115115     3.4707664757    -6.3896507538
   56      C       1.8142049146    -4.3720298852    -1.3738920435
   57      C       1.3368376228    -5.0338293679    -0.1804265378
   58      N       1.2915885854    -3.2455174527    -1.8074031875
   59      C       0.2254035387    -4.5177242035     0.4400730480
   60      C       0.1237342392    -2.7889331250    -1.2699760040
   61      C      -0.4687901921    -3.4359135788    -0.1614706632
   62      C      -1.8338758037    -2.9954947969     0.3616560611
   63      C      -2.2035858232    -1.5972640484     0.3404128122
   64      C      -2.8279570372    -3.8557503265     0.8945340255
   65      N      -3.3772040585    -1.0399574420     0.6798455509
   66      N      -2.7263128546    -5.1472120203     1.1258393510
   67      C      -4.1006364424    -3.3199956455     1.1674205463
   68      C      -4.3188362333    -1.8546626038     1.1192341563
   69      S      -4.1479185791    -5.5634931123     1.6918006718
   70      N      -5.0222553953    -4.2145738084     1.5605838918
   71      C      -5.5886316211    -1.1417634202     1.4363531042
   72      S      -7.2092888348    -1.9730515045     1.6103683814
   73      C      -5.7207086830     0.2207908505     1.7181127700
   74      C      -7.9516233573    -0.4617030771     2.1230655509
   75      S      -4.4967400152     1.5163145543     1.8521128935
   76      C      -6.9902766676     0.5597533020     2.1074000533
   77      C      -9.3349372592    -0.3758844213     2.4309889296
   78      C      -5.7812335698     2.5878284924     2.4048001368
   79      C      -7.0255729246     1.9690544852     2.4519626010
   80      N      -9.7119292500     0.5549791519     3.3143654330
   81      S     -10.5565200893    -1.4762815949     1.8719053496
   82      C     -11.1015003585     0.4237585509     3.4903122671
   83      C     -11.7244257254    -0.5688806801     2.7783710163
   84      C       3.0093309074    -4.9161062520    -2.1115550889
   85      H       1.8841983740    -5.9006584792     0.1764929207
   86      H      -0.1382363283    -5.0138754080     1.3349188613
   87      H      -0.3943105530    -1.9422840780    -1.7180674952
   88      H      -1.4274725054    -0.8644353414     0.1242387989
   89      H      -5.5287727353     3.6042014482     2.6761625177
   90      H      -7.9559171759     2.4200895685     2.7768994067
   91      H     -11.6000270931     1.1146332965     4.1574720536
   92      H     -12.7661416733    -0.8435881120     2.6731820883
   93      H       3.7430475641    -4.1065557939    -2.2102714671
   94      C       2.6962171644    -5.4873799693    -3.5392175574
   95      H       3.5150146206    -5.6603226957    -1.4839510202
   96      H       2.1468330159    -4.7294145572    -4.1112407138
   97      H       1.9703060621    -6.3027988411    -3.4345316701
   98      C       3.9033196620    -5.9406067343    -4.2481245047
   99      H       4.7255376063    -5.2138181514    -4.2720411896
  100      C       3.4852363333    -6.3198072416    -5.7095400190
  101      H       4.2173260907    -6.8350713637    -3.6951615859
  102      H       3.1569457708    -5.4282846466    -6.2581088561
  103      H       2.6781226808    -7.0552397042    -5.6018012385
  104      C       4.7548318655    -6.8115563061    -6.5023496067
  105      H       5.4123678638    -5.9335728262    -6.5407217325
  106      C       4.4382745726    -7.2443665569    -7.9672949187
  107      H       5.2758186998    -7.6085393291    -5.9581871498
  108      H       3.9721053151    -6.4683562834    -8.5871685178
  109      H       3.8186358469    -8.1478474740    -8.0239789733
  110      H       5.4502904493    -7.4430677730    -8.3434407575
 ----------------------------------------------------------------

   10   -5663.5060667748      4.24E-06 Convergence criterion met
 Total energy in the final basis set = -5663.5060667748

                    Orbital Energies (a.u.)
 --------------------------------------------------------------

 Alpha MOs
 -- Occupied --
-88.989 -88.984 -88.929 -88.927 -88.926 -88.923 -88.911 -88.911
-14.394 -14.386 -14.384 -14.379 -14.352 -14.347 -14.347 -14.345
-14.334 -14.328 -10.269 -10.269 -10.263 -10.263 -10.260 -10.259
-10.248 -10.247 -10.245 -10.244 -10.242 -10.235 -10.235 -10.234
-10.234 -10.233 -10.233 -10.232 -10.232 -10.232 -10.231 -10.229
-10.228 -10.228 -10.225 -10.224 -10.223 -10.221 -10.221 -10.216
-10.211 -10.211 -10.205 -10.205 -10.204 -10.203 -10.199 -10.190
-10.186 -10.181 -10.178 -10.178 -10.177 -10.175 -10.174 -10.173
-10.171 -10.168 -10.168 -10.162  -8.046  -8.038  -7.991  -7.987
 -7.986  -7.982  -7.971  -7.971  -6.011  -6.005  -6.004  -6.003
 -5.998  -5.997  -5.954  -5.951  -5.951  -5.950  -5.948  -5.948
 -5.947  -5.946  -5.944  -5.943  -5.942  -5.938  -5.936  -5.935
 -5.932  -5.932  -5.927  -5.927  -1.063  -1.032  -0.967  -0.965
 -0.955  -0.945  -0.943  -0.935  -0.926  -0.913  -0.907  -0.895
 -0.843  -0.841  -0.835  -0.826  -0.813  -0.812  -0.810  -0.804
 -0.804  -0.798  -0.795  -0.793  -0.782  -0.781  -0.765  -0.762
 -0.750  -0.746  -0.739  -0.738  -0.727  -0.727  -0.709  -0.708
 -0.691  -0.691  -0.674  -0.673  -0.655  -0.651  -0.651  -0.642
 -0.633  -0.630  -0.627  -0.625  -0.607  -0.603  -0.596  -0.595
 -0.592  -0.590  -0.584  -0.583  -0.578  -0.576  -0.573  -0.555
 -0.555  -0.541  -0.540  -0.537  -0.527  -0.520  -0.517  -0.508
 -0.507  -0.507  -0.498  -0.496  -0.493  -0.484  -0.482  -0.478
 -0.472  -0.471  -0.467  -0.464  -0.459  -0.457  -0.449  -0.444
 -0.443  -0.441  -0.440  -0.436  -0.435  -0.432  -0.430  -0.428
 -0.427  -0.423  -0.421  -0.417  -0.415  -0.414  -0.414  -0.412
 -0.411  -0.408  -0.407  -0.399  -0.398  -0.396  -0.393  -0.393
 -0.393  -0.392  -0.389  -0.388  -0.388  -0.387  -0.384  -0.379
 -0.377  -0.376  -0.374  -0.370  -0.368  -0.358  -0.355  -0.355
 -0.353  -0.353  -0.353  -0.350  -0.348  -0.347  -0.347  -0.340
 -0.337  -0.335  -0.334  -0.330  -0.327  -0.327  -0.326  -0.324
 -0.320  -0.312  -0.311  -0.309  -0.307  -0.301  -0.298  -0.294
 -0.292  -0.292  -0.291  -0.288  -0.286  -0.284  -0.283  -0.279
 -0.278  -0.276  -0.268  -0.261  -0.256  -0.255  -0.253  -0.251
 -0.251  -0.245  -0.233  -0.230  -0.195  -0.194

          Ground-State Mulliken Net Atomic Charges

     Atom                 Charge (a.u.)
  ----------------------------------------
      1 C                     0.295859
      2 C                    -0.111826
      3 N                    -0.485985
      4 C                    -0.066942
      5 C                     0.093287
      6 C                     0.017020
      7 C                     0.001711
      8 C                     0.060069
      9 C                     0.201108
     10 N                    -0.458802
     11 N                    -0.546155
     12 C                     0.244640
     13 C                     0.194236
     14 S                     0.633760
     15 N                    -0.529837
     16 C                    -0.210784
     17 S                     0.354107
     18 C                    -0.130018
     19 C                    -0.198956
     20 S                     0.271166
     21 C                     0.146478
     22 C                     0.025006
     23 C                    -0.307503
     24 C                    -0.072085
     25 N                    -0.430395
     26 S                     0.270372
     27 C                     0.109193
     28 C                    -0.298745
     29 C                    -0.235943
     30 H                     0.087967
     31 H                     0.106056
     32 H                     0.113964
     33 H                     0.103846
     34 H                     0.129482
     35 H                     0.116484
     36 H                     0.120916
     37 H                     0.135645
     38 H                     0.086476
     39 C                    -0.177578
     40 H                     0.116764
     41 H                     0.086166
     42 H                     0.122924
     43 C                    -0.189613
     44 H                     0.077147
     45 C                    -0.173754
     46 H                     0.097244
     47 H                     0.089723
     48 H                     0.095757
     49 C                    -0.173854
     50 H                     0.099154
     51 C                    -0.318941
     52 H                     0.105121
     53 H                     0.100452
     54 H                     0.092956
     55 H                     0.096473
     56 C                     0.283010
     57 C                    -0.121612
     58 N                    -0.494616
     59 C                    -0.059899
     60 C                     0.067832
     61 C                     0.031884
     62 C                     0.021778
     63 C                     0.040174
     64 C                     0.236546
     65 N                    -0.496033
     66 N                    -0.539618
     67 C                     0.173685
     68 C                     0.301145
     69 S                     0.594727
     70 N                    -0.535227
     71 C                    -0.232065
     72 S                     0.311528
     73 C                    -0.109948
     74 C                    -0.219605
     75 S                     0.284799
     76 C                     0.168885
     77 C                     0.041971
     78 C                    -0.312711
     79 C                    -0.056816
     80 N                    -0.427861
     81 S                     0.278684
     82 C                     0.115636
     83 C                    -0.302722
     84 C                    -0.228866
     85 H                     0.095146
     86 H                     0.114796
     87 H                     0.113424
     88 H                     0.114208
     89 H                     0.133155
     90 H                     0.118576
     91 H                     0.113244
     92 H                     0.141000
     93 H                     0.117943
     94 C                    -0.173026
     95 H                     0.088835
     96 H                     0.111141
     97 H                     0.091206
     98 C                    -0.168108
     99 H                     0.093008
    100 C                    -0.173243
    101 H                     0.091065
    102 H                     0.096218
    103 H                     0.089820
    104 C                    -0.181972
    105 H                     0.094986
    106 C                    -0.318201
    107 H                     0.093150
    108 H                     0.103381
    109 H                     0.104098
    110 H                     0.100451
  ----------------------------------------
  Sum of atomic charges =     0.000000

                    Cartesian Multipole Moments
 -----------------------------------------------------------------
    Charge (ESU x 10^10)
                 0.0000
    Dipole Moment (Debye)
         X      -2.1020      Y      -3.9246      Z       3.8173
       Tot       5.8646
    Quadrupole Moments (Debye-Ang)
        XX    -394.9698     XY     -19.8099     YY    -425.6855
        XZ       9.6761     YZ       0.0732     ZZ    -438.7293

 Total job time:  87.76s(wall), 1023.58s(cpu)
        *  Thank you very much for using Q-Chem.  Have a nice day.  *
