 Q-Chem 4.4, Q-Chem, Inc., Pleasanton, CA (2016)
 Q-Chem 4.4.2 for Intel X86 Linux

User input:
--------------------------------------------------------------
$comment
SP
$end

$rem
MEM_STATIC 5000
MEM_TOTAL 20000
JOBTYPE SP
EXCHANGE B3LYP
BASIS 6-31g(d,p)
$end

$molecule
0 1
C          14.826000     19.510000     15.868000
C          13.479000     19.827000     15.432000
N          15.799000     19.362000     14.915000
C          13.128000     19.741000     14.103000
C          15.398000     19.372000     13.617000
C          14.075000     19.570000     13.089000
C          13.729000     19.617000     11.607000
C          12.434000     19.149000     11.173000
C          14.494000     20.247000     10.573000
N          12.044000     19.020000      9.898000
N          15.663000     20.793000     10.741000
C          14.109000     20.064000      9.222000
C          12.888000     19.449000      8.914000
S          16.181000     21.210000      9.244000
N          15.007000     20.548000      8.310000
C          12.400000     19.165000      7.534000
S          12.729000     20.165000      6.182000
C          11.517000     18.189000      7.223000
C          11.784000     19.166000      5.093000
S          10.713000     17.024000      8.193000
C          11.194000     18.154000      5.816000
C          11.835000     19.177000      3.639000
C          10.099000     16.341000      6.649000
C          10.305000     17.131000      5.478000
N          11.530000     18.094000      2.928000
S          12.334000     20.579000      2.636000
C          11.650000     18.297000      1.589000
C          11.928000     19.557000      1.305000
C          15.102000     19.412000     17.398000
H          12.697000     19.942000     16.176000
H          12.051000     19.781000     13.969000
H          16.229000     19.068000     12.982000
H          11.629000     18.787000     11.810000
H           9.486000     15.465000      6.816000
H           9.913000     16.842000      4.510000
H          11.496000     17.464000      0.916000
H          12.027000     20.011000      0.328000
H          15.757000     20.227000     17.729000
C          15.678000     18.022000     17.767000
H          14.126000     19.512000     17.888000
H          16.742000     18.095000     17.507000
H          15.098000     17.344000     17.130000
C          15.583000     17.622000     19.192000
H          15.950000     18.476000     19.775000
C          16.529000     16.346000     19.386000
H          14.528000     17.388000     19.384000
H          17.553000     16.739000     19.378000
H          16.338000     15.591000     18.614000
C          16.287000     15.791000     20.818000
H          17.186000     15.363000     21.277000
C          15.278000     14.671000     20.607000
H          16.004000     16.603000     21.499000
H          15.622000     13.932000     19.873000
H          14.365000     15.115000     20.191000
H          14.951000     14.190000     21.537000
C           8.125000     20.703000     -3.017000
C           8.636000     21.252000     -1.781000
N           6.938000     20.142000     -3.097000
C           7.894000     21.067000     -0.640000
C           6.247000     19.852000     -1.957000
C           6.725000     20.264000     -0.692000
C           6.013000     19.836000      0.589000
C           4.572000     19.713000      0.613000
C           6.647000     19.532000      1.821000
N           3.789000     19.277000      1.613000
N           7.924000     19.655000      2.114000
C           5.869000     18.980000      2.856000
C           4.392000     18.939000      2.738000
S           8.040000     19.145000      3.611000
N           6.556000     18.612000      3.950000
C           3.439000     18.439000      3.769000
S           3.940000     17.464000      5.234000
C           2.066000     18.696000      3.816000
C           2.296000     17.523000      5.860000
S           1.022000     19.697000      2.766000
C           1.477000     18.217000      4.957000
C           1.937000     16.886000      7.077000
C          -0.295000     19.401000      3.898000
C           0.074000     18.588000      4.964000
N           0.917000     17.408000      7.767000
S           2.807000     15.579000      7.819000
C           0.775000     16.646000      8.941000
C           1.659000     15.613000      9.119000
C           8.915000     20.849000     -4.291000
H           9.576000     21.794000     -1.813000
H           8.276000     21.475000      0.291000
H           5.336000     19.257000     -2.002000
H           4.009000     20.109000     -0.231000
H          -1.255000     19.863000      3.710000
H          -0.558000     18.286000      5.791000
H          -0.024000     16.903000      9.624000
H           1.735000     14.844000      9.877000
H           8.264000     21.315000     -5.041000
C           9.473000     19.504000     -4.876000
H           9.716000     21.583000     -4.139000
H           8.648000     18.786000     -4.962000
H          10.131000     19.047000     -4.127000
C          10.175000     19.688000     -6.156000
H           9.619000     20.260000     -6.910000
C          10.526000     18.268000     -6.717000
H          11.090000     20.229000     -5.883000
H           9.611000     17.721000     -6.976000
H          11.090000     17.769000     -5.919000
C          11.281000     18.424000     -8.091000
H          10.546000     18.894000     -8.757000
C          11.704000     17.061000     -8.721000
H          12.140000     19.099000     -7.995000
H          10.879000     16.361000     -8.903000
H          12.475000     16.540000     -8.140000
H          12.106000     17.399000     -9.685000
$end

--------------------------------------------------------------

             Standard Nuclear Orientation (Angstroms)
    I     Atom           X                Y                Z
 ----------------------------------------------------------------
    1      C      11.2926079860    -0.7129718911    -1.1197691116
    2      C      10.2967105343     0.2418312689    -1.5686935945
    3      N      10.8698541015    -1.9546789772    -0.7244405577
    4      C       8.9537250407     0.0053580610    -1.3755398064
    5      C       9.5283927507    -2.1507069995    -0.6363527676
    6      C       8.4658745008    -1.2350280326    -0.9540066645
    7      C       6.9815940841    -1.5644977793    -0.8727027244
    8      C       6.0463531718    -0.5152136116    -0.5429571081
    9      C       6.3592619996    -2.7944079776    -1.2616817476
   10      N       4.7367495888    -0.6865020128    -0.3194291697
   11      N       6.9969141665    -3.8584770598    -1.6541835978
   12      C       4.9860945119    -2.9927416001    -0.9753430935
   13      C       4.2031452661    -1.9295659252    -0.5056858111
   14      S       5.8605096752    -5.0274234034    -1.8134672380
   15      N       4.5382534178    -4.2630254982    -1.2166337332
   16      C       2.7634790159    -2.0307444042    -0.1310873547
   17      S       1.6476939824    -3.0742160704    -0.9071902093
   18      C       2.1424462970    -1.2046859451     0.7412266851
   19      C       0.3020466334    -2.5188646532     0.0714644875
   20      S       2.7148340363     0.1280041971     1.6582055621
   21      C       0.7393458699    -1.5081764941     0.8974498524
   22      C      -0.9815889980    -3.1825817556     0.2405714764
   23      C       1.0910885731     0.1402406186     2.4267899365
   24      C       0.0936047155    -0.6798669602     1.8183275194
   25      N      -1.7037278190    -3.0203156007     1.3467451600
   26      S      -1.7280638137    -4.3006372245    -0.9482688485
   27      C      -2.8627227718    -3.7307408952     1.3231527819
   28      C      -3.0538984035    -4.3224177836     0.1574296854
   29      C      12.7916758498    -0.2919088677    -1.1664753195
   30      H      10.6169731726     1.2311979467    -1.8799337258
   31      H       8.3599464768     0.8977813724    -1.5501612552
   32      H       9.3361416177    -3.1037100330    -0.1454080457
   33      H       6.2824042930     0.5341641945    -0.3758520870
   34      H       1.0128628800     0.9113965567     3.1819278445
   35      H      -0.9338811403    -0.6907207650     2.1623682305
   36      H      -3.4961127020    -3.7309742357     2.2002794214
   37      H      -3.9086098574    -4.9054167073    -0.1588401130
   38      H      13.3382238316    -0.8783527936    -1.9149269381
   39      C      13.4391195584    -0.3993805713     0.2368434173
   40      H      12.7996215774     0.7647070164    -1.4600323650
   41      H      13.6682602100    -1.4674344865     0.3453809498
   42      H      12.6443764969    -0.0336739459     0.8975211984
   43      C      14.6953335944     0.3603932306     0.4473667310
   44      H      15.3402269804     0.1295870132    -0.4098001201
   45      C      15.3424403636    -0.1701336405     1.8113762868
   46      H      14.4164826311     1.4202985163     0.5064253941
   47      H      15.7656093295    -1.1528164211     1.5698155720
   48      H      14.6003753795    -0.1933775576     2.6184012428
   49      C      16.5476925443     0.7507474524     2.1527824874
   50      H      17.3731599687     0.2232827153     2.6451750975
   51      C      15.9678877316     1.7567367809     3.1370659071
   52      H      16.9978641568     1.1461626512     1.2339863513
   53      H      15.4934868446     1.2716820719     3.9989700361
   54      H      15.1741612258     2.3120149786     2.6218714222
   55      H      16.6817984768     2.5270780342     3.4534451121
   56      C      -8.6524311321    -2.9819620271    -0.9894873347
   57      C      -7.3441654088    -3.0094571613    -1.6042253397
   58      N      -9.2182659042    -1.8619272298    -0.5952246512
   59      C      -6.6361506407    -1.8338588988    -1.6621374568
   60      C      -8.4839883223    -0.7133397628    -0.5426483910
   61      C      -7.1578377468    -0.6748361937    -1.0308032090
   62      C      -6.2998160388     0.5767582963    -0.8622832361
   63      C      -6.9036408080     1.8884280431    -0.9465691982
   64      C      -4.9020630193     0.5902640489    -0.6208291183
   65      N      -6.3286366962     3.0853552268    -0.7467678263
   66      N      -4.0854392899    -0.4413734986    -0.5972355764
   67      C      -4.2881118857     1.8182502667    -0.3104634398
   68      C      -5.0389649317     3.0870777995    -0.4635333427
   69      S      -2.6671245096     0.1811529699    -0.2575166043
   70      N      -2.9881096171     1.7375815435     0.0177371984
   71      C      -4.5076300014     4.4595044571    -0.2283775192
   72      S      -2.9280730889     4.8094052457     0.6262688395
   73      C      -5.0784966345     5.6528648415    -0.6793645258
   74      C      -3.0886594590     6.5241595343     0.2630571279
   75      S      -6.5244290767     5.9564626658    -1.6851203280
   76      C      -4.2899653496     6.7449625703    -0.4268096538
   77      C      -2.1239090261     7.4723829140     0.6941812681
   78      C      -6.0711898271     7.6586061357    -1.7135947160
   79      C      -4.9151240112     7.9276998583    -0.9893113476
   80      N      -1.9750637873     8.5777086048    -0.0441169183
   81      S      -1.0166403884     7.2472065461     2.0128794016
   82      C      -0.9481474554     9.3372702311     0.5454532498
   83      C      -0.3537282377     8.8117365298     1.6638043228
   84      C      -9.4570463346    -4.2496274162    -0.8706982903
   85      H      -6.9861791968    -3.9542615620    -2.0011869454
   86      H      -5.6517349621    -1.8510064623    -2.1201557236
   87      H      -8.8959724244     0.1825056691    -0.0803702694
   88      H      -7.9261688728     1.9599953558    -1.3145847909
   89      H      -6.6816174778     8.3490819171    -2.2801715233
   90      H      -4.4354828433     8.8933267885    -0.8794660853
   91      H      -0.6966259878    10.2905795655     0.0994966777
   92      H       0.3954716433     9.2025871300     2.3402925685
   93      H     -10.4369314090    -4.0725299497    -1.3310446037
   94      C      -9.6760957788    -4.7536092715     0.5992111050
   95      H      -9.0035535015    -5.0271841112    -1.4977635473
   96      H     -10.0815764072    -3.9296076554     1.1993375888
   97      H      -8.6944569452    -4.9389495209     1.0518126873
   98      C     -10.5263810961    -5.9524435754     0.6690050240
   99      H     -11.4731293646    -5.8802792889     0.1182818341
  100      C     -10.8110815640    -6.2490792539     2.1807176017
  101      H      -9.9054546226    -6.7455555288     0.2332771915
  102      H     -11.4191623958    -5.4489629454     2.6206796398
  103      H      -9.8246810374    -6.3226934768     2.6555817374
  104      C     -11.7212676151    -7.5298443902     2.2966443809
  105      H     -12.6627022068    -7.2432539555     1.8105910586
  106      C     -12.0390102517    -7.9298215509     3.7706375585
  107      H     -11.2899427518    -8.3721394159     1.7423701237
  108      H     -12.5315113120    -7.1497280612     4.3644774805
  109      H     -11.1557828722    -8.2753349172     4.3219749415
  110      H     -12.7440301511    -8.7557088998     3.6093892148
 ----------------------------------------------------------------

   11   -5663.5234030498      5.79E-06 Convergence criterion met
 Total energy in the final basis set = -5663.5234030498

                    Orbital Energies (a.u.)
 --------------------------------------------------------------

 Alpha MOs
 -- Occupied --
-88.991 -88.983 -88.926 -88.924 -88.924 -88.923 -88.912 -88.908
-14.396 -14.387 -14.384 -14.378 -14.355 -14.347 -14.345 -14.340
-14.335 -14.327 -10.273 -10.267 -10.265 -10.264 -10.261 -10.260
-10.257 -10.253 -10.245 -10.245 -10.241 -10.240 -10.239 -10.237
-10.237 -10.236 -10.231 -10.231 -10.230 -10.229 -10.229 -10.229
-10.229 -10.227 -10.226 -10.226 -10.223 -10.222 -10.221 -10.218
-10.211 -10.209 -10.208 -10.206 -10.203 -10.200 -10.199 -10.196
-10.193 -10.183 -10.182 -10.181 -10.181 -10.178 -10.177 -10.177
-10.176 -10.175 -10.173 -10.171  -8.047  -8.039  -7.988  -7.985
 -7.983  -7.982  -7.972  -7.967  -6.012  -6.007  -6.005  -6.004
 -5.998  -5.997  -5.952  -5.949  -5.948  -5.947  -5.947  -5.946
 -5.945  -5.944  -5.943  -5.942  -5.940  -5.939  -5.936  -5.933
 -5.932  -5.928  -5.928  -5.923  -1.057  -1.046  -0.970  -0.963
 -0.961  -0.960  -0.939  -0.931  -0.919  -0.918  -0.913  -0.904
 -0.845  -0.838  -0.830  -0.830  -0.813  -0.811  -0.809  -0.808
 -0.805  -0.800  -0.799  -0.792  -0.783  -0.779  -0.770  -0.762
 -0.752  -0.748  -0.745  -0.736  -0.724  -0.720  -0.710  -0.706
 -0.694  -0.688  -0.680  -0.669  -0.654  -0.652  -0.648  -0.643
 -0.638  -0.629  -0.625  -0.620  -0.611  -0.604  -0.597  -0.591
 -0.589  -0.589  -0.583  -0.580  -0.577  -0.576  -0.573  -0.571
 -0.552  -0.551  -0.544  -0.535  -0.525  -0.523  -0.514  -0.514
 -0.509  -0.506  -0.503  -0.494  -0.491  -0.489  -0.483  -0.478
 -0.477  -0.475  -0.472  -0.468  -0.463  -0.463  -0.448  -0.445
 -0.443  -0.440  -0.437  -0.437  -0.436  -0.432  -0.428  -0.427
 -0.426  -0.425  -0.423  -0.422  -0.419  -0.415  -0.413  -0.411
 -0.411  -0.408  -0.407  -0.404  -0.403  -0.401  -0.395  -0.392
 -0.390  -0.389  -0.389  -0.387  -0.386  -0.386  -0.384  -0.382
 -0.378  -0.375  -0.374  -0.373  -0.373  -0.366  -0.358  -0.356
 -0.354  -0.353  -0.351  -0.351  -0.350  -0.348  -0.348  -0.346
 -0.343  -0.343  -0.336  -0.334  -0.333  -0.330  -0.327  -0.323
 -0.321  -0.321  -0.319  -0.308  -0.308  -0.305  -0.301  -0.299
 -0.295  -0.292  -0.290  -0.289  -0.289  -0.285  -0.282  -0.282
 -0.277  -0.275  -0.266  -0.264  -0.257  -0.252  -0.251  -0.248
 -0.246  -0.241  -0.230  -0.229  -0.196  -0.190

          Ground-State Mulliken Net Atomic Charges

     Atom                 Charge (a.u.)
  ----------------------------------------
      1 C                     0.266500
      2 C                    -0.128207
      3 N                    -0.478599
      4 C                    -0.070881
      5 C                     0.070495
      6 C                     0.047575
      7 C                     0.018205
      8 C                     0.057567
      9 C                     0.254697
     10 N                    -0.508981
     11 N                    -0.537662
     12 C                     0.195848
     13 C                     0.276470
     14 S                     0.605093
     15 N                    -0.544194
     16 C                    -0.223045
     17 S                     0.313998
     18 C                    -0.073663
     19 C                    -0.241264
     20 S                     0.279316
     21 C                     0.151253
     22 C                     0.060259
     23 C                    -0.311454
     24 C                    -0.061464
     25 N                    -0.445587
     26 S                     0.248595
     27 C                     0.146955
     28 C                    -0.300405
     29 C                    -0.236006
     30 H                     0.085762
     31 H                     0.097305
     32 H                     0.108512
     33 H                     0.113856
     34 H                     0.124185
     35 H                     0.136230
     36 H                     0.119226
     37 H                     0.122630
     38 H                     0.117751
     39 C                    -0.164912
     40 H                     0.094109
     41 H                     0.113678
     42 H                     0.094629
     43 C                    -0.176002
     44 H                     0.093905
     45 C                    -0.177724
     46 H                     0.092091
     47 H                     0.092769
     48 H                     0.100898
     49 C                    -0.171325
     50 H                     0.087886
     51 C                    -0.316796
     52 H                     0.095505
     53 H                     0.107102
     54 H                     0.099223
     55 H                     0.092840
     56 C                     0.280605
     57 C                    -0.125764
     58 N                    -0.486808
     59 C                    -0.060265
     60 C                     0.069315
     61 C                     0.029407
     62 C                     0.021218
     63 C                     0.039945
     64 C                     0.233332
     65 N                    -0.498035
     66 N                    -0.542438
     67 C                     0.169338
     68 C                     0.300558
     69 S                     0.609184
     70 N                    -0.538622
     71 C                    -0.231934
     72 S                     0.311275
     73 C                    -0.110285
     74 C                    -0.221031
     75 S                     0.283331
     76 C                     0.168825
     77 C                     0.042857
     78 C                    -0.312761
     79 C                    -0.057599
     80 N                    -0.428376
     81 S                     0.275759
     82 C                     0.115508
     83 C                    -0.302783
     84 C                    -0.226138
     85 H                     0.088150
     86 H                     0.115779
     87 H                     0.109197
     88 H                     0.111295
     89 H                     0.132703
     90 H                     0.117740
     91 H                     0.112132
     92 H                     0.139417
     93 H                     0.116676
     94 C                    -0.172579
     95 H                     0.085003
     96 H                     0.112810
     97 H                     0.087106
     98 C                    -0.167062
     99 H                     0.092309
    100 C                    -0.172675
    101 H                     0.089541
    102 H                     0.096427
    103 H                     0.088740
    104 C                    -0.181918
    105 H                     0.094673
    106 C                    -0.317933
    107 H                     0.092758
    108 H                     0.103233
    109 H                     0.103950
    110 H                     0.100163
  ----------------------------------------
  Sum of atomic charges =     0.000000

                    Cartesian Multipole Moments
 -----------------------------------------------------------------
    Charge (ESU x 10^10)
                 0.0000
    Dipole Moment (Debye)
         X       2.3388      Y       0.3869      Z      -0.1206
       Tot       2.3736
    Quadrupole Moments (Debye-Ang)
        XX    -443.0253     XY      37.8481     YY    -413.7866
        XZ      -0.6807     YZ      12.5847     ZZ    -442.5975

 Total job time:  97.54s(wall), 1148.05s(cpu)
        *  Thank you very much for using Q-Chem.  Have a nice day.  *
