 Q-Chem 4.4, Q-Chem, Inc., Pleasanton, CA (2016)
 Q-Chem 4.4.2 for Intel X86 Linux

User input:
--------------------------------------------------------------
$comment
SP
$end

$rem
MEM_STATIC 5000
MEM_TOTAL 20000
JOBTYPE SP
EXCHANGE B3LYP
BASIS 6-31g(d,p)
$end

$molecule
0 1
C          12.008000     30.049000      6.049000
C          12.215000     28.938000      5.245000
N          11.090000     30.144000      7.078000
C          11.381000     27.819000      5.516000
C          10.361000     29.091000      7.255000
C          10.399000     27.911000      6.527000
C           9.476000     26.761000      6.872000
C           8.709000     26.164000      5.881000
C           9.249000     26.329000      8.222000
N           7.807000     25.176000      6.158000
N           9.949000     26.876000      9.230000
C           8.319000     25.387000      8.503000
C           7.579000     24.703000      7.454000
S           9.507000     25.879000     10.490000
N           8.242000     25.090000      9.797000
C           6.685000     23.555000      7.652000
S           6.581000     22.656000      9.052000
C           5.957000     22.896000      6.598000
C           5.590000     21.416000      8.254000
S           5.661000     23.421000      5.029000
C           5.333000     21.744000      6.996000
C           4.943000     20.313000      8.987000
C           4.548000     22.020000      4.806000
C           4.539000     21.228000      5.952000
N           5.206000     20.222000     10.264000
S           3.856000     19.039000      8.388000
C           4.846000     19.020000     10.780000
C           4.037000     18.234000      9.998000
C          12.879000     31.317000      5.862000
H          13.007000     28.866000      4.505000
H          11.457000     26.854000      5.024000
H           9.669000     29.134000      8.094000
H           8.667000     26.521000      4.853000
H           4.058000     21.911000      3.848000
H           3.848000     20.394000      5.918000
H           5.160000     18.820000     11.796000
H           3.564000     17.271000     10.137000
H          13.153000     31.751000      6.832000
C          12.425000     32.348000      4.769000
H          13.863000     30.906000      5.604000
H          11.334000     32.242000      4.817000
H          12.828000     32.080000      3.785000
C          12.645000     33.832000      5.257000
H          12.123000     33.945000      6.216000
C          12.211000     34.896000      4.277000
H          13.711000     33.891000      5.507000
H          12.509000     34.659000      3.248000
H          12.763000     35.812000      4.522000
C          10.691000     35.078000      4.374000
H          10.180000     34.137000      4.136000
C          10.134000     36.291000      3.563000
H          10.399000     35.244000      5.419000
H          10.271000     36.069000      2.498000
H          10.700000     37.185000      3.853000
H           9.074000     36.458000      3.789000
C           8.125000     20.703000     -3.017000
C           8.636000     21.252000     -1.781000
N           6.938000     20.142000     -3.097000
C           7.894000     21.067000     -0.640000
C           6.247000     19.852000     -1.957000
C           6.725000     20.264000     -0.692000
C           6.013000     19.836000      0.589000
C           4.572000     19.713000      0.613000
C           6.647000     19.532000      1.821000
N           3.789000     19.277000      1.613000
N           7.924000     19.655000      2.114000
C           5.869000     18.980000      2.856000
C           4.392000     18.939000      2.738000
S           8.040000     19.145000      3.611000
N           6.556000     18.612000      3.950000
C           3.439000     18.439000      3.769000
S           3.940000     17.464000      5.234000
C           2.066000     18.696000      3.816000
C           2.296000     17.523000      5.860000
S           1.022000     19.697000      2.766000
C           1.477000     18.217000      4.957000
C           1.937000     16.886000      7.077000
C          -0.295000     19.401000      3.898000
C           0.074000     18.588000      4.964000
N           0.917000     17.408000      7.767000
S           2.807000     15.579000      7.819000
C           0.775000     16.646000      8.941000
C           1.659000     15.613000      9.119000
C           8.915000     20.849000     -4.291000
H           9.576000     21.794000     -1.813000
H           8.276000     21.475000      0.291000
H           5.336000     19.257000     -2.002000
H           4.009000     20.109000     -0.231000
H          -1.255000     19.863000      3.710000
H          -0.558000     18.286000      5.791000
H          -0.024000     16.903000      9.624000
H           1.735000     14.844000      9.877000
H           8.264000     21.315000     -5.041000
C           9.473000     19.504000     -4.876000
H           9.716000     21.583000     -4.139000
H           8.648000     18.786000     -4.962000
H          10.131000     19.047000     -4.127000
C          10.175000     19.688000     -6.156000
H           9.619000     20.260000     -6.910000
C          10.526000     18.268000     -6.717000
H          11.090000     20.229000     -5.883000
H           9.611000     17.721000     -6.976000
H          11.090000     17.769000     -5.919000
C          11.281000     18.424000     -8.091000
H          10.546000     18.894000     -8.757000
C          11.704000     17.061000     -8.721000
H          12.140000     19.099000     -7.995000
H          10.879000     16.361000     -8.903000
H          12.475000     16.540000     -8.140000
H          12.106000     17.399000     -9.685000
$end

--------------------------------------------------------------

             Standard Nuclear Orientation (Angstroms)
    I     Atom           X                Y                Z
 ----------------------------------------------------------------
    1      C       9.4500669813     0.3283973319    -0.8530694552
    2      C       8.4385089904     1.1501628439    -1.3274510256
    3      N       9.2919013241    -0.9625256970    -0.3849974966
    4      C       7.1306581820     0.5934226814    -1.3005316165
    5      C       8.0729662711    -1.3935190795    -0.3804104810
    6      C       6.9366921206    -0.7038460306    -0.7767186195
    7      C       5.5740070251    -1.3618179105    -0.7165826432
    8      C       4.5175925225    -0.7163247104    -0.0888040775
    9      C       5.3417781601    -2.7036934641    -1.1705570400
   10      N       3.2923676941    -1.3029074662     0.0568729295
   11      N       6.3267564727    -3.3893667086    -1.7746621017
   12      C       4.1439878803    -3.3040098304    -0.9804420596
   13      C       3.0143117239    -2.5948920361    -0.4000622395
   14      S       5.4888980373    -4.7263777943    -2.3107288876
   15      N       4.0883462285    -4.5391453310    -1.4702566182
   16      C       1.6399599162    -3.1053113921    -0.3165566133
   17      S       1.0704666980    -4.4505108223    -1.1197583113
   18      C       0.5365969167    -2.3871348601     0.2682455415
   19      C      -0.6113658647    -4.0674787152    -0.6940698855
   20      S       0.5647263283    -1.0297795646     1.2591024122
   21      C      -0.6783850210    -2.9865061994     0.0696079608
   22      C      -1.7333040969    -4.9874111207    -0.9538505089
   23      C      -1.2079550913    -1.2273768633     1.5234031732
   24      C      -1.6870754717    -2.3011501973     0.7763318992
   25      N      -1.4550181749    -6.0833540056    -1.6093237262
   26      S      -3.4529219230    -4.8247034266    -0.5297199409
   27      C      -2.5682511160    -6.6974963689    -2.0828230150
   28      C      -3.7694431950    -6.2625208218    -1.5810911515
   29      C      10.9194751750     0.8205429826    -0.8612069503
   30      H       8.6106685102     2.1261413498    -1.7722825168
   31      H       6.2413559971     1.0772910739    -1.6930593259
   32      H       7.9406013643    -2.4257521312    -0.0616496639
   33      H       4.6182838100     0.2279319656     0.4443352986
   34      H      -1.7068145653    -0.5113864762     2.1623413475
   35      H      -2.7375218671    -2.5211329566     0.9258743878
   36      H      -2.4082532152    -7.5319099118    -2.7529026454
   37      H      -4.7978797600    -6.5653715009    -1.7260694181
   38      H      11.6006924677     0.0161180833    -1.1664537057
   39      C      11.3986699493     1.6782031098     0.3629325330
   40      H      10.9765124034     1.4156201963    -1.7811911155
   41      H      10.8059863921     1.2390207972     1.1751308445
   42      H      11.1748082095     2.7406799265     0.2095769485
   43      C      12.8744344998     1.3062727338     0.7783681919
   44      H      12.9040481430     0.2237355139     0.9577287220
   45      C      13.4122312951     2.0658722376     1.9677525708
   46      H      13.4694145630     1.4584377684    -0.1300268360
   47      H      13.1578674656     3.1324496939     1.9286939998
   48      H      14.5073269248     2.0390888911     1.9058396143
   49      C      12.8771562689     1.4267099348     3.2554246048
   50      H      11.7808800288     1.4617179421     3.2695258357
   51      C      13.5173274141     1.9846504182     4.5662344010
   52      H      13.0758493406     0.3472077022     3.2490220178
   53      H      13.1941052806     3.0266652381     4.6758271363
   54      H      14.6081865829     1.9209111292     4.4679716066
   55      H      13.2078763358     1.3913581412     5.4350320208
   56      C      -2.1096482122     7.3563010083     0.4115710313
   57      C      -1.1694599137     6.3897502977    -0.1100070427
   58      N      -3.1641825027     7.0006781334     1.1126985525
   59      C      -1.4670230214     5.0572961670     0.0406322169
   60      C      -3.5289115237     5.6873258945     1.1697917923
   61      C      -2.7173178801     4.6814771972     0.5970465123
   62      C      -3.1853675235     3.2287255031     0.5579179206
   63      C      -3.9607023817     2.6854294787     1.6514769210
   64      C      -2.9261920777     2.3082611200    -0.4898269948
   65      N      -4.5203603537     1.4690254424     1.7531094700
   66      N      -2.1693797388     2.4967188908    -1.5497447994
   67      C      -3.5774253198     1.0607446182    -0.4613517038
   68      C      -4.3246920140     0.6370503615     0.7466258062
   69      S      -2.2818452271     1.1415047035    -2.3654107975
   70      N      -3.3741350279     0.2879505386    -1.5410235835
   71      C      -5.0134582371    -0.6698349357     0.9436585695
   72      S      -5.3540626038    -1.8572495163    -0.4061141073
   73      C      -5.4241416724    -1.2090822030     2.1659263391
   74      C      -5.9564876518    -3.0347783150     0.7551795635
   75      S      -5.2387070875    -0.6047510061     3.8377022868
   76      C      -5.9044897786    -2.4869767542     2.0455344260
   77      C      -6.4520822878    -4.3008283749     0.3462269958
   78      C      -5.9026101418    -2.1368249972     4.3994059633
   79      C      -6.2379263541    -2.9994864005     3.3616852200
   80      N      -6.3507452064    -5.3114598090     1.2164792008
   81      S      -7.0399433750    -4.6815758277    -1.2428493772
   82      C      -6.8609342773    -6.4593199371     0.5830691928
   83      C      -7.3086632995    -6.3084383128    -0.7041768824
   84      C      -1.8477677103     8.8300177644     0.2440314076
   85      H      -0.2673086675     6.7605229855    -0.5864928692
   86      H      -0.7649759848     4.3281925670    -0.3526703369
   87      H      -4.4774664719     5.3986999304     1.6202466326
   88      H      -4.0360033791     3.2699789915     2.5673113094
   89      H      -5.9860825569    -2.3072337372     5.4644793022
   90      H      -6.6428428644    -3.9996947899     3.4625950688
   91      H      -6.8868083378    -7.3842262232     1.1441555453
   92      H      -7.7992993457    -6.9896550529    -1.3874930780
   93      H      -1.8864149992     9.2952943507     1.2367454073
   94      C      -2.8575487946     9.5738177317    -0.6992171124
   95      H      -0.8107783818     8.9794690040    -0.0812045985
   96      H      -3.8798156103     9.3541928620    -0.3671320720
   97      H      -2.8080298012     9.1120245840    -1.6927506840
   98      C      -2.6050229570    11.0214285384    -0.7748058272
   99      H      -2.5083329478    11.5250160751     0.1957026143
  100      C      -3.7719987663    11.6678798707    -1.5961401900
  101      H      -1.6595068261    11.0987690683    -1.3265781431
  102      H      -4.7201378216    11.5774703847    -1.0517382644
  103      H      -3.7937472442    11.1263329842    -2.5501606160
  104      C      -3.5361559066    13.2222210128    -1.6992845532
  105      H      -3.5951965868    13.5788332441    -0.6629337851
  106      C      -4.6328373620    13.9591633611    -2.5286239051
  107      H      -2.5333588233    13.4447002359    -2.0835019461
  108      H      -5.6571345453    13.8290977041    -2.1576155424
  109      H      -4.6166661641    13.6946913623    -3.5931595101
  110      H      -4.3293738393    15.0041089842    -2.3832191762
 ----------------------------------------------------------------

    9   -5663.5213938545      6.91E-06 Convergence criterion met
 Total energy in the final basis set = -5663.5213938545

                    Orbital Energies (a.u.)
 --------------------------------------------------------------

 Alpha MOs
 -- Occupied --
-88.990 -88.981 -88.937 -88.933 -88.923 -88.918 -88.916 -88.907
-14.394 -14.386 -14.385 -14.382 -14.355 -14.355 -14.345 -14.331
-14.330 -14.325 -10.277 -10.271 -10.268 -10.264 -10.264 -10.260
-10.254 -10.251 -10.249 -10.248 -10.243 -10.242 -10.240 -10.238
-10.237 -10.235 -10.235 -10.234 -10.233 -10.231 -10.230 -10.228
-10.227 -10.226 -10.225 -10.223 -10.221 -10.218 -10.217 -10.213
-10.212 -10.209 -10.207 -10.204 -10.203 -10.201 -10.201 -10.201
-10.185 -10.182 -10.181 -10.180 -10.178 -10.177 -10.175 -10.175
-10.174 -10.174 -10.173 -10.171  -8.047  -8.037  -7.998  -7.991
 -7.983  -7.977  -7.975  -7.967  -6.012  -6.006  -6.005  -6.002
 -5.997  -5.994  -5.962  -5.959  -5.955  -5.955  -5.951  -5.947
 -5.947  -5.943  -5.941  -5.940  -5.940  -5.938  -5.936  -5.934
 -5.932  -5.932  -5.928  -5.924  -1.063  -1.039  -0.974  -0.969
 -0.965  -0.942  -0.942  -0.939  -0.926  -0.922  -0.912  -0.907
 -0.852  -0.846  -0.836  -0.823  -0.820  -0.810  -0.804  -0.804
 -0.802  -0.799  -0.797  -0.787  -0.783  -0.782  -0.767  -0.760
 -0.753  -0.745  -0.742  -0.738  -0.732  -0.730  -0.710  -0.706
 -0.693  -0.691  -0.677  -0.669  -0.656  -0.651  -0.651  -0.638
 -0.636  -0.630  -0.629  -0.621  -0.609  -0.605  -0.600  -0.599
 -0.597  -0.595  -0.587  -0.585  -0.579  -0.577  -0.573  -0.564
 -0.560  -0.543  -0.542  -0.536  -0.530  -0.523  -0.521  -0.513
 -0.506  -0.502  -0.501  -0.498  -0.493  -0.484  -0.483  -0.479
 -0.474  -0.474  -0.466  -0.465  -0.464  -0.454  -0.452  -0.448
 -0.445  -0.445  -0.441  -0.440  -0.439  -0.438  -0.435  -0.432
 -0.428  -0.428  -0.425  -0.422  -0.419  -0.418  -0.415  -0.412
 -0.411  -0.406  -0.406  -0.401  -0.399  -0.399  -0.398  -0.395
 -0.394  -0.394  -0.392  -0.389  -0.388  -0.386  -0.386  -0.384
 -0.379  -0.376  -0.368  -0.366  -0.363  -0.358  -0.356  -0.356
 -0.355  -0.355  -0.353  -0.351  -0.350  -0.347  -0.346  -0.345
 -0.340  -0.338  -0.336  -0.334  -0.330  -0.328  -0.327  -0.327
 -0.321  -0.320  -0.316  -0.311  -0.306  -0.305  -0.302  -0.299
 -0.296  -0.295  -0.294  -0.290  -0.286  -0.284  -0.283  -0.282
 -0.270  -0.269  -0.268  -0.263  -0.259  -0.255  -0.253  -0.249
 -0.249  -0.243  -0.235  -0.233  -0.199  -0.192

          Ground-State Mulliken Net Atomic Charges

     Atom                 Charge (a.u.)
  ----------------------------------------
      1 C                     0.231171
      2 C                    -0.104557
      3 N                    -0.466789
      4 C                    -0.085926
      5 C                     0.109102
      6 C                     0.046991
      7 C                    -0.006375
      8 C                     0.064962
      9 C                     0.240331
     10 N                    -0.543426
     11 N                    -0.550299
     12 C                     0.210635
     13 C                     0.320859
     14 S                     0.582817
     15 N                    -0.559451
     16 C                    -0.207437
     17 S                     0.370621
     18 C                    -0.136521
     19 C                    -0.280728
     20 S                     0.274094
     21 C                     0.217354
     22 C                     0.045540
     23 C                    -0.326206
     24 C                    -0.082649
     25 N                    -0.424864
     26 S                     0.291750
     27 C                     0.125875
     28 C                    -0.324943
     29 C                    -0.233352
     30 H                     0.098082
     31 H                     0.095983
     32 H                     0.097745
     33 H                     0.120068
     34 H                     0.141976
     35 H                     0.127443
     36 H                     0.109648
     37 H                     0.134424
     38 H                     0.113467
     39 C                    -0.175053
     40 H                     0.087933
     41 H                     0.113574
     42 H                     0.095138
     43 C                    -0.186572
     44 H                     0.105317
     45 C                    -0.164387
     46 H                     0.083768
     47 H                     0.089259
     48 H                     0.088660
     49 C                    -0.180854
     50 H                     0.098455
     51 C                    -0.318850
     52 H                     0.093495
     53 H                     0.102173
     54 H                     0.103380
     55 H                     0.100997
     56 C                     0.281259
     57 C                    -0.122225
     58 N                    -0.486460
     59 C                    -0.060716
     60 C                     0.070602
     61 C                     0.028534
     62 C                     0.026256
     63 C                     0.035930
     64 C                     0.236828
     65 N                    -0.498904
     66 N                    -0.537915
     67 C                     0.180893
     68 C                     0.297005
     69 S                     0.606371
     70 N                    -0.535703
     71 C                    -0.233048
     72 S                     0.314807
     73 C                    -0.115589
     74 C                    -0.220261
     75 S                     0.283785
     76 C                     0.171564
     77 C                     0.030215
     78 C                    -0.310874
     79 C                    -0.057149
     80 N                    -0.417305
     81 S                     0.273770
     82 C                     0.117109
     83 C                    -0.313838
     84 C                    -0.226954
     85 H                     0.093385
     86 H                     0.116365
     87 H                     0.109067
     88 H                     0.113392
     89 H                     0.136719
     90 H                     0.120117
     91 H                     0.119045
     92 H                     0.144188
     93 H                     0.116727
     94 C                    -0.173212
     95 H                     0.086817
     96 H                     0.112205
     97 H                     0.090702
     98 C                    -0.167590
     99 H                     0.091960
    100 C                    -0.173595
    101 H                     0.090613
    102 H                     0.096150
    103 H                     0.089981
    104 C                    -0.181711
    105 H                     0.094394
    106 C                    -0.317897
    107 H                     0.093014
    108 H                     0.103040
    109 H                     0.104165
    110 H                     0.100121
  ----------------------------------------
  Sum of atomic charges =     0.000000

                    Cartesian Multipole Moments
 -----------------------------------------------------------------
    Charge (ESU x 10^10)
                 0.0000
    Dipole Moment (Debye)
         X      -3.1849      Y       0.6405      Z      -2.2363
       Tot       3.9440
    Quadrupole Moments (Debye-Ang)
        XX    -441.4845     XY      49.9465     YY    -421.9971
        XZ      -0.3779     YZ       0.0986     ZZ    -436.8403

 Total job time:  85.00s(wall), 1010.28s(cpu)
        *  Thank you very much for using Q-Chem.  Have a nice day.  *
