 Q-Chem 4.4, Q-Chem, Inc., Pleasanton, CA (2016)
 Q-Chem 4.4.2 for Intel X86 Linux

User input:
--------------------------------------------------------------
$comment
SP
$end

$rem
MEM_STATIC 5000
MEM_TOTAL 20000
JOBTYPE SP
EXCHANGE B3LYP
BASIS 6-31g(d,p)
$end

$molecule
0 1
C          10.309000     11.800000      8.060000
C          11.325000     11.210000      7.278000
N           9.310000     12.515000      7.580000
C          11.335000     11.524000      5.905000
C           9.247000     12.660000      6.276000
C          10.203000     12.181000      5.359000
C          10.039000     12.448000      3.896000
C           9.885000     13.751000      3.433000
C          10.290000     11.475000      2.948000
N           9.753000     14.122000      2.180000
N          10.559000     10.207000      3.227000
C          10.228000     11.856000      1.626000
C           9.861000     13.222000      1.227000
S          10.657000      9.623000      1.753000
N          10.404000     10.852000      0.745000
C           9.781000     13.676000     -0.166000
S          10.060000     12.778000     -1.611000
C           9.482000     14.974000     -0.528000
C           9.816000     14.167000     -2.758000
S           9.156000     16.287000      0.514000
C           9.607000     15.292000     -1.890000
C           9.928000     14.324000     -4.204000
C           9.171000     17.353000     -0.871000
C           9.451000     16.678000     -2.075000
N           9.388000     15.362000     -4.813000
S          10.486000     12.979000     -5.130000
C           9.291000     15.058000     -6.132000
C           9.855000     13.899000     -6.480000
C          10.365000     11.506000      9.541000
H          12.091000     10.649000      7.805000
H          12.103000     11.114000      5.256000
H           8.324000     13.179000      6.024000
H           9.770000     14.587000      4.121000
H           9.147000     18.411000     -0.644000
H           9.505000     17.154000     -3.048000
H           8.893000     15.735000     -6.878000
H           9.852000     13.486000     -7.480000
H           9.423000     11.688000     10.073000
C          11.491000     12.239000     10.307000
H          10.472000     10.421000      9.666000
H          12.405000     12.344000      9.709000
H          11.504000     11.781000     11.304000
C          10.921000     13.622000     10.656000
H          10.877000     14.319000      9.810000
C          11.779000     14.289000     11.809000
H           9.899000     13.595000     11.054000
H          12.781000     14.418000     11.381000
H          11.879000     13.585000     12.645000
C          11.084000     15.535000     12.413000
H          10.859000     16.159000     11.539000
C          11.870000     16.466000     13.293000
H          10.151000     15.170000     12.859000
H          11.330000     17.399000     13.501000
H          12.852000     16.750000     12.895000
H          12.084000     16.068000     14.293000
C           8.125000     20.703000     -3.017000
C           8.636000     21.252000     -1.781000
N           6.938000     20.142000     -3.097000
C           7.894000     21.067000     -0.640000
C           6.247000     19.852000     -1.957000
C           6.725000     20.264000     -0.692000
C           6.013000     19.836000      0.589000
C           4.572000     19.713000      0.613000
C           6.647000     19.532000      1.821000
N           3.789000     19.277000      1.613000
N           7.924000     19.655000      2.114000
C           5.869000     18.980000      2.856000
C           4.392000     18.939000      2.738000
S           8.040000     19.145000      3.611000
N           6.556000     18.612000      3.950000
C           3.439000     18.439000      3.769000
S           3.940000     17.464000      5.234000
C           2.066000     18.696000      3.816000
C           2.296000     17.523000      5.860000
S           1.022000     19.697000      2.766000
C           1.477000     18.217000      4.957000
C           1.937000     16.886000      7.077000
C          -0.295000     19.401000      3.898000
C           0.074000     18.588000      4.964000
N           0.917000     17.408000      7.767000
S           2.807000     15.579000      7.819000
C           0.775000     16.646000      8.941000
C           1.659000     15.613000      9.119000
C           8.915000     20.849000     -4.291000
H           9.576000     21.794000     -1.813000
H           8.276000     21.475000      0.291000
H           5.336000     19.257000     -2.002000
H           4.009000     20.109000     -0.231000
H          -1.255000     19.863000      3.710000
H          -0.558000     18.286000      5.791000
H          -0.024000     16.903000      9.624000
H           1.735000     14.844000      9.877000
H           8.264000     21.315000     -5.041000
C           9.473000     19.504000     -4.876000
H           9.716000     21.583000     -4.139000
H           8.648000     18.786000     -4.962000
H          10.131000     19.047000     -4.127000
C          10.175000     19.688000     -6.156000
H           9.619000     20.260000     -6.910000
C          10.526000     18.268000     -6.717000
H          11.090000     20.229000     -5.883000
H           9.611000     17.721000     -6.976000
H          11.090000     17.769000     -5.919000
C          11.281000     18.424000     -8.091000
H          10.546000     18.894000     -8.757000
C          11.704000     17.061000     -8.721000
H          12.140000     19.099000     -7.995000
H          10.879000     16.361000     -8.903000
H          12.475000     16.540000     -8.140000
H          12.106000     17.399000     -9.685000
$end

--------------------------------------------------------------

             Standard Nuclear Orientation (Angstroms)
    I     Atom           X                Y                Z
 ----------------------------------------------------------------
    1      C       5.8573681764     5.1465794300    -0.0198884997
    2      C       4.9623858810     6.2375128173     0.0075165217
    3      N       5.5111916568     3.8954485207    -0.2532535894
    4      C       3.5898003262     5.9376555352    -0.0920801906
    5      C       4.2439077320     3.6597776301    -0.5059603075
    6      C       3.2162376970     4.6224722296    -0.4688199348
    7      C       1.8003816428     4.2192053073    -0.7358057453
    8      C       1.2093761205     3.1995514291     0.0037295420
    9      C       0.9611752632     4.9898803454    -1.5169757896
   10      N      -0.0243246863     2.7650387684    -0.1156650436
   11      N       1.3447532479     6.0580726291    -2.2024385345
   12      C      -0.3556671429     4.5955206257    -1.6012105147
   13      C      -0.8474945739     3.3807828078    -0.9361061531
   14      S      -0.0229294658     6.4179192138    -2.9258266947
   15      N      -1.1097495157     5.3362808330    -2.4365470280
   16      C      -2.2390144438     2.9191953298    -0.9958928736
   17      S      -3.5750819380     3.6252510564    -1.8257597073
   18      C      -2.7004771779     1.8028798510    -0.3279550794
   19      C      -4.8199264331     2.4332349796    -1.2478965267
   20      S      -1.8002342420     0.7555633991     0.6763854534
   21      C      -4.0876942362     1.5860861091    -0.3485051764
   22      C      -6.2638060969     2.3088092134    -1.4147459954
   23      C      -3.2872573107    -0.0454082683     1.1258437731
   24      C      -4.4206229891     0.5289336795     0.5181805719
   25      N      -6.8771581831     1.1712548005    -1.1507494500
   26      S      -7.0974140573     3.5571652218    -2.2659627979
   27      C      -8.0908826651     1.2103082239    -1.7564999860
   28      C      -8.3919156436     2.3792037323    -2.3270641248
   29      C       7.3175110924     5.4894134419     0.1628148261
   30      H       5.3832855044     7.2165990981     0.2159381180
   31      H       2.8524265419     6.7341013443    -0.0592324281
   32      H       4.1284283533     2.6122287996    -0.7781733873
   33      H       1.7864070298     2.6028398056     0.7083113812
   34      H      -3.2057073186    -0.7561666884     1.9380266756
   35      H      -5.4377165832     0.1812250113     0.6625422797
   36      H      -8.8184262221     0.4099399899    -1.6987067110
   37      H      -9.3025720302     2.5832511916    -2.8744648737
   38      H       8.0099921765     4.7089536222    -0.1761017092
   39      C       7.7170585055     5.8841500721     1.6038095719
   40      H       7.5622160057     6.3044120502    -0.5301467702
   41      H       6.9279290759     6.4469312672     2.1181801287
   42      H       8.7405214138     6.2709915397     1.5212301904
   43      C       7.9900385686     4.5607754429     2.3342556520
   44      H       7.0869468937     4.0015079756     2.6083109871
   45      C       8.8304477576     4.8290177992     3.6503941072
   46      H       8.5984003116     3.8518223423     1.7590178829
   47      H       8.1835691535     5.4527217466     4.2799736953
   48      H       9.7127726769     5.4336472620     3.4045527974
   49      C       9.3954779726     3.5230792535     4.2632744959
   50      H       8.5141047645     2.8770262050     4.3616296003
   51      C       9.9516051450     3.5419507843     5.6594562296
   52      H      10.0768624433     3.1097841199     3.5099270757
   53      H      10.1426521180     2.5323728050     6.0462460407
   54      H       9.3170692101     4.0491177392     6.3967009834
   55      H      10.9266282668     4.0373042581     5.7497604263
   56      C      -5.5912114880    -3.2146198094     2.3787704896
   57      C      -4.5799408399    -3.1178289810     3.4074498429
   58      N      -5.3374259159    -3.7213226412     1.1917847595
   59      C      -3.2917906328    -3.4616250561     3.0770814080
   60      C      -4.0470018348    -3.9571404206     0.8171160180
   61      C      -2.9820485437    -3.7908746672     1.7318198974
   62      C      -1.5320621038    -3.9397835913     1.2774473009
   63      C      -1.1823371952    -4.9203540590     0.2732759778
   64      C      -0.4356869921    -3.1807464495     1.7612036774
   65      N       0.0122200969    -5.1361747453    -0.3008662583
   66      N      -0.4435477618    -2.2989958157     2.7380153420
   67      C       0.8073430475    -3.3126659894     1.1141437454
   68      C       1.0163731217    -4.3848015471     0.1121628205
   69      S       1.0483957056    -1.7659469871     2.8053104859
   70      N       1.7675095823    -2.4813098332     1.5513578429
   71      C       2.2861296277    -4.6811515728    -0.6096855554
   72      S       3.7272547459    -3.5542734987    -0.6436737893
   73      C       2.5920579757    -5.8645198720    -1.2875013963
   74      C       4.6782511667    -4.7643525933    -1.4977272960
   75      S       1.6655622341    -7.3807584903    -1.4800191700
   76      C       3.8870897703    -5.8982429416    -1.7347132091
   77      C       6.0187101232    -4.5168938233    -1.8948078205
   78      C       3.0836740921    -8.0756438312    -2.2608021880
   79      C       4.1453560017    -7.1829960507    -2.3582571148
   80      N       6.8347727901    -5.5716987796    -1.9968481465
   81      S       6.7261350963    -2.9458645399    -2.1119020355
   82      C       8.1038938805    -5.0831697633    -2.3570634406
   83      C       8.2257393121    -3.7251905960    -2.5029238943
   84      C      -7.0130420033    -2.8186005111     2.6788683091
   85      H      -4.8863660710    -2.7887881978     4.3954901967
   86      H      -2.5286926781    -3.3871603421     3.8460323283
   87      H      -3.8141143818    -4.2346652392    -0.2098768784
   88      H      -1.9311606119    -5.6612282052    -0.0032922597
   89      H       3.0457639051    -9.1078182335    -2.5826201814
   90      H       5.1219873779    -7.3892499651    -2.7804033902
   91      H       8.9015211871    -5.7975877606    -2.5130653795
   92      H       9.0465800142    -3.1002331437    -2.8305665725
   93      H      -7.6614986106    -3.6647772245     2.4201290619
   94      C      -7.5168394826    -1.5461994834     1.9108854156
   95      H      -7.1375950679    -2.7079576808     3.7631679439
   96      H      -7.3254562581    -1.6806436117     0.8390448315
   97      H      -6.8720731484    -0.7009527509     2.1804189677
   98      C      -8.9306917580    -1.2410888644     2.1810506489
   99      H      -9.6177889376    -2.0883934921     2.0593611519
  100      C      -9.3566154910    -0.0696766829     1.2319961327
  101      H      -8.9366139621    -0.9083427991     3.2268422073
  102      H      -9.3363407969    -0.3974145851     0.1852431513
  103      H      -8.6385603378     0.7377194907     1.4228081236
  104      C     -10.8689914546     0.2867296687     1.4926308525
  105      H     -11.4186825426    -0.6182685645     1.2036690807
  106      C     -11.3848466174     1.4682748481     0.6143128918
  107      H     -11.0521955874     0.4758170702     2.5572454308
  108      H     -11.2887489157     1.3149985150    -0.4678241594
  109      H     -10.9182066862     2.4280566126     0.8682993857
  110      H     -12.4493952091     1.4708054898     0.8824059574
 ----------------------------------------------------------------

    9   -5663.5252979467      8.16E-06 Convergence criterion met
 Total energy in the final basis set = -5663.5252979467

                    Orbital Energies (a.u.)
 --------------------------------------------------------------

 Alpha MOs
 -- Occupied --
-88.986 -88.986 -88.926 -88.926 -88.925 -88.924 -88.908 -88.901
-14.394 -14.391 -14.387 -14.382 -14.348 -14.344 -14.344 -14.342
-14.327 -14.323 -10.271 -10.266 -10.265 -10.265 -10.259 -10.256
-10.255 -10.250 -10.246 -10.245 -10.240 -10.238 -10.238 -10.233
-10.230 -10.230 -10.229 -10.229 -10.229 -10.228 -10.224 -10.223
-10.222 -10.221 -10.221 -10.220 -10.218 -10.215 -10.214 -10.214
-10.214 -10.208 -10.207 -10.204 -10.200 -10.199 -10.196 -10.188
-10.185 -10.183 -10.181 -10.180 -10.177 -10.176 -10.175 -10.174
-10.174 -10.174 -10.174 -10.170  -8.043  -8.043  -7.988  -7.987
 -7.985  -7.983  -7.968  -7.962  -6.008  -6.008  -6.002  -6.002
 -6.001  -6.000  -5.951  -5.951  -5.949  -5.948  -5.947  -5.947
 -5.945  -5.945  -5.944  -5.943  -5.941  -5.939  -5.932  -5.929
 -5.926  -5.924  -5.922  -5.919  -1.066  -1.060  -0.978  -0.974
 -0.963  -0.962  -0.951  -0.939  -0.930  -0.922  -0.909  -0.904
 -0.842  -0.840  -0.838  -0.832  -0.810  -0.809  -0.808  -0.808
 -0.804  -0.801  -0.798  -0.792  -0.784  -0.779  -0.769  -0.762
 -0.751  -0.748  -0.739  -0.736  -0.724  -0.716  -0.707  -0.707
 -0.692  -0.688  -0.674  -0.670  -0.656  -0.653  -0.649  -0.648
 -0.636  -0.630  -0.629  -0.626  -0.610  -0.604  -0.598  -0.591
 -0.590  -0.589  -0.580  -0.577  -0.575  -0.575  -0.572  -0.569
 -0.552  -0.550  -0.543  -0.536  -0.525  -0.524  -0.514  -0.511
 -0.507  -0.503  -0.499  -0.495  -0.492  -0.490  -0.484  -0.483
 -0.479  -0.476  -0.472  -0.469  -0.463  -0.462  -0.450  -0.445
 -0.443  -0.440  -0.436  -0.434  -0.432  -0.432  -0.430  -0.427
 -0.426  -0.424  -0.423  -0.420  -0.418  -0.414  -0.413  -0.412
 -0.411  -0.408  -0.404  -0.404  -0.400  -0.400  -0.395  -0.394
 -0.390  -0.390  -0.386  -0.386  -0.385  -0.385  -0.382  -0.381
 -0.376  -0.374  -0.373  -0.370  -0.367  -0.366  -0.360  -0.354
 -0.354  -0.352  -0.351  -0.350  -0.350  -0.349  -0.345  -0.344
 -0.343  -0.342  -0.334  -0.334  -0.330  -0.325  -0.325  -0.325
 -0.323  -0.321  -0.318  -0.307  -0.306  -0.305  -0.298  -0.297
 -0.295  -0.293  -0.292  -0.289  -0.288  -0.286  -0.285  -0.283
 -0.276  -0.270  -0.265  -0.265  -0.252  -0.251  -0.248  -0.248
 -0.246  -0.243  -0.231  -0.229  -0.191  -0.190

          Ground-State Mulliken Net Atomic Charges

     Atom                 Charge (a.u.)
  ----------------------------------------
      1 C                     0.282430
      2 C                    -0.110263
      3 N                    -0.461941
      4 C                    -0.062246
      5 C                     0.059704
      6 C                     0.022968
      7 C                     0.000219
      8 C                     0.067098
      9 C                     0.239704
     10 N                    -0.517055
     11 N                    -0.524662
     12 C                     0.143523
     13 C                     0.345163
     14 S                     0.590291
     15 N                    -0.522244
     16 C                    -0.209280
     17 S                     0.321622
     18 C                    -0.135149
     19 C                    -0.236255
     20 S                     0.295076
     21 C                     0.153085
     22 C                     0.061078
     23 C                    -0.325680
     24 C                    -0.079173
     25 N                    -0.436312
     26 S                     0.270077
     27 C                     0.147758
     28 C                    -0.306010
     29 C                    -0.244646
     30 H                     0.095449
     31 H                     0.105702
     32 H                     0.100542
     33 H                     0.108805
     34 H                     0.140069
     35 H                     0.126399
     36 H                     0.115292
     37 H                     0.122554
     38 H                     0.110426
     39 C                    -0.173450
     40 H                     0.095818
     41 H                     0.100777
     42 H                     0.101492
     43 C                    -0.181352
     44 H                     0.102074
     45 C                    -0.179400
     46 H                     0.094100
     47 H                     0.085132
     48 H                     0.083188
     49 C                    -0.168824
     50 H                     0.094927
     51 C                    -0.320957
     52 H                     0.094144
     53 H                     0.101046
     54 H                     0.102967
     55 H                     0.095864
     56 C                     0.283086
     57 C                    -0.126019
     58 N                    -0.485582
     59 C                    -0.070731
     60 C                     0.076416
     61 C                     0.025907
     62 C                     0.027809
     63 C                     0.041958
     64 C                     0.243038
     65 N                    -0.498055
     66 N                    -0.554484
     67 C                     0.177166
     68 C                     0.301592
     69 S                     0.601929
     70 N                    -0.533484
     71 C                    -0.233858
     72 S                     0.312009
     73 C                    -0.110001
     74 C                    -0.217818
     75 S                     0.283442
     76 C                     0.169694
     77 C                     0.042527
     78 C                    -0.313921
     79 C                    -0.056627
     80 N                    -0.428277
     81 S                     0.280281
     82 C                     0.114928
     83 C                    -0.302110
     84 C                    -0.227354
     85 H                     0.093787
     86 H                     0.114492
     87 H                     0.112563
     88 H                     0.112200
     89 H                     0.132984
     90 H                     0.118115
     91 H                     0.112200
     92 H                     0.140639
     93 H                     0.115903
     94 C                    -0.182022
     95 H                     0.085919
     96 H                     0.122935
     97 H                     0.097378
     98 C                    -0.170623
     99 H                     0.090185
    100 C                    -0.171944
    101 H                     0.090627
    102 H                     0.091239
    103 H                     0.099826
    104 C                    -0.183123
    105 H                     0.092666
    106 C                    -0.317229
    107 H                     0.093918
    108 H                     0.094660
    109 H                     0.107733
    110 H                     0.099847
  ----------------------------------------
  Sum of atomic charges =     0.000000

                    Cartesian Multipole Moments
 -----------------------------------------------------------------
    Charge (ESU x 10^10)
                 0.0000
    Dipole Moment (Debye)
         X      -0.0493      Y       2.8117      Z       0.8714
       Tot       2.9441
    Quadrupole Moments (Debye-Ang)
        XX    -398.9565     XY      -1.1830     YY    -430.5643
        XZ      -8.2189     YZ      -2.5796     ZZ    -434.6429

 Total job time:  84.40s(wall), 1001.71s(cpu)
        *  Thank you very much for using Q-Chem.  Have a nice day.  *
