 Q-Chem 4.4, Q-Chem, Inc., Pleasanton, CA (2016)
 Q-Chem 4.4.2 for Intel X86 Linux

User input:
--------------------------------------------------------------
$comment
SP
$end

$rem
MEM_STATIC 5000
MEM_TOTAL 20000
JOBTYPE SP
EXCHANGE B3LYP
BASIS 6-31g(d,p)
$end

$molecule
0 1
C          10.039000     23.502000      2.700000
C          11.091000     23.724000      3.564000
N           8.955000     22.831000      3.147000
C          11.057000     23.390000      4.896000
C           8.930000     22.378000      4.415000
C           9.948000     22.666000      5.394000
C           9.978000     22.303000      6.812000
C          10.727000     22.965000      7.838000
C           9.333000     21.137000      7.309000
N          10.752000     22.554000      9.145000
N           8.676000     20.338000      6.495000
C           9.396000     20.738000      8.662000
C          10.089000     21.508000      9.653000
S           8.180000     19.114000      7.506000
N           8.760000     19.551000      8.919000
C          10.014000     21.319000     11.090000
S           8.906000     20.120000     11.926000
C          10.662000     22.031000     12.044000
C           9.396000     20.692000     13.564000
S          11.972000     23.101000     11.791000
C          10.309000     21.718000     13.379000
C           8.848000     20.167000     14.722000
C          11.840000     23.467000     13.553000
C          10.964000     22.590000     14.228000
N           8.738000     20.971000     15.786000
S           8.233000     18.541000     15.004000
C           8.189000     20.384000     16.849000
C           7.780000     19.065000     16.619000
C           9.939000     23.969000      1.240000
H          11.961000     24.261000      3.197000
H          11.905000     23.622000      5.534000
H           7.997000     21.844000      4.588000
H          11.202000     23.920000      7.618000
H          12.318000     24.353000     13.950000
H          10.691000     22.627000     15.276000
H           8.115000     20.946000     17.771000
H           7.245000     18.449000     17.329000
H          10.843000     24.556000      1.035000
C           8.781000     25.018000      1.138000
H          10.009000     23.147000      0.517000
H           8.796000     25.774000      1.932000
H           7.819000     24.526000      1.329000
C           8.685000     25.678000     -0.309000
H           7.937000     26.481000     -0.293000
C           8.590000     24.872000     -1.551000
H           9.604000     26.231000     -0.543000
H           7.865000     24.056000     -1.439000
H           9.596000     24.458000     -1.688000
C           8.299000     25.547000     -2.867000
H           7.301000     25.987000     -2.752000
C           8.234000     24.507000     -3.988000
H           8.996000     26.305000     -3.246000
H           9.244000     24.275000     -4.348000
H           7.765000     25.078000     -4.799000
H           7.716000     23.541000     -3.937000
C           8.125000     20.703000     -3.017000
C           8.636000     21.252000     -1.781000
N           6.938000     20.142000     -3.097000
C           7.894000     21.067000     -0.640000
C           6.247000     19.852000     -1.957000
C           6.725000     20.264000     -0.692000
C           6.013000     19.836000      0.589000
C           4.572000     19.713000      0.613000
C           6.647000     19.532000      1.821000
N           3.789000     19.277000      1.613000
N           7.924000     19.655000      2.114000
C           5.869000     18.980000      2.856000
C           4.392000     18.939000      2.738000
S           8.040000     19.145000      3.611000
N           6.556000     18.612000      3.950000
C           3.439000     18.439000      3.769000
S           3.940000     17.464000      5.234000
C           2.066000     18.696000      3.816000
C           2.296000     17.523000      5.860000
S           1.022000     19.697000      2.766000
C           1.477000     18.217000      4.957000
C           1.937000     16.886000      7.077000
C          -0.295000     19.401000      3.898000
C           0.074000     18.588000      4.964000
N           0.917000     17.408000      7.767000
S           2.807000     15.579000      7.819000
C           0.775000     16.646000      8.941000
C           1.659000     15.613000      9.119000
C           8.915000     20.849000     -4.291000
H           9.576000     21.794000     -1.813000
H           8.276000     21.475000      0.291000
H           5.336000     19.257000     -2.002000
H           4.009000     20.109000     -0.231000
H          -1.255000     19.863000      3.710000
H          -0.558000     18.286000      5.791000
H          -0.024000     16.903000      9.624000
H           1.735000     14.844000      9.877000
H           8.264000     21.315000     -5.041000
C           9.473000     19.504000     -4.876000
H           9.716000     21.583000     -4.139000
H           8.648000     18.786000     -4.962000
H          10.131000     19.047000     -4.127000
C          10.175000     19.688000     -6.156000
H           9.619000     20.260000     -6.910000
C          10.526000     18.268000     -6.717000
H          11.090000     20.229000     -5.883000
H           9.611000     17.721000     -6.976000
H          11.090000     17.769000     -5.919000
C          11.281000     18.424000     -8.091000
H          10.546000     18.894000     -8.757000
C          11.704000     17.061000     -8.721000
H          12.140000     19.099000     -7.995000
H          10.879000     16.361000     -8.903000
H          12.475000     16.540000     -8.140000
H          12.106000     17.399000     -9.685000
$end

--------------------------------------------------------------

             Standard Nuclear Orientation (Angstroms)
    I     Atom           X                Y                Z
 ----------------------------------------------------------------
    1      C       2.2228477138    -3.8395163104     1.3155228051
    2      C       1.3643211656    -4.8680256093     0.9875216034
    3      N       1.7594948136    -2.5705618409     1.3026914322
    4      C       0.0243451806    -4.6848781084     0.7469860497
    5      C       0.4804983890    -2.3335502683     0.9539054513
    6      C      -0.4913169484    -3.3679973845     0.7025031567
    7      C      -1.9180197669    -3.2261243803     0.4062193091
    8      C      -2.9273016612    -4.2210180767     0.6146841518
    9      C      -2.4439857255    -2.0822456102    -0.2552118436
   10      N      -4.2442466202    -4.0489311610     0.2772866588
   11      N      -1.6501208860    -1.0990982142    -0.6237845154
   12      C      -3.8066280287    -1.9495296779    -0.6007135581
   13      C      -4.7781804211    -2.9510262454    -0.2715926472
   14      S      -2.6914398350    -0.0601111824    -1.3999763693
   15      N      -4.0932023114    -0.7996459436    -1.2900295801
   16      C      -6.2194562980    -2.8080351127    -0.3642877531
   17      S      -7.0849735593    -1.2535796135    -0.8100555979
   18      C      -7.1554643110    -3.7407555137    -0.0628152781
   19      C      -8.7082314685    -1.9875498504    -0.5331992242
   20      S      -6.8760858657    -5.4102511473     0.1816044706
   21      C      -8.4977918527    -3.2941780580    -0.1222151670
   22      C      -9.8788814504    -1.2628284707    -0.6789748793
   23      C      -8.6282608200    -5.5058926240     0.6020323921
   24      C      -9.3248064785    -4.3133411321     0.3108707793
   25      N     -10.9222557991    -1.5923930652     0.0913297011
   26      S     -10.2015110001     0.0929749649    -1.7556977860
   27      C     -11.9994968975    -0.8339442133    -0.1092842443
   28      C     -11.8026342629     0.1943721253    -1.0386671638
   29      C       3.6941822883    -3.9738270437     1.7360274981
   30      H       1.7444044992    -5.8855801318     0.9963223521
   31      H      -0.6079253527    -5.5403118176     0.5268971087
   32      H       0.2944524970    -1.2609420339     0.9756425496
   33      H      -2.6834982428    -5.1144503963     1.1877361420
   34      H      -9.0030004311    -6.3743951862     1.1277343261
   35      H     -10.3714407256    -4.1107398775     0.5050652295
   36      H     -12.9070239935    -1.0690332705     0.4315777576
   37      H     -12.5277228552     0.9600335527    -1.2790629041
   38      H       3.9135635205    -5.0481842871     1.7739535883
   39      C       3.8229977152    -3.5131194945     3.2269748948
   40      H       4.3962263882    -3.6049639380     0.9781442016
   41      H       3.0482824378    -3.9222161849     3.8862571840
   42      H       3.6200260098    -2.4372679103     3.3000149904
   43      C       5.2861952666    -3.7496348015     3.8115588795
   44      H       5.2907005870    -3.5171429011     4.8841707470
   45      C       6.5075390310    -3.2406067104     3.1404144750
   46      H       5.5337054948    -4.8191508216     3.8119706772
   47      H       6.3752947892    -2.2019462125     2.8122059580
   48      H       6.6336956004    -3.8920830628     2.2675662165
   49      C       7.8402284109    -3.3188173143     3.8404031308
   50      H       7.7367166483    -2.6872245912     4.7310236713
   51      C       8.9347065517    -2.7175442889     2.9554995495
   52      H       8.2379377501    -4.3004274321     4.1272530185
   53      H       9.2883742213    -3.4626434770     2.2321252485
   54      H       9.7600032848    -2.5959595393     3.6681182772
   55      H       8.8595885030    -1.7794104493     2.3912804628
   56      C       7.8682585445    -0.6925855152    -0.2362662020
   57      C       6.6462860931    -1.4278104482     0.0013166803
   58      N       7.9345469239     0.6153178749    -0.1134469335
   59      C       5.5012651318    -0.7098281662     0.2464665141
   60      C       6.7878624500     1.3431198955     0.0153938058
   61      C       5.5334613850     0.7058891143     0.1527542792
   62      C       4.2423541793     1.5204759529     0.1768263692
   63      C       4.2158002232     2.8216267061     0.8080851156
   64      C       3.0028535158     1.1153721488    -0.3814970256
   65      N       3.2054288225     3.7048554034     0.8554317189
   66      N       2.7125690255    -0.0487908405    -0.9220212611
   67      C       1.9545701168     2.0531279479    -0.4356170452
   68      C       2.0720495212     3.3451110448     0.2813991799
   69      S       1.2031573632     0.0932713254    -1.3868435654
   70      N       0.8513942462     1.6368973723    -1.0790330120
   71      C       1.0291394633     4.4067716262     0.3613080085
   72      S      -0.4601356913     4.4558759906    -0.7005296794
   73      C       0.9891370948     5.4550432672     1.2848411033
   74      C      -1.0838398557     5.8309767817     0.2040055214
   75      S       2.0644006132     5.8541828584     2.6555828561
   76      C      -0.1633446073     6.1917182665     1.1991738885
   77      C      -2.3163619258     6.4497232646    -0.1333090747
   78      C       0.9257953322     7.1232289731     3.0990115120
   79      C      -0.1604776315     7.2080361023     2.2351221677
   80      N      -2.9926180925     7.0511160824     0.8515707533
   81      S      -3.0913644626     6.3603454997    -1.6847908448
   82      C      -4.1853824012     7.5477420640     0.2950099404
   83      C      -4.3896688807     7.3134230366    -1.0405014327
   84      C       9.1452373222    -1.4302320078    -0.5423623525
   85      H       6.6915755737    -2.5122923019    -0.0140446979
   86      H       4.5806930903    -1.2583067639     0.4221575624
   87      H       6.8182030529     2.4307187385    -0.0312881464
   88      H       5.0697144050     3.1138303807     1.4176493721
   89      H       1.1257273488     7.7147217844     3.9824997365
   90      H      -0.9945855347     7.8951836791     2.3166648766
   91      H      -4.8613965103     8.0946500225     0.9390872720
   92      H      -5.1668225133     7.6314643137    -1.7235702268
   93      H       9.9069768700    -1.0993304843     0.1743761235
   94      C       9.6959729267    -1.2153618461    -1.9960250051
   95      H       9.0114720264    -2.4956379836    -0.3176893625
   96      H       9.7641710147    -0.1383293486    -2.1932432093
   97      H       8.9354571062    -1.5568657471    -2.7086292237
   98      C      10.9799394894    -1.8967067416    -2.2246272782
   99      H      11.7483118448    -1.7015674044    -1.4654431356
  100      C      11.5048709635    -1.4658936208    -3.6364236525
  101      H      10.7203098355    -2.9630167820    -2.2214116114
  102      H      11.7503539597    -0.3966938991    -3.6444892491
  103      H      10.6943479573    -1.7057570887    -4.3360085102
  104      C      12.8820828685    -2.1773098104    -3.9182238900
  105      H      13.5599810370    -1.7773038992    -3.1532857590
  106      C      13.4774011131    -1.8366394795    -5.3193441251
  107      H      12.8027924330    -3.2617239180    -3.7751118006
  108      H      13.6420220447    -0.7675983106    -5.5031916927
  109      H      12.8831782531    -2.2404666443    -6.1483590909
  110      H      14.4494576945    -2.3427634764    -5.2554027259
 ----------------------------------------------------------------

   11   -5663.5267669171      7.45E-06 Convergence criterion met
 Total energy in the final basis set = -5663.5267669171

                    Orbital Energies (a.u.)
 --------------------------------------------------------------

 Alpha MOs
 -- Occupied --
-88.985 -88.979 -88.935 -88.925 -88.923 -88.922 -88.913 -88.906
-14.394 -14.384 -14.383 -14.373 -14.350 -14.344 -14.343 -14.342
-14.333 -14.323 -10.269 -10.267 -10.265 -10.260 -10.259 -10.255
-10.253 -10.249 -10.249 -10.245 -10.244 -10.243 -10.237 -10.235
-10.234 -10.234 -10.233 -10.233 -10.230 -10.230 -10.229 -10.229
-10.228 -10.227 -10.225 -10.225 -10.225 -10.223 -10.220 -10.215
-10.213 -10.210 -10.206 -10.200 -10.200 -10.198 -10.197 -10.194
-10.194 -10.191 -10.180 -10.179 -10.179 -10.176 -10.175 -10.173
-10.172 -10.171 -10.169 -10.168  -8.041  -8.035  -7.995  -7.986
 -7.981  -7.981  -7.973  -7.965  -6.006  -6.001  -6.000  -5.999
 -5.994  -5.993  -5.959  -5.955  -5.952  -5.950  -5.947  -5.945
 -5.945  -5.943  -5.942  -5.942  -5.938  -5.937  -5.937  -5.934
 -5.930  -5.929  -5.926  -5.921  -1.052  -1.047  -0.974  -0.961
 -0.958  -0.954  -0.943  -0.935  -0.921  -0.915  -0.912  -0.901
 -0.841  -0.836  -0.836  -0.826  -0.810  -0.808  -0.807  -0.806
 -0.805  -0.802  -0.795  -0.790  -0.788  -0.776  -0.773  -0.759
 -0.756  -0.747  -0.745  -0.733  -0.722  -0.719  -0.714  -0.703
 -0.697  -0.685  -0.675  -0.666  -0.657  -0.649  -0.647  -0.644
 -0.642  -0.630  -0.626  -0.621  -0.618  -0.602  -0.601  -0.595
 -0.593  -0.588  -0.587  -0.586  -0.577  -0.573  -0.570  -0.561
 -0.561  -0.549  -0.543  -0.532  -0.527  -0.520  -0.514  -0.512
 -0.512  -0.500  -0.499  -0.492  -0.491  -0.486  -0.480  -0.477
 -0.475  -0.474  -0.473  -0.470  -0.464  -0.459  -0.449  -0.447
 -0.442  -0.440  -0.439  -0.437  -0.435  -0.434  -0.432  -0.430
 -0.428  -0.426  -0.425  -0.424  -0.420  -0.419  -0.415  -0.410
 -0.408  -0.406  -0.404  -0.401  -0.399  -0.397  -0.394  -0.392
 -0.390  -0.390  -0.388  -0.388  -0.384  -0.384  -0.383  -0.382
 -0.380  -0.378  -0.373  -0.372  -0.369  -0.363  -0.362  -0.359
 -0.353  -0.352  -0.348  -0.348  -0.347  -0.346  -0.344  -0.342
 -0.340  -0.337  -0.332  -0.331  -0.331  -0.328  -0.324  -0.322
 -0.317  -0.317  -0.316  -0.310  -0.306  -0.301  -0.300  -0.296
 -0.294  -0.293  -0.290  -0.288  -0.287  -0.282  -0.281  -0.278
 -0.276  -0.272  -0.268  -0.260  -0.257  -0.252  -0.251  -0.247
 -0.245  -0.242  -0.232  -0.225  -0.195  -0.188

          Ground-State Mulliken Net Atomic Charges

     Atom                 Charge (a.u.)
  ----------------------------------------
      1 C                     0.259478
      2 C                    -0.126665
      3 N                    -0.476170
      4 C                    -0.066982
      5 C                     0.082306
      6 C                     0.028312
      7 C                     0.049140
      8 C                     0.052810
      9 C                     0.261176
     10 N                    -0.561274
     11 N                    -0.587413
     12 C                     0.131899
     13 C                     0.343189
     14 S                     0.606284
     15 N                    -0.523692
     16 C                    -0.198506
     17 S                     0.295471
     18 C                    -0.113667
     19 C                    -0.214963
     20 S                     0.289648
     21 C                     0.204448
     22 C                     0.021942
     23 C                    -0.315199
     24 C                    -0.074189
     25 N                    -0.417789
     26 S                     0.280957
     27 C                     0.135087
     28 C                    -0.316965
     29 C                    -0.217364
     30 H                     0.083917
     31 H                     0.105352
     32 H                     0.125676
     33 H                     0.115560
     34 H                     0.128567
     35 H                     0.123726
     36 H                     0.117159
     37 H                     0.133612
     38 H                     0.095347
     39 C                    -0.181437
     40 H                     0.124952
     41 H                     0.100891
     42 H                     0.122713
     43 C                    -0.187215
     44 H                     0.083241
     45 C                    -0.161453
     46 H                     0.081333
     47 H                     0.101409
     48 H                     0.079926
     49 C                    -0.178373
     50 H                     0.095735
     51 C                    -0.331724
     52 H                     0.094499
     53 H                     0.097275
     54 H                     0.096380
     55 H                     0.119910
     56 C                     0.276846
     57 C                    -0.119967
     58 N                    -0.490438
     59 C                    -0.074401
     60 C                     0.069120
     61 C                     0.024067
     62 C                     0.027236
     63 C                     0.038647
     64 C                     0.234639
     65 N                    -0.499180
     66 N                    -0.535765
     67 C                     0.168849
     68 C                     0.300235
     69 S                     0.625731
     70 N                    -0.554609
     71 C                    -0.231690
     72 S                     0.303756
     73 C                    -0.110673
     74 C                    -0.221564
     75 S                     0.282720
     76 C                     0.170209
     77 C                     0.042713
     78 C                    -0.312414
     79 C                    -0.058654
     80 N                    -0.428921
     81 S                     0.273949
     82 C                     0.115123
     83 C                    -0.303193
     84 C                    -0.225262
     85 H                     0.090379
     86 H                     0.137006
     87 H                     0.107805
     88 H                     0.110089
     89 H                     0.132160
     90 H                     0.117305
     91 H                     0.111551
     92 H                     0.138627
     93 H                     0.114872
     94 C                    -0.176362
     95 H                     0.088335
     96 H                     0.112198
     97 H                     0.090069
     98 C                    -0.166437
     99 H                     0.091264
    100 C                    -0.172601
    101 H                     0.089367
    102 H                     0.096047
    103 H                     0.089607
    104 C                    -0.181651
    105 H                     0.094157
    106 C                    -0.317937
    107 H                     0.092346
    108 H                     0.103025
    109 H                     0.103907
    110 H                     0.099476
  ----------------------------------------
  Sum of atomic charges =     0.000000

                    Cartesian Multipole Moments
 -----------------------------------------------------------------
    Charge (ESU x 10^10)
                 0.0000
    Dipole Moment (Debye)
         X      -3.9850      Y      -2.5785      Z      -0.8747
       Tot       4.8264
    Quadrupole Moments (Debye-Ang)
        XX    -401.6071     XY     -33.9231     YY    -417.1945
        XZ       9.1904     YZ      -8.2661     ZZ    -445.5529

 Total job time:  102.95s(wall), 1232.33s(cpu)
        *  Thank you very much for using Q-Chem.  Have a nice day.  *
