 Q-Chem 4.4, Q-Chem, Inc., Pleasanton, CA (2016)
 Q-Chem 4.4.2 for Intel X86 Linux

User input:
--------------------------------------------------------------
$comment
SP
$end

$rem
MEM_STATIC 5000
MEM_TOTAL 20000
JOBTYPE SP
EXCHANGE B3LYP
BASIS 6-31g(d,p)
$end

$molecule
0 1
C          14.826000     19.510000     15.868000
C          13.479000     19.827000     15.432000
N          15.799000     19.362000     14.915000
C          13.128000     19.741000     14.103000
C          15.398000     19.372000     13.617000
C          14.075000     19.570000     13.089000
C          13.729000     19.617000     11.607000
C          12.434000     19.149000     11.173000
C          14.494000     20.247000     10.573000
N          12.044000     19.020000      9.898000
N          15.663000     20.793000     10.741000
C          14.109000     20.064000      9.222000
C          12.888000     19.449000      8.914000
S          16.181000     21.210000      9.244000
N          15.007000     20.548000      8.310000
C          12.400000     19.165000      7.534000
S          12.729000     20.165000      6.182000
C          11.517000     18.189000      7.223000
C          11.784000     19.166000      5.093000
S          10.713000     17.024000      8.193000
C          11.194000     18.154000      5.816000
C          11.835000     19.177000      3.639000
C          10.099000     16.341000      6.649000
C          10.305000     17.131000      5.478000
N          11.530000     18.094000      2.928000
S          12.334000     20.579000      2.636000
C          11.650000     18.297000      1.589000
C          11.928000     19.557000      1.305000
C          15.102000     19.412000     17.398000
H          12.697000     19.942000     16.176000
H          12.051000     19.781000     13.969000
H          16.229000     19.068000     12.982000
H          11.629000     18.787000     11.810000
H           9.486000     15.465000      6.816000
H           9.913000     16.842000      4.510000
H          11.496000     17.464000      0.916000
H          12.027000     20.011000      0.328000
H          15.757000     20.227000     17.729000
C          15.678000     18.022000     17.767000
H          14.126000     19.512000     17.888000
H          16.742000     18.095000     17.507000
H          15.098000     17.344000     17.130000
C          15.583000     17.622000     19.192000
H          15.950000     18.476000     19.775000
C          16.529000     16.346000     19.386000
H          14.528000     17.388000     19.384000
H          17.553000     16.739000     19.378000
H          16.338000     15.591000     18.614000
C          16.287000     15.791000     20.818000
H          17.186000     15.363000     21.277000
C          15.278000     14.671000     20.607000
H          16.004000     16.603000     21.499000
H          15.622000     13.932000     19.873000
H          14.365000     15.115000     20.191000
H          14.951000     14.190000     21.537000
C          19.983000     26.145000      7.679000
C          18.650000     26.465000      7.310000
N          20.390000     25.876000      8.901000
C          17.655000     26.405000      8.310000
C          19.439000     25.787000      9.849000
C          18.038000     25.988000      9.611000
C          17.078000     25.833000     10.734000
C          16.146000     26.797000     11.175000
C          17.129000     24.665000     11.544000
N          15.282000     26.576000     12.177000
N          18.039000     23.649000     11.287000
C          16.355000     24.427000     12.615000
C          15.404000     25.467000     12.943000
S          17.680000     22.482000     12.388000
N          16.520000     23.240000     13.207000
C          14.609000     25.382000     14.222000
S          14.882000     24.161000     15.568000
C          13.639000     26.288000     14.630000
C          13.500000     24.726000     16.432000
S          12.937000     27.691000     13.828000
C          12.987000     25.893000     15.830000
C          13.070000     24.092000     17.614000
C          11.907000     27.867000     15.310000
C          12.014000     26.811000     16.241000
N          11.793000     23.949000     17.791000
S          14.036000     23.268000     18.794000
C          11.509000     23.202000     18.936000
C          12.611000     22.759000     19.579000
C          21.063000     26.041000      6.565000
H          18.360000     26.674000      6.285000
H          16.621000     26.654000      8.092000
H          19.906000     25.659000     10.824000
H          16.087000     27.744000     10.641000
H          11.339000     28.783000     15.404000
H          11.481000     26.820000     17.185000
H          10.473000     23.027000     19.194000
H          12.645000     22.336000     20.574000
H          21.331000     26.994000      6.092000
C          20.706000     25.000000      5.455000
H          22.025000     25.832000      7.049000
H          20.024000     25.416000      4.704000
H          20.248000     24.102000      5.887000
C          21.916000     24.403000      4.648000
H          22.573000     23.834000      5.317000
C          22.768000     25.493000      3.943000
H          21.490000     23.731000      3.894000
H          23.704000     25.114000      3.515000
H          23.041000     26.281000      4.655000
C          22.108000     25.994000      2.627000
H          21.796000     25.094000      2.082000
C          23.009000     26.843000      1.734000
H          21.215000     26.584000      2.869000
H          23.947000     26.312000      1.526000
H          23.215000     27.816000      2.197000
H          22.541000     27.072000      0.769000
$end

--------------------------------------------------------------

             Standard Nuclear Orientation (Angstroms)
    I     Atom           X                Y                Z
 ----------------------------------------------------------------
    1      C      -4.9308995847    -1.3067923233     1.7755993407
    2      C      -4.6912825083    -1.9411627557     0.4929646261
    3      N      -3.8499452476    -0.9904755628     2.5555502546
    4      C      -3.4466599263    -2.4349421036     0.1705757554
    5      C      -2.6360514974    -1.4343340496     2.1370331023
    6      C      -2.3116946610    -2.1621381727     0.9397817498
    7      C      -0.9050035041    -2.5737220482     0.5273890940
    8      C      -0.7224297414    -3.7899511745    -0.2288241918
    9      C       0.2852619974    -1.7877917607     0.6572452420
   10      N       0.4593685624    -4.3320944152    -0.5510034520
   11      N       0.3505908462    -0.6295668953     1.2464381668
   12      C       1.5382735658    -2.3814261479     0.3665990244
   13      C       1.5968196037    -3.6475653942    -0.2312251727
   14      S       1.9397822256    -0.2338550341     1.2796779406
   15      N       2.6179424454    -1.6097248504     0.7000599933
   16      C       2.8537738003    -4.3868857889    -0.5421455829
   17      S       4.3172090528    -3.6259371097    -1.0063215943
   18      C       2.9400637356    -5.7320059508    -0.6525620542
   19      C       5.1572068339    -5.1523027726    -1.2101808372
   20      S       1.7633523577    -6.9699174321    -0.4868318592
   21      C       4.2700142346    -6.1816807402    -0.9905372814
   22      C       6.5967938714    -5.3483016481    -1.2877153607
   23      C       3.1293450423    -8.1235302907    -0.6619385641
   24      C       4.3781171420    -7.5715182283    -1.0786254079
   25      N       7.1602310953    -6.4935452966    -0.9103687292
   26      S       7.7764363741    -4.1142649121    -1.8410786230
   27      C       8.5131828310    -6.4793036822    -1.0439680445
   28      C       8.9386864669    -5.3730299877    -1.6276161995
   29      C      -6.4001043746    -0.9694729824     2.1684516639
   30      H      -5.5387915450    -2.2020203320    -0.1331078597
   31      H      -3.4834518507    -3.0742503738    -0.7065880207
   32      H      -1.9032242581    -1.2740250767     2.9266325390
   33      H      -1.5068422915    -4.4547798893    -0.5859484435
   34      H       2.7964985660    -9.1504615103    -0.5867089596
   35      H       5.2446284333    -8.1902269940    -1.2800370393
   36      H       9.0835108894    -7.3320351180    -0.7002981386
   37      H       9.9523861269    -5.1166852232    -1.9053685370
   38      H      -6.5554523274     0.1156875849     2.2016865349
   39      C      -6.7834566906    -1.6490632515     3.5068219669
   40      H      -7.0298763029    -1.4000456401     1.3806252206
   41      H      -6.3519681781    -0.9930399123     4.2739438881
   42      H      -6.3040135169    -2.6314901166     3.4242102365
   43      C      -8.2329366110    -1.7882880425     3.7883790976
   44      H      -8.6790309577    -0.8053796770     3.5914400742
   45      C      -8.3758644428    -2.1841835640     5.3322593944
   46      H      -8.6090827561    -2.5757229937     3.1227175656
   47      H      -8.1728627674    -1.2613808483     5.8893181595
   48      H      -7.7077395745    -3.0142694192     5.5912123502
   49      C      -9.8682020867    -2.5319809057     5.5952771991
   50      H     -10.2108985347    -2.2505553526     6.5979859317
   51      C      -9.9120315802    -4.0493727238     5.4830139103
   52      H     -10.5178302734    -1.9576556807     4.9234678847
   53      H      -9.1946304578    -4.5384710944     6.1533357835
   54      H      -9.6125842954    -4.3197691061     4.4627305575
   55      H     -10.9180514552    -4.4717938356     5.5955946166
   56      C       4.4846579025     5.6604467523     1.0810117884
   57      C       4.6608312796     5.0476994521    -0.1874335937
   58      N       3.3255872512     5.8932000963     1.6586579656
   59      C       3.5133320532     4.5631734953    -0.8523434542
   60      C       2.2339298217     5.4041030211     1.0421402387
   61      C       2.2607570483     4.6785843374    -0.1959021433
   62      C       0.9901563397     4.1608058572    -0.7653170050
   63      C       0.4853668499     4.4240662656    -2.0569371226
   64      C       0.1070590892     3.4097842900     0.0587162781
   65      N      -0.6561935671     3.8929617573    -2.5196560607
   66      N       0.4231061515     3.1224083144     1.3792973256
   67      C      -1.0893997855     2.9307850409    -0.3178562654
   68      C      -1.4799072853     3.2237069471    -1.6799449738
   69      S      -0.8116445530     2.1722439439     1.9042252891
   70      N      -1.7413537776     2.1983158607     0.5904954794
   71      C      -2.8720123813     2.8852953935    -2.1517627585
   72      S      -4.2513223518     2.3133540154    -1.0805610663
   73      C      -3.3550800189     3.0749907115    -3.4397306711
   74      C      -5.2763125116     2.0621180102    -2.4450831959
   75      S      -2.5647646996     3.6187482245    -4.9176164796
   76      C      -4.6716660184     2.5676710060    -3.6139633380
   77      C      -6.5590578701     1.4988491078    -2.2992322826
   78      C      -4.1730265271     3.3755888086    -5.7192194939
   79      C      -5.1571952506     2.7654229127    -4.9114723161
   80      N      -6.9485247386     0.6463539741    -3.1959343542
   81      S      -7.6324092184     1.6278405723    -0.9443115893
   82      C      -8.1806913205     0.0767460268    -2.8688222926
   83      C      -8.6732390633     0.4985336020    -1.6840885831
   84      C       5.7446433696     6.0495609004     1.9051712404
   85      H       5.6399039860     4.8704284217    -0.6214815373
   86      H       3.5829203386     4.0995200038    -1.8315594213
   87      H       1.3388348175     5.7432277441     1.5606933756
   88      H       1.0777953518     5.0422159871    -2.7295182642
   89      H      -4.2822000388     3.7644815452    -6.7228925402
   90      H      -6.1703037283     2.6041109764    -5.2620371056
   91      H      -8.6139785120    -0.6424487274    -3.5511023782
   92      H      -9.6809225938     0.3494612082    -1.3201362185
   93      H       6.3297202418     6.8792869866     1.4892365394
   94      C       6.6957413395     4.8412363347     2.1855181608
   95      H       5.4050830506     6.5441476149     2.8235740777
   96      H       7.3593893413     4.6339140013     1.3377152476
   97      H       6.1251246761     3.9333862238     2.4157284985
   98      C       7.6346203012     4.9730596666     3.4396660406
   99      H       7.0353093133     5.0324722134     4.3563270953
  100      C       8.5522083816     6.2241638998     3.3780274780
  101      H       8.2542361208     4.0691697866     3.4648716154
  102      H       9.0920730391     6.4226205889     4.3118808359
  103      H       7.9588654376     7.1197342498     3.1582209746
  104      C       9.7821209906     6.0050850652     2.4518652685
  105      H      10.1958908770     5.0255128031     2.7231615355
  106      C      10.8730414912     7.0669323957     2.5633269568
  107      H       9.4491537089     5.9673380336     1.4069629042
  108      H      11.1845007883     7.1834053435     3.6095086612
  109      H      10.5289282192     8.0264220108     2.1577412882
  110      H      11.7662919011     6.8077595613     1.9822734762
 ----------------------------------------------------------------

   10   -5663.5123525899      6.30E-06 Convergence criterion met
 Total energy in the final basis set = -5663.5123525899

                    Orbital Energies (a.u.)
 --------------------------------------------------------------

 Alpha MOs
 -- Occupied --
-88.991 -88.985 -88.926 -88.922 -88.922 -88.920 -88.911 -88.909
-14.395 -14.384 -14.377 -14.374 -14.353 -14.348 -14.339 -14.337
-14.334 -14.326 -10.270 -10.265 -10.263 -10.263 -10.261 -10.259
-10.244 -10.244 -10.243 -10.242 -10.238 -10.238 -10.237 -10.236
-10.235 -10.233 -10.230 -10.230 -10.229 -10.229 -10.227 -10.226
-10.226 -10.226 -10.225 -10.223 -10.221 -10.219 -10.219 -10.217
-10.214 -10.210 -10.209 -10.206 -10.200 -10.200 -10.200 -10.198
-10.191 -10.184 -10.184 -10.182 -10.181 -10.180 -10.177 -10.177
-10.175 -10.175 -10.172 -10.172  -8.046  -8.039  -7.988  -7.983
 -7.981  -7.980  -7.969  -7.969  -6.011  -6.006  -6.004  -6.004
 -5.999  -5.998  -5.952  -5.948  -5.947  -5.945  -5.945  -5.945
 -5.943  -5.941  -5.941  -5.940  -5.937  -5.937  -5.934  -5.933
 -5.930  -5.930  -5.926  -5.925  -1.046  -1.035  -0.977  -0.967
 -0.958  -0.952  -0.943  -0.929  -0.917  -0.911  -0.903  -0.892
 -0.842  -0.837  -0.829  -0.828  -0.814  -0.811  -0.810  -0.806
 -0.802  -0.800  -0.797  -0.792  -0.782  -0.778  -0.768  -0.763
 -0.750  -0.749  -0.743  -0.738  -0.719  -0.717  -0.709  -0.705
 -0.693  -0.690  -0.679  -0.671  -0.654  -0.653  -0.642  -0.638
 -0.637  -0.633  -0.626  -0.618  -0.610  -0.609  -0.596  -0.595
 -0.592  -0.587  -0.586  -0.580  -0.577  -0.577  -0.570  -0.552
 -0.550  -0.550  -0.542  -0.535  -0.524  -0.521  -0.515  -0.512
 -0.507  -0.505  -0.504  -0.494  -0.490  -0.484  -0.481  -0.477
 -0.475  -0.471  -0.470  -0.465  -0.461  -0.459  -0.452  -0.446
 -0.444  -0.443  -0.442  -0.436  -0.433  -0.430  -0.426  -0.425
 -0.424  -0.423  -0.422  -0.421  -0.418  -0.415  -0.412  -0.411
 -0.410  -0.408  -0.405  -0.402  -0.400  -0.399  -0.396  -0.393
 -0.392  -0.388  -0.388  -0.387  -0.386  -0.385  -0.385  -0.382
 -0.381  -0.377  -0.377  -0.373  -0.372  -0.361  -0.356  -0.355
 -0.354  -0.352  -0.350  -0.347  -0.347  -0.346  -0.345  -0.341
 -0.336  -0.334  -0.333  -0.333  -0.332  -0.327  -0.323  -0.322
 -0.322  -0.309  -0.308  -0.306  -0.303  -0.300  -0.298  -0.298
 -0.298  -0.293  -0.289  -0.288  -0.287  -0.285  -0.280  -0.279
 -0.274  -0.272  -0.264  -0.262  -0.257  -0.254  -0.253  -0.250
 -0.242  -0.239  -0.228  -0.227  -0.193  -0.191

          Ground-State Mulliken Net Atomic Charges

     Atom                 Charge (a.u.)
  ----------------------------------------
      1 C                     0.268634
      2 C                    -0.121904
      3 N                    -0.481741
      4 C                    -0.068511
      5 C                     0.065956
      6 C                     0.051050
      7 C                     0.017490
      8 C                     0.059769
      9 C                     0.272811
     10 N                    -0.508098
     11 N                    -0.564307
     12 C                     0.187365
     13 C                     0.277596
     14 S                     0.615137
     15 N                    -0.541808
     16 C                    -0.223951
     17 S                     0.313488
     18 C                    -0.073985
     19 C                    -0.240374
     20 S                     0.277028
     21 C                     0.153323
     22 C                     0.065236
     23 C                    -0.310128
     24 C                    -0.056901
     25 N                    -0.443149
     26 S                     0.249748
     27 C                     0.143486
     28 C                    -0.307779
     29 C                    -0.238689
     30 H                     0.089217
     31 H                     0.099147
     32 H                     0.105114
     33 H                     0.114435
     34 H                     0.121076
     35 H                     0.131006
     36 H                     0.116718
     37 H                     0.123244
     38 H                     0.121001
     39 C                    -0.165868
     40 H                     0.095639
     41 H                     0.112946
     42 H                     0.094730
     43 C                    -0.176048
     44 H                     0.092100
     45 C                    -0.176580
     46 H                     0.091375
     47 H                     0.092662
     48 H                     0.101111
     49 C                    -0.171601
     50 H                     0.088016
     51 C                    -0.316702
     52 H                     0.094256
     53 H                     0.107557
     54 H                     0.099158
     55 H                     0.092547
     56 C                     0.269666
     57 C                    -0.108634
     58 N                    -0.470124
     59 C                    -0.078496
     60 C                     0.105024
     61 C                     0.016738
     62 C                     0.016020
     63 C                     0.061855
     64 C                     0.206810
     65 N                    -0.523366
     66 N                    -0.568210
     67 C                     0.223655
     68 C                     0.300899
     69 S                     0.646572
     70 N                    -0.563464
     71 C                    -0.229735
     72 S                     0.326630
     73 C                    -0.108251
     74 C                    -0.206939
     75 S                     0.280585
     76 C                     0.161394
     77 C                     0.029776
     78 C                    -0.315663
     79 C                    -0.054800
     80 N                    -0.412538
     81 S                     0.266042
     82 C                     0.106184
     83 C                    -0.303069
     84 C                    -0.236908
     85 H                     0.095097
     86 H                     0.102062
     87 H                     0.108826
     88 H                     0.110454
     89 H                     0.124986
     90 H                     0.116145
     91 H                     0.115008
     92 H                     0.136994
     93 H                     0.107149
     94 C                    -0.178849
     95 H                     0.116951
     96 H                     0.095979
     97 H                     0.102418
     98 C                    -0.189357
     99 H                     0.096076
    100 C                    -0.169640
    101 H                     0.089972
    102 H                     0.085249
    103 H                     0.092685
    104 C                    -0.174601
    105 H                     0.092142
    106 C                    -0.318700
    107 H                     0.088710
    108 H                     0.100114
    109 H                     0.103228
    110 H                     0.100198
  ----------------------------------------
  Sum of atomic charges =     0.000000

                    Cartesian Multipole Moments
 -----------------------------------------------------------------
    Charge (ESU x 10^10)
                 0.0000
    Dipole Moment (Debye)
         X      -1.0966      Y      -1.6614      Z      -1.3592
       Tot       2.4104
    Quadrupole Moments (Debye-Ang)
        XX    -369.8886     XY       1.6639     YY    -446.3922
        XZ      -3.7007     YZ      -5.9324     ZZ    -449.2704

 Total job time:  91.99s(wall), 1086.78s(cpu)
        *  Thank you very much for using Q-Chem.  Have a nice day.  *
