 Q-Chem 4.4, Q-Chem, Inc., Pleasanton, CA (2016)
 Q-Chem 4.4.2 for Intel X86 Linux

User input:
--------------------------------------------------------------
$comment
SP
$end

$rem
MEM_STATIC 5000
MEM_TOTAL 20000
JOBTYPE SP
EXCHANGE B3LYP
BASIS 6-31g(d,p)
$end

$molecule
0 1
C          10.039000     23.502000      2.700000
C          11.091000     23.724000      3.564000
N           8.955000     22.831000      3.147000
C          11.057000     23.390000      4.896000
C           8.930000     22.378000      4.415000
C           9.948000     22.666000      5.394000
C           9.978000     22.303000      6.812000
C          10.727000     22.965000      7.838000
C           9.333000     21.137000      7.309000
N          10.752000     22.554000      9.145000
N           8.676000     20.338000      6.495000
C           9.396000     20.738000      8.662000
C          10.089000     21.508000      9.653000
S           8.180000     19.114000      7.506000
N           8.760000     19.551000      8.919000
C          10.014000     21.319000     11.090000
S           8.906000     20.120000     11.926000
C          10.662000     22.031000     12.044000
C           9.396000     20.692000     13.564000
S          11.972000     23.101000     11.791000
C          10.309000     21.718000     13.379000
C           8.848000     20.167000     14.722000
C          11.840000     23.467000     13.553000
C          10.964000     22.590000     14.228000
N           8.738000     20.971000     15.786000
S           8.233000     18.541000     15.004000
C           8.189000     20.384000     16.849000
C           7.780000     19.065000     16.619000
C           9.939000     23.969000      1.240000
H          11.961000     24.261000      3.197000
H          11.905000     23.622000      5.534000
H           7.997000     21.844000      4.588000
H          11.202000     23.920000      7.618000
H          12.318000     24.353000     13.950000
H          10.691000     22.627000     15.276000
H           8.115000     20.946000     17.771000
H           7.245000     18.449000     17.329000
H          10.843000     24.556000      1.035000
C           8.781000     25.018000      1.138000
H          10.009000     23.147000      0.517000
H           8.796000     25.774000      1.932000
H           7.819000     24.526000      1.329000
C           8.685000     25.678000     -0.309000
H           7.937000     26.481000     -0.293000
C           8.590000     24.872000     -1.551000
H           9.604000     26.231000     -0.543000
H           7.865000     24.056000     -1.439000
H           9.596000     24.458000     -1.688000
C           8.299000     25.547000     -2.867000
H           7.301000     25.987000     -2.752000
C           8.234000     24.507000     -3.988000
H           8.996000     26.305000     -3.246000
H           9.244000     24.275000     -4.348000
H           7.765000     25.078000     -4.799000
H           7.716000     23.541000     -3.937000
C          19.983000     26.145000      7.679000
C          18.650000     26.465000      7.310000
N          20.390000     25.876000      8.901000
C          17.655000     26.405000      8.310000
C          19.439000     25.787000      9.849000
C          18.038000     25.988000      9.611000
C          17.078000     25.833000     10.734000
C          16.146000     26.797000     11.175000
C          17.129000     24.665000     11.544000
N          15.282000     26.576000     12.177000
N          18.039000     23.649000     11.287000
C          16.355000     24.427000     12.615000
C          15.404000     25.467000     12.943000
S          17.680000     22.482000     12.388000
N          16.520000     23.240000     13.207000
C          14.609000     25.382000     14.222000
S          14.882000     24.161000     15.568000
C          13.639000     26.288000     14.630000
C          13.500000     24.726000     16.432000
S          12.937000     27.691000     13.828000
C          12.987000     25.893000     15.830000
C          13.070000     24.092000     17.614000
C          11.907000     27.867000     15.310000
C          12.014000     26.811000     16.241000
N          11.793000     23.949000     17.791000
S          14.036000     23.268000     18.794000
C          11.509000     23.202000     18.936000
C          12.611000     22.759000     19.579000
C          21.063000     26.041000      6.565000
H          18.360000     26.674000      6.285000
H          16.621000     26.654000      8.092000
H          19.906000     25.659000     10.824000
H          16.087000     27.744000     10.641000
H          11.339000     28.783000     15.404000
H          11.481000     26.820000     17.185000
H          10.473000     23.027000     19.194000
H          12.645000     22.336000     20.574000
H          21.331000     26.994000      6.092000
C          20.706000     25.000000      5.455000
H          22.025000     25.832000      7.049000
H          20.024000     25.416000      4.704000
H          20.248000     24.102000      5.887000
C          21.916000     24.403000      4.648000
H          22.573000     23.834000      5.317000
C          22.768000     25.493000      3.943000
H          21.490000     23.731000      3.894000
H          23.704000     25.114000      3.515000
H          23.041000     26.281000      4.655000
C          22.108000     25.994000      2.627000
H          21.796000     25.094000      2.082000
C          23.009000     26.843000      1.734000
H          21.215000     26.584000      2.869000
H          23.947000     26.312000      1.526000
H          23.215000     27.816000      2.197000
H          22.541000     27.072000      0.769000
$end

--------------------------------------------------------------

             Standard Nuclear Orientation (Angstroms)
    I     Atom           X                Y                Z
 ----------------------------------------------------------------
    1      C       6.9286438907    -3.8139404479    -0.4547654480
    2      C       6.2113815653    -2.6411181677    -0.3429322880
    3      N       6.2937825995    -4.9906736388    -0.2614880865
    4      C       4.8523098394    -2.6034356574    -0.1468708888
    5      C       4.9843443588    -4.9955449856     0.0531637270
    6      C       4.1580726486    -3.8148170934     0.0825866006
    7      C       2.7171857695    -3.7160649288     0.3223490068
    8      C       1.8622275063    -2.6459603891    -0.0969881396
    9      C       2.0180939718    -4.6538728647     1.1312846864
   10      N       0.5245626508    -2.5843034415     0.1939519834
   11      N       2.6566060758    -5.6573642683     1.6951581615
   12      C       0.6404033498    -4.5463756843     1.4214431022
   13      C      -0.1726497963    -3.4949652488     0.8841250605
   14      S       1.4584358765    -6.4056455811     2.5730967985
   15      N       0.1766108954    -5.5169031113     2.2714354978
   16      C      -1.6219720086    -3.4294354549     0.9226733539
   17      S      -2.7075564117    -4.7597788341     1.5675407800
   18      C      -2.4102028095    -2.4452807398     0.4255861370
   19      C      -4.2043716509    -3.8752279219     1.0906321691
   20      S      -1.8949751501    -0.8916950432    -0.0703180295
   21      C      -3.8026306080    -2.6949759522     0.4855871934
   22      C      -5.4679981142    -4.4048495175     1.2897354758
   23      C      -3.6035060358    -0.6378861644    -0.5923594702
   24      C      -4.4670205594    -1.6627192344    -0.1494262404
   25      N      -6.4319205857    -4.0743038267     0.4224379401
   26      S      -6.0077039310    -5.5070414641     2.5528726592
   27      C      -7.6094098760    -4.6400060485     0.6859506861
   28      C      -7.5850541970    -5.5152463807     1.7783348501
   29      C       8.4164135520    -3.9467321433    -0.8133694088
   30      H       6.7288636718    -1.6983881840    -0.4960023612
   31      H       4.3382968203    -1.6475569646    -0.1014997435
   32      H       4.6522338302    -6.0227192016     0.1952542850
   33      H       2.2446426621    -1.9009334675    -0.7932233978
   34      H      -3.8382675642     0.1721314955    -1.2704799723
   35      H      -5.5252869903    -1.7553674889    -0.3631795143
   36      H      -8.4588721810    -4.3812830904     0.0671775262
   37      H      -8.4161490046    -6.1277032022     2.1007616832
   38      H       8.7835658817    -2.9322156806    -1.0127823311
   39      C       8.5251052416    -4.6631894476    -2.2014054486
   40      H       9.0373848655    -4.2728175508     0.0300616404
   41      H       7.8347946875    -4.2717351257    -2.9579977118
   42      H       8.1773391691    -5.6998844017    -2.1102389467
   43      C      10.0239324291    -4.7224879376    -2.7386444559
   44      H      10.0285596578    -5.1296305678    -3.7578512394
   45      C      11.1421562960    -5.2683981794    -1.9306949578
   46      H      10.4171264643    -3.7101309901    -2.8988251712
   47      H      10.8574437720    -6.2109601640    -1.4464009523
   48      H      11.3309473807    -4.5024814180    -1.1691633163
   49      C      12.4933456926    -5.4844932983    -2.5629544885
   50      H      12.3302617889    -6.2369354380    -3.3440200854
   51      C      13.4667535969    -6.0680838687    -1.5361316713
   52      H      13.0316889442    -4.6257057861    -2.9832931048
   53      H      13.8982396791    -5.2656391741    -0.9250455292
   54      H      14.2883781110    -6.4147110991    -2.1752761940
   55      H      13.2453931252    -6.8804725052    -0.8324945171
   56      C       3.3620658953     7.0168983105     0.3398912030
   57      C       3.6275800803     5.8443303955    -0.4151165469
   58      N       2.1650418211     7.4701373859     0.6448530141
   59      C       2.5303243639     5.0426719293    -0.7985205068
   60      C       1.1201366622     6.6916910613     0.3083704311
   61      C       1.2348300916     5.4326580449    -0.3709875606
   62      C       0.0082093486     4.6471782323    -0.6628385791
   63      C      -0.4061369443     4.1860589799    -1.9309423543
   64      C      -0.9282256102     4.3966136596     0.3779457226
   65      N      -1.5114212950     3.4492053682    -2.1173136472
   66      N      -0.7041192657     4.8448619218     1.6722620834
   67      C      -2.0943977108     3.7467317396     0.2349173272
   68      C      -2.3899094879     3.2789507406    -1.1020339533
   69      S      -1.9700516841     4.2560500083     2.5404133621
   70      N      -2.8061627828     3.5644009620     1.3515210931
   71      C      -3.7449731503     2.6926833574    -1.4105530391
   72      S      -5.1940562661     2.7040432724    -0.2804578769
   73      C      -4.1377228158     2.1713468660    -2.6361777627
   74      C      -6.1209985384     1.7453023610    -1.3746419969
   75      S      -3.2478393524     1.9033754637    -4.1330798133
   76      C      -5.4377390165     1.5971577851    -2.5988444355
   77      C      -7.4093888345     1.2898534231    -1.0331793933
   78      C      -4.7958246140     1.2200261289    -4.7849811223
   79      C      -5.8323003443     1.0776918730    -3.8369278433
   80      N      -7.7334156373     0.0826104188    -1.3797020616
   81      S      -8.5747265709     2.0590322420    -0.0061039800
   82      C      -8.9839460038    -0.2827173868    -0.8773083943
   83      C      -9.5587709964     0.6711921068    -0.1132829327
   84      C       4.5606901796     7.8234727033     0.9151733719
   85      H       4.6349147625     5.5058526307    -0.6367370348
   86      H       2.6690200836     4.1429592998    -1.3900960993
   87      H       0.1902966787     7.2154747398     0.5231872444
   88      H       0.2301248616     4.3900910260    -2.7905863728
   89      H      -4.8358597708     1.0301828602    -5.8493460595
   90      H      -6.8181607327     0.7200032448    -4.1115988101
   91      H      -9.3669348763    -1.2668573342    -1.1124106860
   92      H     -10.5889643938     0.6932034159     0.2158478410
   93      H       5.1712390038     8.3407679940     0.1645751335
   94      C       5.4929571060     6.9708634724     1.8355895153
   95      H       4.1568324103     8.7079432310     1.4231022919
   96      H       6.2144948413     6.3809584740     1.2580287918
   97      H       4.9099485574     6.2913677726     2.4689761479
   98      C       6.3419715082     7.7671632075     2.8923956834
   99      H       5.6801887858     8.2685539572     3.6090699081
  100      C       7.2585333452     8.8405930844     2.2453317775
  101      H       6.9605613253     7.0305716481     3.4180909496
  102      H       7.7316225876     9.5132563297     2.9710257400
  103      H       6.6797131060     9.4705652070     1.5593877161
  104      C       8.5504427230     8.2217577212     1.6399641598
  105      H       8.9467504560     7.5396693442     2.4028957601
  106      C       9.6283396210     9.2292968652     1.2487428021
  107      H       8.2910786526     7.6371129511     0.7483174967
  108      H       9.8659645468     9.8811288726     2.0994592230
  109      H       9.3109126227     9.8275062940     0.3856555643
  110      H      10.5604907643     8.7415591997     0.9390716611
 ----------------------------------------------------------------

    9   -5663.5139345787      8.23E-06 Convergence criterion met
 Total energy in the final basis set = -5663.5139345787

                    Orbital Energies (a.u.)
 --------------------------------------------------------------

 Alpha MOs
 -- Occupied --
-88.991 -88.978 -88.929 -88.928 -88.928 -88.916 -88.914 -88.901
-14.386 -14.384 -14.380 -14.375 -14.354 -14.343 -14.342 -14.334
-14.329 -14.323 -10.271 -10.267 -10.262 -10.259 -10.252 -10.251
-10.249 -10.248 -10.247 -10.243 -10.243 -10.241 -10.236 -10.236
-10.235 -10.232 -10.232 -10.231 -10.230 -10.230 -10.229 -10.227
-10.225 -10.225 -10.225 -10.221 -10.220 -10.220 -10.218 -10.217
-10.215 -10.214 -10.208 -10.205 -10.203 -10.200 -10.192 -10.190
-10.186 -10.186 -10.186 -10.183 -10.181 -10.179 -10.178 -10.176
-10.173 -10.173 -10.170 -10.169  -8.046  -8.034  -7.991  -7.988
 -7.987  -7.975  -7.972  -7.961  -6.011  -6.006  -6.004  -5.999
 -5.994  -5.992  -5.955  -5.952  -5.951  -5.951  -5.949  -5.948
 -5.948  -5.945  -5.944  -5.939  -5.937  -5.936  -5.933  -5.931
 -5.929  -5.926  -5.922  -5.918  -1.042  -1.040  -0.980  -0.967
 -0.958  -0.947  -0.945  -0.934  -0.913  -0.910  -0.903  -0.898
 -0.842  -0.833  -0.831  -0.828  -0.817  -0.811  -0.806  -0.802
 -0.801  -0.799  -0.797  -0.794  -0.783  -0.781  -0.767  -0.766
 -0.753  -0.748  -0.742  -0.740  -0.725  -0.712  -0.708  -0.706
 -0.693  -0.689  -0.676  -0.668  -0.657  -0.651  -0.643  -0.639
 -0.638  -0.635  -0.630  -0.622  -0.614  -0.611  -0.598  -0.595
 -0.595  -0.590  -0.589  -0.586  -0.583  -0.575  -0.559  -0.555
 -0.554  -0.552  -0.540  -0.535  -0.525  -0.519  -0.518  -0.509
 -0.506  -0.504  -0.500  -0.491  -0.487  -0.483  -0.480  -0.475
 -0.474  -0.471  -0.470  -0.468  -0.465  -0.461  -0.454  -0.449
 -0.448  -0.442  -0.440  -0.436  -0.433  -0.432  -0.429  -0.427
 -0.427  -0.426  -0.424  -0.423  -0.420  -0.419  -0.414  -0.414
 -0.408  -0.405  -0.403  -0.402  -0.400  -0.395  -0.394  -0.394
 -0.391  -0.390  -0.389  -0.387  -0.385  -0.384  -0.383  -0.383
 -0.379  -0.379  -0.376  -0.375  -0.365  -0.364  -0.359  -0.353
 -0.352  -0.351  -0.350  -0.349  -0.349  -0.342  -0.340  -0.339
 -0.338  -0.334  -0.333  -0.330  -0.327  -0.324  -0.321  -0.317
 -0.313  -0.311  -0.309  -0.305  -0.304  -0.303  -0.299  -0.299
 -0.297  -0.292  -0.289  -0.289  -0.286  -0.283  -0.282  -0.277
 -0.273  -0.269  -0.265  -0.261  -0.260  -0.257  -0.248  -0.247
 -0.243  -0.238  -0.232  -0.222  -0.197  -0.186

          Ground-State Mulliken Net Atomic Charges

     Atom                 Charge (a.u.)
  ----------------------------------------
      1 C                     0.260341
      2 C                    -0.127094
      3 N                    -0.478475
      4 C                    -0.068097
      5 C                     0.089532
      6 C                     0.027875
      7 C                     0.044969
      8 C                     0.051549
      9 C                     0.246094
     10 N                    -0.558859
     11 N                    -0.563251
     12 C                     0.133920
     13 C                     0.341214
     14 S                     0.585494
     15 N                    -0.521861
     16 C                    -0.200938
     17 S                     0.285483
     18 C                    -0.109970
     19 C                    -0.217133
     20 S                     0.278845
     21 C                     0.204594
     22 C                     0.022495
     23 C                    -0.294028
     24 C                    -0.086651
     25 N                    -0.413806
     26 S                     0.274978
     27 C                     0.135147
     28 C                    -0.318733
     29 C                    -0.212468
     30 H                     0.078497
     31 H                     0.101452
     32 H                     0.121408
     33 H                     0.112696
     34 H                     0.126489
     35 H                     0.135587
     36 H                     0.109079
     37 H                     0.129454
     38 H                     0.092599
     39 C                    -0.180012
     40 H                     0.125364
     41 H                     0.099261
     42 H                     0.121782
     43 C                    -0.186683
     44 H                     0.081069
     45 C                    -0.155302
     46 H                     0.081260
     47 H                     0.090735
     48 H                     0.085987
     49 C                    -0.176496
     50 H                     0.094488
     51 C                    -0.323577
     52 H                     0.095383
     53 H                     0.100826
     54 H                     0.096894
     55 H                     0.106576
     56 C                     0.271174
     57 C                    -0.107991
     58 N                    -0.469417
     59 C                    -0.076731
     60 C                     0.105471
     61 C                     0.017601
     62 C                     0.017611
     63 C                     0.063819
     64 C                     0.212546
     65 N                    -0.522385
     66 N                    -0.547786
     67 C                     0.230176
     68 C                     0.307135
     69 S                     0.614004
     70 N                    -0.563447
     71 C                    -0.236863
     72 S                     0.320559
     73 C                    -0.117810
     74 C                    -0.189415
     75 S                     0.283248
     76 C                     0.145063
     77 C                     0.032085
     78 C                    -0.312179
     79 C                    -0.052960
     80 N                    -0.410425
     81 S                     0.273787
     82 C                     0.110810
     83 C                    -0.298351
     84 C                    -0.237563
     85 H                     0.095299
     86 H                     0.101978
     87 H                     0.108334
     88 H                     0.112764
     89 H                     0.128173
     90 H                     0.119113
     91 H                     0.115718
     92 H                     0.138984
     93 H                     0.107761
     94 C                    -0.180658
     95 H                     0.117477
     96 H                     0.095858
     97 H                     0.104018
     98 C                    -0.188296
     99 H                     0.096265
    100 C                    -0.170233
    101 H                     0.090042
    102 H                     0.085714
    103 H                     0.092636
    104 C                    -0.174916
    105 H                     0.092443
    106 C                    -0.319208
    107 H                     0.088502
    108 H                     0.100492
    109 H                     0.103374
    110 H                     0.100613
  ----------------------------------------
  Sum of atomic charges =     0.000000

                    Cartesian Multipole Moments
 -----------------------------------------------------------------
    Charge (ESU x 10^10)
                 0.0000
    Dipole Moment (Debye)
         X      -2.7688      Y       1.1551      Z      -0.4643
       Tot       3.0358
    Quadrupole Moments (Debye-Ang)
        XX    -368.5022     XY      21.3398     YY    -464.2342
        XZ      -7.5853     YZ      -5.9050     ZZ    -437.7337

 Total job time:  83.53s(wall), 986.53s(cpu)
        *  Thank you very much for using Q-Chem.  Have a nice day.  *
