 Q-Chem 4.4, Q-Chem, Inc., Pleasanton, CA (2016)
 Q-Chem 4.4.2 for Intel X86 Linux

User input:
--------------------------------------------------------------
$comment
SP
$end

$rem
MEM_STATIC 5000
MEM_TOTAL 20000
JOBTYPE SP
EXCHANGE B3LYP
BASIS 6-31g(d,p)
$end

$molecule
0 1
C          -3.038000     -9.574000      0.606000
C          -2.540000     -9.281000     -0.673000
N          -3.943000     -8.802000      1.235000
C          -2.972000     -8.093000     -1.304000
C          -4.388000     -7.719000      0.578000
C          -3.915000     -7.279000     -0.675000
C          -4.503000     -6.090000     -1.274000
C          -5.886000     -5.839000     -1.307000
C          -3.743000     -5.083000     -1.970000
N          -6.510000     -4.800000     -1.967000
N          -2.399000     -5.118000     -2.185000
C          -4.278000     -3.960000     -2.512000
C          -5.717000     -3.839000     -2.513000
S          -1.927000     -3.711000     -2.870000
N          -3.343000     -3.128000     -3.096000
C          -6.380000     -2.746000     -3.292000
S          -5.512000     -1.432000     -4.050000
C          -7.723000     -2.508000     -3.400000
C          -6.988000     -0.607000     -4.626000
S          -9.110000     -3.354000     -2.689000
C          -8.051000     -1.367000     -4.137000
C          -7.170000      0.649000     -5.306000
C         -10.161000     -2.107000     -3.409000
C          -9.513000     -1.140000     -4.087000
N          -8.387000      0.859000     -5.937000
S          -6.149000      2.091000     -5.169000
C          -8.543000      2.164000     -6.305000
C          -7.459000      2.953000     -6.005000
C          -2.573000    -10.759000      1.467000
H          -1.806000     -9.907000     -1.173000
H          -2.642000     -7.848000     -2.310000
H          -5.214000     -7.170000      1.028000
H          -6.522000     -6.522000     -0.746000
H         -11.231000     -2.201000     -3.281000
H         -10.086000     -0.371000     -4.593000
H          -9.441000      2.530000     -6.785000
H          -7.316000      4.011000     -6.180000
H          -1.540000    -10.925000      1.137000
C          -3.392000    -12.050000      1.311000
H          -2.538000    -10.475000      2.526000
H          -2.700000    -12.850000      1.600000
H          -3.532000    -12.253000      0.242000
C          -4.708000    -12.076000      2.242000
H          -4.394000    -11.922000      3.282000
C          -5.525000    -13.467000      2.299000
H          -5.217000    -11.138000      1.988000
H          -4.959000    -14.265000      2.795000
H          -5.755000    -13.800000      1.279000
C          -6.762000    -13.255000      3.135000
H          -7.141000    -14.262000      3.348000
C          -7.832000    -12.280000      2.599000
H          -6.567000    -12.957000      4.173000
H          -8.591000    -12.140000      3.380000
H          -8.346000    -12.760000      1.758000
H          -7.518000    -11.307000      2.201000
C         -12.108000     -4.830000     -4.574000
C         -11.586000     -5.581000     -3.523000
N         -13.111000     -3.898000     -4.320000
C         -12.061000     -5.467000     -2.236000
C         -13.601000     -3.822000     -3.055000
C         -13.158000     -4.595000     -1.941000
C         -13.449000     -4.147000     -0.530000
C         -12.394000     -4.228000      0.420000
C         -14.658000     -3.610000      0.011000
N         -12.530000     -3.994000      1.743000
N         -15.753000     -3.379000     -0.736000
C         -14.795000     -3.389000      1.361000
C         -13.700000     -3.498000      2.214000
S         -16.917000     -3.033000      0.314000
N         -16.053000     -2.989000      1.695000
C         -13.877000     -3.304000      3.711000
S         -14.943000     -2.228000      4.549000
C         -13.335000     -4.129000      4.582000
C         -14.723000     -3.038000      6.085000
S         -12.199000     -5.412000      4.356000
C         -13.809000     -4.007000      5.921000
C         -15.139000     -2.437000      7.308000
C         -12.234000     -5.683000      6.087000
C         -13.122000     -4.887000      6.766000
N         -14.933000     -3.098000      8.440000
S         -15.869000     -0.783000      7.394000
C         -15.291000     -2.216000      9.469000
C         -15.926000     -1.052000      9.133000
C         -11.431000     -4.689000     -6.000000
H         -10.718000     -6.212000     -3.688000
H         -11.573000     -5.989000     -1.418000
H         -14.277000     -2.988000     -2.872000
H         -11.450000     -4.628000      0.052000
H         -11.504000     -6.353000      6.522000
H         -13.187000     -4.902000      7.848000
H         -15.089000     -2.492000     10.496000
H         -16.205000     -0.265000      9.821000
H         -12.174000     -4.908000     -6.776000
C         -10.221000     -5.555000     -6.249000
H         -11.046000     -3.669000     -6.117000
H         -10.294000     -6.647000     -6.182000
H          -9.502000     -5.374000     -5.440000
C          -9.444000     -5.110000     -7.458000
H          -9.194000     -4.049000     -7.334000
C         -10.081000     -5.314000     -8.824000
H          -8.531000     -5.707000     -7.341000
H          -9.471000     -4.861000     -9.615000
H         -11.084000     -4.877000     -8.903000
C         -10.238000     -6.812000     -9.048000
H         -10.799000     -7.256000     -8.217000
C          -8.937000     -7.598000     -9.357000
H         -10.895000     -6.870000     -9.925000
H          -8.713000     -7.210000    -10.359000
H          -9.003000     -8.688000     -9.462000
H          -8.119000     -7.227000     -8.727000
$end

--------------------------------------------------------------

             Standard Nuclear Orientation (Angstroms)
    I     Atom           X                Y                Z
 ----------------------------------------------------------------
    1      C      -4.4825062353    -7.0312269360    -0.6530638302
    2      C      -5.6800152028    -6.3058430110    -0.5556757705
    3      N      -3.3022212352    -6.4605708800    -0.9562617595
    4      C      -5.6500775499    -4.9223233852    -0.8404672413
    5      C      -3.2948168401    -5.1320066444    -1.1497178189
    6      C      -4.4371681698    -4.3059498443    -1.1509837363
    7      C      -4.2739016439    -2.8752699038    -1.3625610259
    8      C      -3.2781381438    -2.1054258348    -0.7360036371
    9      C      -5.1619332009    -2.0772826225    -2.1692091851
   10      N      -3.1510860681    -0.7325787467    -0.7963827959
   11      N      -6.2722734793    -2.5366967290    -2.8094194201
   12      C      -5.0058681212    -0.7478450974    -2.3913747939
   13      C      -3.9653352670    -0.0657756157    -1.6582747997
   14      S      -6.8946701583    -1.3400761392    -3.7326634496
   15      N      -5.9645236873    -0.2104648368    -3.2278596778
   16      C      -3.8853697024     1.4289518489    -1.6795894695
   17      S      -4.8525001037     2.4365886561    -2.7302610889
   18      C      -2.9715092892     2.2153064476    -1.0327026246
   19      C      -4.0888261839     3.9614678036    -2.1987324165
   20      S      -1.6051494840     1.7831465618     0.0119526850
   21      C      -3.0949295263     3.5820822131    -1.2959998936
   22      C      -4.2617849479     5.3178435544    -2.6497203194
   23      C      -1.1877360201     3.5150291651     0.0779727474
   24      C      -1.9888538362     4.3205956479    -0.6458710801
   25      N      -3.8018226301     6.3273312617    -1.8174227555
   26      S      -4.7042119445     5.8484111755    -4.2816916281
   27      C      -3.7718132786     7.5318314717    -2.4585652380
   28      C      -4.2330963640     7.4778494782    -3.7515775580
   29      C      -4.3770531695    -8.5560876915    -0.4935322429
   30      H      -6.6302726905    -6.7743102588    -0.3144680906
   31      H      -6.5460980620    -4.3158682595    -0.7388777608
   32      H      -2.3236473575    -4.6522755108    -1.2631412535
   33      H      -2.5286662418    -2.6470263975    -0.1609673787
   34      H      -0.3496153917     3.8180958293     0.6910179409
   35      H      -1.8276918406     5.3925387537    -0.6195882124
   36      H      -3.4144458896     8.4356037634    -1.9829139015
   37      H      -4.3157504278     8.2733052800    -4.4801764691
   38      H      -5.3623845538    -8.9155578619    -0.8151659784
   39      C      -4.0716802591    -9.0515927310     0.9287898519
   40      H      -3.6346406098    -8.9654992982    -1.1896412340
   41      H      -4.4712685099   -10.0723918791     0.9549304181
   42      H      -4.7354707466    -8.5352518278     1.6333068924
   43      C      -2.4959166429    -9.0515245701     1.2697620229
   44      H      -1.9825557288    -9.6584524573     0.5134478609
   45      C      -2.0583952751    -9.7395345044     2.6629010622
   46      H      -2.1843495558    -8.0275762481     1.0291445174
   47      H      -2.2252943499   -10.8236544458     2.6650577902
   48      H      -2.6414771464    -9.3065049507     3.4855127185
   49      C      -0.5729305667    -9.5484869533     2.8386976304
   50      H      -0.2892076867   -10.2313689222     3.6487794435
   51      C      -0.0511246825    -8.1069254871     3.0188091471
   52      H       0.0428664353   -10.0022071104     2.0518017850
   53      H       1.0463647906    -8.1339305055     2.9980827045
   54      H      -0.3279374458    -7.7625137224     4.0221197821
   55      H      -0.4205247173    -7.3170179364     2.3529873423
   56      C      -0.9633234894     3.0326023217     3.5822082356
   57      C      -0.7101821547     1.6869485789     3.3248729116
   58      N       0.0494961349     3.9697749644     3.3949841814
   59      C       0.5302442737     1.2382849208     2.9311303589
   60      C       1.2804258402     3.5125875339     3.0458528107
   61      C       1.6303606142     2.1483221362     2.8198006518
   62      C       2.8692922963     1.7921685327     2.0358944725
   63      C       2.7616378113     0.7617463143     1.0618685162
   64      C       4.1744610539     2.3703377972     2.1065047812
   65      N       3.8012094929     0.2382983672     0.3771247937
   66      N       4.4703368223     3.4098602445     2.9079070592
   67      C       5.2316342185     1.8227747722     1.4189950476
   68      C       5.0249327973     0.8105668427     0.4856009027
   69      S       6.0689808849     3.5456398698     2.8530157643
   70      N       6.4109521637     2.4401926074     1.7055686002
   71      C       6.2083415674     0.1772737139    -0.2274611533
   72      S       7.6875437322     0.9136923601    -0.7432368152
   73      C       6.3134058388    -1.1279015657    -0.3635088964
   74      C       8.4822900153    -0.6230120894    -1.0091574431
   75      S       5.1787357069    -2.3866226837    -0.0232063271
   76      C       7.5900131262    -1.6006184491    -0.7869396249
   77      C       9.7009393869    -0.7120482145    -1.7419277192
   78      C       6.3607808299    -3.5429134343    -0.6035407370
   79      C       7.5665836453    -2.9903681468    -0.9555837393
   80      N      10.2469343717    -1.9084595996    -1.9187617494
   81      S      10.4989020494     0.7228426048    -2.5037386708
   82      C      11.3277033153    -1.7112277440    -2.7893748010
   83      C      11.7023988555    -0.4274378972    -3.0766096899
   84      C      -2.4097574066     3.6583642321     3.7493517512
   85      H      -1.5257035456     0.9703851693     3.3413574759
   86      H       0.6773019728     0.2018125932     2.6415597330
   87      H       1.9983889792     4.2846089519     2.7728457390
   88      H       1.7826011162     0.2933696282     0.9687533745
   89      H       6.0519169124    -4.5689776721    -0.7546044996
   90      H       8.3565756770    -3.5850065860    -1.3999841404
   91      H      11.8550701758    -2.5716798102    -3.1808022352
   92      H      12.4793263524    -0.1382409636    -3.7718095160
   93      H      -2.4441269445     4.2472304445     4.6736035128
   94      C      -3.5578876762     2.6799170150     3.7715987198
   95      H      -2.6298781333     4.2938586350     2.8833218847
   96      H      -3.6040280314     1.8921930984     4.5329423339
   97      H      -3.4886992522     2.0552006078     2.8720736382
   98      C      -4.8858432941     3.3589946585     3.5745646342
   99      H      -4.8382770666     3.9435569284     2.6474069309
  100      C      -5.4003519811     4.2478046508     4.6964552744
  101      H      -5.5345903933     2.4889185367     3.4140599819
  102      H      -6.3202030867     4.7656902638     4.3986996106
  103      H      -4.6824418839     5.0193480376     5.0006671981
  104      C      -5.6408481351     3.3690569934     5.9166163927
  105      H      -4.7271519406     2.8147573341     6.1622363268
  106      C      -6.8845883825     2.4439988660     5.8595580196
  107      H      -5.7848153657     4.0943886900     6.7273625714
  108      H      -7.6834320289     3.1941844195     5.9211572396
  109      H      -7.0539861115     1.7519050936     6.6936992663
  110      H      -6.9841808814     2.0151206884     4.8546650686
 ----------------------------------------------------------------

   10   -5663.5086373630      5.48E-06 Convergence criterion met
 Total energy in the final basis set = -5663.5086373630

                    Orbital Energies (a.u.)
 --------------------------------------------------------------

 Alpha MOs
 -- Occupied --
-88.998 -88.992 -88.932 -88.923 -88.921 -88.916 -88.904 -88.902
-14.385 -14.383 -14.381 -14.372 -14.359 -14.355 -14.345 -14.343
-14.335 -14.331 -10.277 -10.272 -10.269 -10.267 -10.256 -10.256
-10.254 -10.252 -10.245 -10.244 -10.241 -10.241 -10.238 -10.234
-10.232 -10.232 -10.231 -10.231 -10.230 -10.229 -10.228 -10.227
-10.227 -10.225 -10.224 -10.223 -10.219 -10.218 -10.215 -10.214
-10.213 -10.213 -10.212 -10.204 -10.201 -10.199 -10.192 -10.189
-10.189 -10.183 -10.182 -10.181 -10.179 -10.175 -10.173 -10.173
-10.173 -10.172 -10.170 -10.169  -8.054  -8.048  -7.992  -7.982
 -7.982  -7.977  -7.963  -7.963  -6.019  -6.013  -6.013  -6.012
 -6.007  -6.006  -5.956  -5.953  -5.949  -5.946  -5.946  -5.943
 -5.942  -5.941  -5.938  -5.938  -5.937  -5.933  -5.928  -5.928
 -5.924  -5.924  -5.920  -5.919  -1.050  -1.046  -0.961  -0.958
 -0.954  -0.952  -0.942  -0.928  -0.920  -0.909  -0.905  -0.896
 -0.848  -0.839  -0.836  -0.832  -0.816  -0.816  -0.813  -0.802
 -0.798  -0.797  -0.796  -0.795  -0.784  -0.783  -0.770  -0.767
 -0.747  -0.744  -0.740  -0.732  -0.722  -0.721  -0.706  -0.705
 -0.693  -0.692  -0.677  -0.676  -0.660  -0.655  -0.651  -0.648
 -0.638  -0.636  -0.628  -0.623  -0.616  -0.615  -0.600  -0.597
 -0.589  -0.586  -0.583  -0.581  -0.578  -0.572  -0.563  -0.548
 -0.548  -0.542  -0.541  -0.537  -0.524  -0.524  -0.511  -0.509
 -0.509  -0.507  -0.499  -0.499  -0.490  -0.481  -0.480  -0.479
 -0.476  -0.473  -0.470  -0.468  -0.464  -0.453  -0.452  -0.448
 -0.443  -0.437  -0.436  -0.435  -0.433  -0.431  -0.430  -0.428
 -0.425  -0.424  -0.423  -0.422  -0.420  -0.419  -0.413  -0.411
 -0.410  -0.409  -0.404  -0.404  -0.402  -0.399  -0.398  -0.397
 -0.396  -0.393  -0.392  -0.390  -0.387  -0.385  -0.384  -0.383
 -0.382  -0.377  -0.373  -0.369  -0.367  -0.364  -0.354  -0.352
 -0.352  -0.349  -0.347  -0.345  -0.345  -0.343  -0.338  -0.338
 -0.334  -0.333  -0.333  -0.330  -0.328  -0.326  -0.322  -0.314
 -0.313  -0.311  -0.309  -0.304  -0.304  -0.301  -0.301  -0.295
 -0.294  -0.292  -0.290  -0.289  -0.286  -0.285  -0.282  -0.282
 -0.278  -0.278  -0.272  -0.271  -0.254  -0.253  -0.249  -0.249
 -0.244  -0.240  -0.236  -0.230  -0.197  -0.195

          Ground-State Mulliken Net Atomic Charges

     Atom                 Charge (a.u.)
  ----------------------------------------
      1 C                     0.268794
      2 C                    -0.125416
      3 N                    -0.474912
      4 C                    -0.049954
      5 C                     0.068535
      6 C                     0.050184
      7 C                     0.038306
      8 C                     0.055403
      9 C                     0.229273
     10 N                    -0.528181
     11 N                    -0.579866
     12 C                     0.190660
     13 C                     0.312302
     14 S                     0.623487
     15 N                    -0.538358
     16 C                    -0.239286
     17 S                     0.324772
     18 C                    -0.110044
     19 C                    -0.226136
     20 S                     0.266967
     21 C                     0.129602
     22 C                     0.023471
     23 C                    -0.305495
     24 C                    -0.044533
     25 N                    -0.431004
     26 S                     0.277985
     27 C                     0.142033
     28 C                    -0.310148
     29 C                    -0.224700
     30 H                     0.095421
     31 H                     0.109708
     32 H                     0.099018
     33 H                     0.112064
     34 H                     0.138440
     35 H                     0.124524
     36 H                     0.122313
     37 H                     0.130135
     38 H                     0.088678
     39 C                    -0.184858
     40 H                     0.118351
     41 H                     0.090749
     42 H                     0.088833
     43 C                    -0.179344
     44 H                     0.093377
     45 C                    -0.176366
     46 H                     0.121605
     47 H                     0.092629
     48 H                     0.093026
     49 C                    -0.176030
     50 H                     0.084860
     51 C                    -0.316978
     52 H                     0.092457
     53 H                     0.099370
     54 H                     0.099152
     55 H                     0.112027
     56 C                     0.232631
     57 C                    -0.097605
     58 N                    -0.472399
     59 C                    -0.103297
     60 C                     0.067421
     61 C                     0.047222
     62 C                     0.044547
     63 C                     0.054487
     64 C                     0.202101
     65 N                    -0.507052
     66 N                    -0.539486
     67 C                     0.240384
     68 C                     0.252037
     69 S                     0.616381
     70 N                    -0.552694
     71 C                    -0.220695
     72 S                     0.302392
     73 C                    -0.089934
     74 C                    -0.249024
     75 S                     0.272960
     76 C                     0.170532
     77 C                     0.071886
     78 C                    -0.308412
     79 C                    -0.053924
     80 N                    -0.437885
     81 S                     0.256416
     82 C                     0.115485
     83 C                    -0.296805
     84 C                    -0.201172
     85 H                     0.101939
     86 H                     0.109029
     87 H                     0.119585
     88 H                     0.113700
     89 H                     0.127600
     90 H                     0.125081
     91 H                     0.107715
     92 H                     0.131148
     93 H                     0.119469
     94 C                    -0.204781
     95 H                     0.134718
     96 H                     0.095724
     97 H                     0.111167
     98 C                    -0.181209
     99 H                     0.093934
    100 C                    -0.173584
    101 H                     0.089007
    102 H                     0.089543
    103 H                     0.095064
    104 C                    -0.180496
    105 H                     0.093680
    106 C                    -0.319689
    107 H                     0.084662
    108 H                     0.103003
    109 H                     0.105353
    110 H                     0.105238
  ----------------------------------------
  Sum of atomic charges =     0.000000

                    Cartesian Multipole Moments
 -----------------------------------------------------------------
    Charge (ESU x 10^10)
                 0.0000
    Dipole Moment (Debye)
         X      -2.3643      Y       0.5299      Z      -1.7130
       Tot       2.9673
    Quadrupole Moments (Debye-Ang)
        XX    -407.7720     XY       8.9628     YY    -417.9561
        XZ      -2.8261     YZ     -16.6145     ZZ    -433.9891

 Total job time:  92.15s(wall), 1083.27s(cpu)
        *  Thank you very much for using Q-Chem.  Have a nice day.  *
