 Q-Chem 4.4, Q-Chem, Inc., Pleasanton, CA (2016)
 Q-Chem 4.4.2 for Intel X86 Linux

User input:
--------------------------------------------------------------
$comment
SP
$end

$rem
MEM_STATIC 5000
MEM_TOTAL 20000
JOBTYPE SP
EXCHANGE B3LYP
BASIS 6-31g(d,p)
$end

$molecule
0 1
C           1.371000    -10.386000     -4.700000
C           0.095000     -9.967000     -4.230000
N           1.620000    -10.859000     -5.960000
C          -0.967000    -10.119000     -5.159000
C           0.612000    -10.985000     -6.812000
C          -0.716000    -10.706000     -6.440000
C          -1.775000    -10.778000     -7.457000
C          -1.962000    -12.018000     -8.099000
C          -2.649000     -9.701000     -7.821000
N          -2.930000    -12.239000     -8.994000
N          -2.604000     -8.408000     -7.407000
C          -3.665000     -9.929000     -8.690000
C          -3.777000    -11.210000     -9.293000
S          -3.899000     -7.620000     -8.038000
N          -4.497000     -8.869000     -8.904000
C          -4.894000    -11.515000    -10.216000
S          -5.745000    -10.399000    -11.284000
C          -5.459000    -12.792000    -10.318000
C          -6.799000    -11.716000    -11.892000
S          -5.060000    -14.226000     -9.487000
C          -6.424000    -12.882000    -11.260000
C          -7.926000    -11.467000    -12.708000
C          -6.359000    -15.033000    -10.436000
C          -7.050000    -14.183000    -11.252000
N          -8.345000    -12.502000    -13.483000
S          -8.486000     -9.936000    -13.165000
C          -9.397000    -12.045000    -14.340000
C          -9.577000    -10.728000    -14.339000
C           2.629000    -10.190000     -3.814000
H          -0.050000     -9.534000     -3.245000
H          -1.972000     -9.737000     -5.003000
H           0.913000    -11.239000     -7.827000
H          -1.477000    -12.971000     -7.892000
H          -6.436000    -16.109000    -10.346000
H          -7.891000    -14.477000    -11.869000
H          -9.885000    -12.768000    -14.980000
H         -10.270000    -10.136000    -14.922000
H           3.470000    -10.221000     -4.517000
C           2.663000    -11.309000     -2.704000
H           2.582000     -9.149000     -3.471000
H           2.729000    -12.322000     -3.121000
H           1.681000    -11.282000     -2.215000
C           3.807000    -11.075000     -1.730000
H           4.715000    -11.369000     -2.272000
C           3.575000    -11.958000     -0.502000
H           3.852000    -10.041000     -1.367000
H           3.641000    -12.960000     -0.944000
H           2.567000    -11.761000     -0.118000
C           4.635000    -11.912000      0.608000
H           4.639000    -10.884000      0.992000
C           6.037000    -12.254000      0.034000
H           4.372000    -12.603000      1.418000
H           6.394000    -11.731000     -0.862000
H           6.049000    -13.335000     -0.152000
H           6.725000    -12.114000      0.876000
C           6.144000    -13.420000    -18.268000
C           6.697000    -12.594000    -17.231000
N           5.206000    -14.367000    -18.025000
C           6.166000    -12.711000    -15.945000
C           4.833000    -14.543000    -16.767000
C           5.167000    -13.669000    -15.672000
C           4.682000    -13.815000    -14.307000
C           5.452000    -13.848000    -13.158000
C           3.277000    -14.076000    -13.978000
N           5.017000    -13.958000    -11.920000
N           2.299000    -13.952000    -14.913000
C           2.760000    -14.156000    -12.669000
C           3.712000    -14.036000    -11.638000
S           0.885000    -14.159000    -14.073000
N           1.443000    -14.088000    -12.599000
C           3.330000    -13.861000    -10.195000
S           1.823000    -14.357000     -9.427000
C           4.145000    -13.552000     -9.152000
C           2.341000    -13.972000     -7.838000
S           5.810000    -13.050000     -9.174000
C           3.577000    -13.560000     -7.900000
C           1.586000    -14.194000     -6.633000
C           5.738000    -12.821000     -7.400000
C           4.526000    -13.185000     -6.902000
N           0.278000    -14.281000     -6.746000
S           2.290000    -14.524000     -5.055000
C          -0.278000    -14.525000     -5.501000
C           0.637000    -14.644000     -4.509000
C           6.604000    -13.304000    -19.725000
H           7.337000    -11.755000    -17.490000
H           6.406000    -11.926000    -15.234000
H           4.235000    -15.434000    -16.587000
H           6.514000    -13.624000    -13.248000
H           6.571000    -12.369000     -6.877000
H           4.315000    -13.063000     -5.846000
H          -1.358000    -14.579000     -5.457000
H           0.390000    -14.870000     -3.480000
H           5.878000    -12.628000    -20.194000
C           6.616000    -14.630000    -20.432000
H           7.558000    -12.770000    -19.808000
H           5.616000    -15.081000    -20.477000
H           7.315000    -15.220000    -19.826000
C           7.081000    -14.403000    -21.919000
H           6.266000    -13.935000    -22.486000
C           7.493000    -15.768000    -22.440000
H           7.927000    -13.714000    -21.808000
H           6.803000    -16.516000    -22.030000
H           8.421000    -16.136000    -21.986000
C           7.815000    -15.851000    -23.915000
H           7.158000    -16.593000    -24.385000
C           9.358000    -15.986000    -24.192000
H           7.638000    -14.862000    -24.355000
H           9.697000    -17.029000    -24.188000
H           9.967000    -15.311000    -23.578000
H           9.516000    -15.770000    -25.255000
$end

--------------------------------------------------------------

             Standard Nuclear Orientation (Angstroms)
    I     Atom           X                Y                Z
 ----------------------------------------------------------------
    1      C       4.9127068323    -3.6306442457    -1.5645674411
    2      C       6.0518683014    -2.7858373465    -1.6796736988
    3      N       3.6409219284    -3.1928713412    -1.3110954660
    4      C       5.8019258849    -1.4066852261    -1.4572839121
    5      C       3.4321413121    -1.8984968216    -1.1139933169
    6      C       4.4881263222    -0.9687806740    -1.0957575474
    7      C       4.1802018475     0.4625021041    -0.9632202812
    8      C       3.4887518623     0.8632220054     0.1969751673
    9      C       4.5550759513     1.4810664019    -1.9003953863
   10      N       3.2039031358     2.1395814933     0.4738463657
   11      N       5.1422166378     1.3274119308    -3.1156838778
   12      C       4.3152725057     2.7827569507    -1.6045964299
   13      C       3.6087199252     3.0961882298    -0.4131022904
   14      S       5.4546920878     2.8182856476    -3.7286966459
   15      N       4.7891777284     3.6832111951    -2.5135606721
   16      C       3.3606980341     4.5050701028    -0.0307673463
   17      S       3.1480036808     5.8907726894    -1.1007535394
   18      C       3.3056797348     4.9243934712     1.3039606783
   19      C       2.9192294543     6.9902315921     0.2970738729
   20      S       3.4909580796     4.0181065693     2.7358943312
   21      C       3.0073838801     6.2348814631     1.4465433070
   22      C       2.8796317158     8.3960161694     0.1549903016
   23      C       3.2121606517     5.5506785467     3.6374186670
   24      C       3.0702941095     6.6432482727     2.8299520867
   25      N       2.2408105498     9.0800740128     1.1405781388
   26      S       3.1081237932     9.2413967684    -1.2939862384
   27      C       2.1712530382    10.4631206036     0.7767844054
   28      C       2.5378258158    10.7240266004    -0.4739923371
   29      C       5.0342721573    -5.1462987874    -1.8711439925
   30      H       7.0333566468    -3.1641757418    -1.9485225156
   31      H       6.5323204368    -0.6203760928    -1.6261825373
   32      H       2.3817395060    -1.6189457171    -1.0519511879
   33      H       3.2114258787     0.2652730311     1.0640566646
   34      H       3.1043624732     5.4751410117     4.7118853410
   35      H       2.9348676268     7.6561702875     3.1905830057
   36      H       1.7446975774    11.1576656283     1.4882130015
   37      H       2.5368463413    11.6697083374    -0.9996225236
   38      H       4.0081154428    -5.4684505980    -2.0848531600
   39      C       5.7055966008    -5.8731055642    -0.6437514715
   40      H       5.5582504542    -5.2058001787    -2.8331446832
   41      H       5.1161827999    -5.7868373945     0.2779660418
   42      H       6.6267494721    -5.3171529047    -0.4279552064
   43      C       5.9671995887    -7.3382694876    -0.9552423290
   44      H       4.9853564576    -7.8261549976    -0.9040974853
   45      C       6.9233260743    -7.8873077319     0.1058307834
   46      H       6.4585191558    -7.4860420230    -1.9246330452
   47      H       6.3154587294    -7.7865083908     1.0136087209
   48      H       7.8060714051    -7.2381680283     0.1471505869
   49      C       7.3024623194    -9.3722215523     0.0104229539
   50      H       7.8312519365    -9.4977014468    -0.9429354975
   51      C       6.0275351582   -10.2591213358     0.0140982199
   52      H       7.9678201284    -9.6517387779     0.8362068885
   53      H       5.2073157589   -10.0254634183    -0.6761467472
   54      H       5.6436385480   -10.2592038118     1.0416800346
   55      H       6.3971574989   -11.2797487694    -0.1395473695
   56      C      -9.4431373279    -0.4888003615    -1.2241787622
   57      C      -8.6999081660    -1.4449157699    -1.9967768069
   58      N      -8.9501327850     0.0820371883    -0.0986597653
   59      C      -7.3820266421    -1.7112451314    -1.6203422705
   60      C      -7.7497420230    -0.3059312510     0.3028517645
   61      C      -6.8347338280    -1.1067387122    -0.4691096421
   62      C      -5.4812452869    -1.4568993547    -0.0626341896
   63      C      -4.9354504707    -2.7276216661    -0.0231015946
   64      C      -4.5325323901    -0.4851018255     0.4904846056
   65      N      -3.7057900913    -3.0473805438     0.3228154642
   66      N      -4.7740356384     0.8504971686     0.4277430092
   67      C      -3.1952064715    -0.7725082569     0.8312586226
   68      C      -2.8101666282    -2.1180362037     0.6732590542
   69      S      -3.3858183888     1.5563325582     0.9956287995
   70      N      -2.4389374645     0.2945286595     1.0142952533
   71      C      -1.3791636519    -2.5695154138     0.7580824273
   72      S      -0.0620665838    -1.7712719508     1.6153756600
   73      C      -0.8739359212    -3.7912529814     0.4423970520
   74      C       1.0658462100    -3.0357459687     1.3500679379
   75      S      -1.6533695471    -5.1267796277    -0.3535707865
   76      C       0.4575089548    -3.9989940370     0.7149593307
   77      C       2.4112339650    -3.0798815370     1.8593005372
   78      C      -0.0978182550    -6.0125726455    -0.3353524693
   79      C       0.8694577397    -5.3025331005     0.3046983056
   80      N       2.9790637054    -1.9338739925     2.1682311023
   81      S       3.2856042672    -4.5540029825     2.2555864675
   82      C       4.2496878959    -2.1677487221     2.6677446430
   83      C       4.5722112531    -3.4813491102     2.7444434341
   84      C     -10.8661162863    -0.0702464827    -1.6086895352
   85      H      -9.0736928297    -1.7674067455    -2.9647058310
   86      H      -6.7549546380    -2.2321653596    -2.3378161846
   87      H      -7.4740233767     0.0200931415     1.3036376175
   88      H      -5.5154711168    -3.5462588788    -0.4468104143
   89      H      -0.0035107120    -6.9543315728    -0.8606316430
   90      H       1.8798122710    -5.6906654905     0.3601777500
   91      H       4.8360615354    -1.2947043595     2.9231100592
   92      H       5.5069477534    -3.8541206264     3.1422311561
   93      H     -10.7380722890     0.8480472593    -2.1955066603
   94      C     -11.7326139386     0.1924611186    -0.4093415729
   95      H     -11.3201482339    -0.7763650568    -2.3139643398
   96      H     -11.3436523481     1.0136309415     0.2069497568
   97      H     -11.7152688796    -0.7705745954     0.1162042029
   98      C     -13.1601185911     0.6325357301    -0.9068230331
   99      H     -13.1100858394     1.6608837830    -1.2872635747
  100      C     -14.0882649388     0.4568432219     0.2814894258
  101      H     -13.3651611343    -0.0758970333    -1.7185117513
  102      H     -13.5445019634     0.7465965401     1.1892718013
  103      H     -14.2700174899    -0.5959070519     0.5292935242
  104      C     -15.4956120019     0.9835867959     0.1138187637
  105      H     -15.6973542218     1.7251059001     0.8964824813
  106      C     -16.5547588622    -0.1651349288    -0.0717865368
  107      H     -15.5640280546     1.4542431344    -0.8745393975
  108      H     -16.9431480676    -0.5383552005     0.8835387763
  109      H     -16.2225408342    -0.9505922863    -0.7618516941
  110      H     -17.4735164620     0.2995855271    -0.4479625204
 ----------------------------------------------------------------

    9   -5663.5072278415      9.84E-06 Convergence criterion met
 Total energy in the final basis set = -5663.5072278415

                    Orbital Energies (a.u.)
 --------------------------------------------------------------

 Alpha MOs
 -- Occupied --
-88.990 -88.982 -88.931 -88.922 -88.920 -88.913 -88.900 -88.899
-14.381 -14.379 -14.375 -14.374 -14.344 -14.342 -14.342 -14.337
-14.329 -14.324 -10.267 -10.263 -10.262 -10.256 -10.252 -10.250
-10.249 -10.246 -10.235 -10.233 -10.233 -10.233 -10.231 -10.230
-10.228 -10.228 -10.227 -10.226 -10.225 -10.225 -10.225 -10.221
-10.220 -10.219 -10.218 -10.218 -10.217 -10.217 -10.214 -10.212
-10.209 -10.206 -10.203 -10.200 -10.199 -10.194 -10.193 -10.190
-10.186 -10.186 -10.183 -10.181 -10.179 -10.176 -10.176 -10.175
-10.173 -10.171 -10.171 -10.166  -8.045  -8.038  -7.991  -7.984
 -7.979  -7.973  -7.960  -7.959  -6.010  -6.005  -6.003  -6.003
 -5.998  -5.996  -5.955  -5.952  -5.948  -5.948  -5.944  -5.943
 -5.941  -5.939  -5.938  -5.935  -5.934  -5.930  -5.925  -5.924
 -5.921  -5.920  -5.917  -5.916  -1.043  -1.032  -0.971  -0.962
 -0.953  -0.949  -0.940  -0.932  -0.924  -0.910  -0.902  -0.890
 -0.844  -0.839  -0.830  -0.827  -0.812  -0.810  -0.808  -0.806
 -0.806  -0.797  -0.795  -0.790  -0.784  -0.782  -0.770  -0.764
 -0.750  -0.747  -0.737  -0.736  -0.721  -0.720  -0.708  -0.708
 -0.693  -0.688  -0.675  -0.674  -0.654  -0.649  -0.639  -0.638
 -0.633  -0.632  -0.624  -0.621  -0.610  -0.607  -0.600  -0.593
 -0.591  -0.583  -0.582  -0.579  -0.576  -0.574  -0.568  -0.563
 -0.547  -0.544  -0.539  -0.534  -0.524  -0.518  -0.514  -0.509
 -0.507  -0.499  -0.498  -0.494  -0.488  -0.486  -0.477  -0.475
 -0.473  -0.471  -0.469  -0.466  -0.464  -0.464  -0.450  -0.447
 -0.445  -0.444  -0.439  -0.435  -0.432  -0.432  -0.431  -0.428
 -0.427  -0.424  -0.420  -0.419  -0.418  -0.416  -0.414  -0.412
 -0.408  -0.406  -0.403  -0.402  -0.400  -0.397  -0.394  -0.393
 -0.392  -0.390  -0.389  -0.388  -0.383  -0.382  -0.380  -0.379
 -0.378  -0.375  -0.371  -0.369  -0.368  -0.364  -0.360  -0.352
 -0.349  -0.348  -0.347  -0.343  -0.343  -0.339  -0.337  -0.336
 -0.333  -0.333  -0.331  -0.330  -0.328  -0.327  -0.325  -0.312
 -0.311  -0.307  -0.306  -0.302  -0.302  -0.301  -0.298  -0.296
 -0.294  -0.292  -0.290  -0.287  -0.284  -0.282  -0.279  -0.271
 -0.271  -0.268  -0.265  -0.261  -0.253  -0.252  -0.251  -0.248
 -0.240  -0.239  -0.228  -0.227  -0.196  -0.189

          Ground-State Mulliken Net Atomic Charges

     Atom                 Charge (a.u.)
  ----------------------------------------
      1 C                     0.240743
      2 C                    -0.111905
      3 N                    -0.476125
      4 C                    -0.070378
      5 C                     0.097165
      6 C                     0.032073
      7 C                    -0.030643
      8 C                     0.051794
      9 C                     0.277036
     10 N                    -0.499606
     11 N                    -0.577596
     12 C                     0.212024
     13 C                     0.261500
     14 S                     0.609315
     15 N                    -0.564271
     16 C                    -0.215969
     17 S                     0.312465
     18 C                    -0.095886
     19 C                    -0.224506
     20 S                     0.267997
     21 C                     0.152536
     22 C                     0.044108
     23 C                    -0.310922
     24 C                    -0.042176
     25 N                    -0.443153
     26 S                     0.265861
     27 C                     0.127720
     28 C                    -0.304973
     29 C                    -0.230092
     30 H                     0.096178
     31 H                     0.104288
     32 H                     0.118494
     33 H                     0.154364
     34 H                     0.124956
     35 H                     0.125565
     36 H                     0.116997
     37 H                     0.132344
     38 H                     0.116509
     39 C                    -0.183579
     40 H                     0.103274
     41 H                     0.109930
     42 H                     0.090966
     43 C                    -0.168437
     44 H                     0.097018
     45 C                    -0.167420
     46 H                     0.090246
     47 H                     0.080274
     48 H                     0.083694
     49 C                    -0.178598
     50 H                     0.090860
     51 C                    -0.322308
     52 H                     0.095049
     53 H                     0.110469
     54 H                     0.102372
     55 H                     0.100994
     56 C                     0.257887
     57 C                    -0.123774
     58 N                    -0.468009
     59 C                    -0.087630
     60 C                     0.107925
     61 C                     0.035298
     62 C                     0.045569
     63 C                     0.056782
     64 C                     0.171215
     65 N                    -0.511494
     66 N                    -0.534411
     67 C                     0.217025
     68 C                     0.302947
     69 S                     0.602747
     70 N                    -0.531780
     71 C                    -0.233112
     72 S                     0.326902
     73 C                    -0.119182
     74 C                    -0.245254
     75 S                     0.260102
     76 C                     0.195117
     77 C                     0.080818
     78 C                    -0.315406
     79 C                    -0.061642
     80 N                    -0.438832
     81 S                     0.282002
     82 C                     0.129690
     83 C                    -0.308739
     84 C                    -0.233979
     85 H                     0.093120
     86 H                     0.104282
     87 H                     0.104471
     88 H                     0.101144
     89 H                     0.126889
     90 H                     0.116548
     91 H                     0.117909
     92 H                     0.128098
     93 H                     0.115396
     94 C                    -0.170368
     95 H                     0.095565
     96 H                     0.125633
     97 H                     0.097698
     98 C                    -0.177798
     99 H                     0.097764
    100 C                    -0.177549
    101 H                     0.087745
    102 H                     0.092103
    103 H                     0.095139
    104 C                    -0.181112
    105 H                     0.095129
    106 C                    -0.331246
    107 H                     0.097487
    108 H                     0.103231
    109 H                     0.108107
    110 H                     0.097200
  ----------------------------------------
  Sum of atomic charges =     0.000000

                    Cartesian Multipole Moments
 -----------------------------------------------------------------
    Charge (ESU x 10^10)
                 0.0000
    Dipole Moment (Debye)
         X       3.4498      Y      -0.9185      Z      -1.5316
       Tot       3.8846
    Quadrupole Moments (Debye-Ang)
        XX    -412.0487     XY      -7.4707     YY    -400.7338
        XZ      11.1677     YZ      -2.3969     ZZ    -430.9190

 Total job time:  87.00s(wall), 1037.10s(cpu)
        *  Thank you very much for using Q-Chem.  Have a nice day.  *
