 Q-Chem 4.4, Q-Chem, Inc., Pleasanton, CA (2016)
 Q-Chem 4.4.2 for Intel X86 Linux

User input:
--------------------------------------------------------------
$comment
SP
$end

$rem
MEM_STATIC 5000
MEM_TOTAL 20000
JOBTYPE SP
EXCHANGE B3LYP
BASIS 6-31g(d,p)
$end

$molecule
0 1
C         -27.641000     -0.932000     -5.170000
C         -26.987000     -2.158000     -5.042000
N         -27.030000      0.219000     -5.416000
C         -25.568000     -2.070000     -5.103000
C         -25.697000      0.244000     -5.644000
C         -24.898000     -0.900000     -5.480000
C         -23.369000     -0.801000     -5.616000
C         -22.797000      0.453000     -5.267000
C         -22.441000     -1.850000     -5.798000
N         -21.464000      0.706000     -5.462000
N         -22.813000     -3.138000     -6.115000
C         -21.014000     -1.553000     -5.888000
C         -20.589000     -0.223000     -5.827000
S         -21.366000     -3.807000     -6.673000
N         -20.330000     -2.654000     -6.288000
C         -19.145000      0.086000     -6.115000
S         -17.876000     -1.086000     -6.348000
C         -18.599000      1.327000     -6.088000
C         -16.605000      0.182000     -6.378000
S         -19.334000      2.896000     -5.853000
C         -17.168000      1.388000     -6.263000
C         -15.245000     -0.063000     -6.457000
C         -17.705000      3.693000     -6.194000
C         -16.756000      2.750000     -6.438000
N         -14.318000      0.864000     -6.539000
S         -14.618000     -1.707000     -6.516000
C         -13.035000      0.315000     -6.463000
C         -13.052000     -1.021000     -6.109000
C         -29.207000     -0.734000     -5.132000
H         -27.473000     -3.045000     -4.647000
H         -25.059000     -3.014000     -4.934000
H         -25.321000      1.203000     -5.997000
H         -23.457000      1.248000     -4.925000
H         -17.620000      4.772000     -6.215000
H         -15.720000      3.069000     -6.458000
H         -12.145000      0.868000     -6.735000
H         -12.202000     -1.685000     -6.020000
H         -29.411000      0.253000     -4.699000
C         -29.906000     -1.751000     -4.185000
H         -29.632000     -0.887000     -6.132000
H         -29.306000     -1.836000     -3.271000
H         -29.926000     -2.738000     -4.665000
C         -31.373000     -1.494000     -3.916000
H         -31.446000     -0.415000     -3.732000
C         -31.866000     -2.335000     -2.632000
H         -32.019000     -1.759000     -4.762000
H         -32.447000     -1.673000     -1.978000
H         -30.984000     -2.424000     -1.985000
C         -32.456000     -3.724000     -2.954000
H         -32.821000     -4.194000     -2.033000
C         -31.376000     -4.777000     -3.433000
H         -33.224000     -3.768000     -3.736000
H         -31.320000     -4.720000     -4.528000
H         -31.667000     -5.801000     -3.168000
H         -30.404000     -4.543000     -2.983000
C         -12.108000     -4.830000     -4.574000
C         -11.586000     -5.581000     -3.523000
N         -13.111000     -3.898000     -4.320000
C         -12.061000     -5.467000     -2.236000
C         -13.601000     -3.822000     -3.055000
C         -13.158000     -4.595000     -1.941000
C         -13.449000     -4.147000     -0.530000
C         -12.394000     -4.228000      0.420000
C         -14.658000     -3.610000      0.011000
N         -12.530000     -3.994000      1.743000
N         -15.753000     -3.379000     -0.736000
C         -14.795000     -3.389000      1.361000
C         -13.700000     -3.498000      2.214000
S         -16.917000     -3.033000      0.314000
N         -16.053000     -2.989000      1.695000
C         -13.877000     -3.304000      3.711000
S         -14.943000     -2.228000      4.549000
C         -13.335000     -4.129000      4.582000
C         -14.723000     -3.038000      6.085000
S         -12.199000     -5.412000      4.356000
C         -13.809000     -4.007000      5.921000
C         -15.139000     -2.437000      7.308000
C         -12.234000     -5.683000      6.087000
C         -13.122000     -4.887000      6.766000
N         -14.933000     -3.098000      8.440000
S         -15.869000     -0.783000      7.394000
C         -15.291000     -2.216000      9.469000
C         -15.926000     -1.052000      9.133000
C         -11.431000     -4.689000     -6.000000
H         -10.718000     -6.212000     -3.688000
H         -11.573000     -5.989000     -1.418000
H         -14.277000     -2.988000     -2.872000
H         -11.450000     -4.628000      0.052000
H         -11.504000     -6.353000      6.522000
H         -13.187000     -4.902000      7.848000
H         -15.089000     -2.492000     10.496000
H         -16.205000     -0.265000      9.821000
H         -12.174000     -4.908000     -6.776000
C         -10.221000     -5.555000     -6.249000
H         -11.046000     -3.669000     -6.117000
H         -10.294000     -6.647000     -6.182000
H          -9.502000     -5.374000     -5.440000
C          -9.444000     -5.110000     -7.458000
H          -9.194000     -4.049000     -7.334000
C         -10.081000     -5.314000     -8.824000
H          -8.531000     -5.707000     -7.341000
H          -9.471000     -4.861000     -9.615000
H         -11.084000     -4.877000     -8.903000
C         -10.238000     -6.812000     -9.048000
H         -10.799000     -7.256000     -8.217000
C          -8.937000     -7.598000     -9.357000
H         -10.895000     -6.870000     -9.925000
H          -8.713000     -7.210000    -10.359000
H          -9.003000     -8.688000     -9.462000
H          -8.119000     -7.227000     -8.727000
$end

--------------------------------------------------------------

             Standard Nuclear Orientation (Angstroms)
    I     Atom           X                Y                Z
 ----------------------------------------------------------------
    1      C     -10.2855568093    -1.9174479436    -0.3346637629
    2      C      -9.4442456930    -1.7232778819    -1.4308706743
    3      N     -10.0495681996    -1.4447078144     0.8816684887
    4      C      -8.2336957432    -1.0418930571    -1.1221482428
    5      C      -8.9774815928    -0.6506632968     1.1044275777
    6      C      -8.0063314074    -0.4258893127     0.1142877020
    7      C      -6.7334758320     0.3712525183     0.4467656493
    8      C      -6.2883664732     0.2916401189     1.7947421048
    9      C      -5.8163871956     0.9618297412    -0.4503831549
   10      N      -5.2404886651     1.0524807029     2.2441825403
   11      N      -6.0651938087     1.1018172992    -1.7980907466
   12      C      -4.6469604984     1.6694401041     0.0637829410
   13      C      -4.4708103112     1.7817660432     1.4456657128
   14      S      -4.9195159937     2.2531983712    -2.2612084111
   15      N      -4.0320061891     2.3482919077    -0.9367411348
   16      C      -3.3752758442     2.6742304810     1.9622627115
   17      S      -2.1587641670     3.4634204211     0.9950437200
   18      C      -3.0921597339     2.8720097393     3.2736187398
   19      C      -1.2654351855     4.0327815113     2.4448562181
   20      S      -3.9039089658     2.3110919994     4.7171025373
   21      C      -1.9164482214     3.6613428277     3.5506795907
   22      C      -0.0583470877     4.7094725564     2.4149638478
   23      C      -2.7511653632     3.3252184149     5.7407532590
   24      C      -1.8607279137     3.9789961144     4.9476064451
   25      N       0.5664552778     5.1786007183     3.4708628826
   26      S       0.7480270098     5.0659809200     0.8911500135
   27      C       1.8251677631     5.6870649112     3.1386384948
   28      C       2.1921394128     5.3833525365     1.8411056044
   29      C     -11.6844472224    -2.6478157455    -0.3863598575
   30      H      -9.5493544642    -2.2784659532    -2.3580752642
   31      H      -7.5502060165    -0.9531373794    -1.9610416944
   32      H      -8.9632376042    -0.1829624301     2.0876462757
   33      H      -6.8556649969    -0.3197330439     2.4940161862
   34      H      -2.8684426927     3.3645509922     6.8162094302
   35      H      -1.0093765530     4.4504299883     5.4255269021
   36      H       2.3974267019     6.3160967019     3.8085128959
   37      H       3.0939527350     5.6903275544     1.3274753188
   38      H     -11.8419916917    -3.1419836061     0.5802071944
   39      C     -11.7133165564    -3.7901248855    -1.4418196579
   40      H     -12.4722203309    -1.9369411887    -0.6658323855
   41      H     -10.7684537253    -4.3426588634    -1.3742812710
   42      H     -11.7740657090    -3.3529673896    -2.4468927220
   43      C     -12.9335172623    -4.6847148683    -1.4055153897
   44      H     -13.1002974883    -4.8991133902    -0.3426684440
   45      C     -12.6626231168    -6.0407769703    -2.2341877842
   46      H     -13.8297589198    -4.2079553268    -1.8210971881
   47      H     -13.0007715919    -6.8948004643    -1.6343374024
   48      H     -11.5853491316    -6.2290433945    -2.1420437968
   49      C     -13.0888671088    -5.9911973079    -3.7164033273
   50      H     -12.9272039674    -6.9710360479    -4.1813195265
   51      C     -12.1672501966    -5.0669973664    -4.6114601609
   52      H     -14.1021935036    -5.6293248787    -3.9297152177
   53      H     -12.6078555228    -4.0613763664    -4.6132907159
   54      H     -12.1340583407    -5.4171458450    -5.6505830331
   55      H     -11.1517766096    -5.0439284956    -4.1987602441
   56      C       4.3448531322     4.4853990552    -1.6682170066
   57      C       5.3939828784     3.7860770231    -2.2609745212
   58      N       3.4130148873     3.7989282643    -0.8938886920
   59      C       5.5200410685     2.4201411149    -2.1455690301
   60      C       3.5226324677     2.4466802240    -0.8196578124
   61      C       4.5334157462     1.6562559774    -1.4428116251
   62      C       4.8195761562     0.2552907734    -0.9614440764
   63      C       6.1810815569    -0.1281867942    -0.8153824489
   64      C       3.8988679606    -0.7734087718    -0.5915729311
   65      N       6.6017325884    -1.3782516392    -0.5256039251
   66      N       2.5656642759    -0.5920187595    -0.5837884247
   67      C       4.3326865652    -2.0479172369    -0.3131136148
   68      C       5.6916902016    -2.3262786598    -0.1942059429
   69      S       1.9403624111    -2.0541210319    -0.3638645226
   70      N       3.3011754007    -2.9105431995    -0.0986814197
   71      C       6.1592764492    -3.7498588977     0.0602668599
   72      S       5.4035973999    -4.9900935843     1.0021496003
   73      C       7.1596494029    -4.2777727061    -0.6132247617
   74      C       6.4089876155    -6.2569872874     0.3328463362
   75      S       8.2806954427    -3.5519673169    -1.7105502894
   76      C       7.3080439811    -5.6900142611    -0.4865999641
   77      C       6.4764065503    -7.5471543967     0.9336037891
   78      C       9.0551421802    -5.1151129250    -1.8773887102
   79      C       8.4343029846    -6.1295635931    -1.1928088863
   80      N       7.2669348065    -8.4603967980     0.3842092199
   81      S       5.5892845160    -7.9736194415     2.4525356710
   82      C       7.2527562074    -9.5554160878     1.2592296324
   83      C       6.3474867570    -9.5537071341     2.2846570075
   84      C       4.2928134513     6.0613228118    -1.5087109413
   85      H       6.1946573455     4.3282231827    -2.7547436366
   86      H       6.3980995098     1.9110360488    -2.5323214125
   87      H       2.8648471633     1.9701599995    -0.0942145210
   88      H       6.9205786348     0.6259368560    -1.0818436882
   89      H      10.0038585825    -5.1713695035    -2.3948801454
   90      H       8.8541369426    -7.1281792616    -1.1518187143
   91      H       7.9283696221   -10.3823979050     1.0821517172
   92      H       6.2695536117   -10.3065230357     3.0577990664
   93      H       3.3338737307     6.4316580200    -1.8901194439
   94      C       5.3983203005     6.8338878676    -2.1847692532
   95      H       4.4081779106     6.3204503348    -0.4495329731
   96      H       5.5485723471     6.7588311222    -3.2683156562
   97      H       6.3570044005     6.4239458201    -1.8426065521
   98      C       5.4781416973     8.2546969577    -1.6965427955
   99      H       5.5731362010     8.2373470468    -0.6037152588
  100      C       4.3513795615     9.2006859004    -2.0823575303
  101      H       6.4364663012     8.5633908167    -2.1324201349
  102      H       4.4658368797    10.1726850737    -1.5872745783
  103      H       3.3574489568     8.8206244419    -1.8161353660
  104      C       4.3687345483     9.3557899252    -3.5971085151
  105      H       4.3135388896     8.3694742052    -4.0730840814
  106      C       5.5146527028    10.2211588580    -4.1835266195
  107      H       3.4140644871     9.8521899135    -3.8123621465
  108      H       5.2069398834    11.2125095932    -3.8267906659
  109      H       5.5952900696    10.3033778749    -5.2744980437
  110      H       6.4499413067    10.0125077010    -3.6493310354
 ----------------------------------------------------------------

   11   -5663.4851608379      4.52E-06 Convergence criterion met
 Total energy in the final basis set = -5663.4851608379

                    Orbital Energies (a.u.)
 --------------------------------------------------------------

 Alpha MOs
 -- Occupied --
-88.994 -88.988 -88.923 -88.919 -88.918 -88.908 -88.905 -88.901
-14.390 -14.387 -14.385 -14.382 -14.358 -14.351 -14.345 -14.342
-14.333 -14.324 -10.270 -10.270 -10.266 -10.260 -10.258 -10.258
-10.255 -10.254 -10.246 -10.245 -10.244 -10.237 -10.236 -10.235
-10.234 -10.231 -10.230 -10.228 -10.228 -10.228 -10.227 -10.226
-10.226 -10.225 -10.225 -10.224 -10.221 -10.221 -10.220 -10.219
-10.218 -10.208 -10.207 -10.205 -10.203 -10.203 -10.199 -10.193
-10.191 -10.187 -10.184 -10.183 -10.183 -10.183 -10.182 -10.180
-10.179 -10.178 -10.174 -10.174  -8.050  -8.044  -7.983  -7.979
 -7.978  -7.969  -7.966  -7.960  -6.014  -6.009  -6.009  -6.008
 -6.003  -6.001  -5.947  -5.944  -5.943  -5.942  -5.940  -5.939
 -5.938  -5.935  -5.934  -5.933  -5.930  -5.930  -5.926  -5.926
 -5.925  -5.922  -5.921  -5.916  -1.048  -1.029  -0.963  -0.960
 -0.959  -0.955  -0.939  -0.933  -0.922  -0.909  -0.907  -0.899
 -0.850  -0.836  -0.835  -0.827  -0.824  -0.816  -0.807  -0.805
 -0.801  -0.799  -0.794  -0.791  -0.788  -0.780  -0.773  -0.766
 -0.752  -0.745  -0.743  -0.736  -0.723  -0.720  -0.713  -0.702
 -0.698  -0.690  -0.680  -0.673  -0.668  -0.652  -0.651  -0.649
 -0.642  -0.632  -0.628  -0.626  -0.622  -0.607  -0.606  -0.596
 -0.594  -0.586  -0.583  -0.583  -0.578  -0.575  -0.567  -0.551
 -0.550  -0.543  -0.542  -0.535  -0.526  -0.519  -0.515  -0.511
 -0.502  -0.501  -0.498  -0.493  -0.488  -0.484  -0.483  -0.482
 -0.474  -0.474  -0.472  -0.468  -0.466  -0.463  -0.460  -0.452
 -0.447  -0.446  -0.443  -0.439  -0.437  -0.435  -0.434  -0.433
 -0.431  -0.429  -0.428  -0.423  -0.421  -0.419  -0.417  -0.414
 -0.412  -0.411  -0.403  -0.402  -0.401  -0.400  -0.399  -0.398
 -0.395  -0.393  -0.391  -0.390  -0.387  -0.384  -0.384  -0.383
 -0.379  -0.375  -0.371  -0.371  -0.369  -0.364  -0.361  -0.355
 -0.350  -0.350  -0.349  -0.348  -0.345  -0.345  -0.340  -0.340
 -0.339  -0.337  -0.335  -0.334  -0.332  -0.327  -0.323  -0.323
 -0.320  -0.314  -0.310  -0.305  -0.305  -0.303  -0.303  -0.302
 -0.296  -0.294  -0.291  -0.290  -0.285  -0.283  -0.282  -0.277
 -0.275  -0.272  -0.269  -0.265  -0.256  -0.250  -0.246  -0.244
 -0.243  -0.240  -0.234  -0.232  -0.197  -0.193

          Ground-State Mulliken Net Atomic Charges

     Atom                 Charge (a.u.)
  ----------------------------------------
      1 C                     0.252712
      2 C                    -0.111534
      3 N                    -0.477269
      4 C                    -0.096875
      5 C                     0.049740
      6 C                     0.059503
      7 C                     0.039796
      8 C                     0.062172
      9 C                     0.183340
     10 N                    -0.542440
     11 N                    -0.562824
     12 C                     0.199831
     13 C                     0.358731
     14 S                     0.606762
     15 N                    -0.544898
     16 C                    -0.214808
     17 S                     0.329483
     18 C                    -0.129080
     19 C                    -0.243154
     20 S                     0.251931
     21 C                     0.172657
     22 C                     0.076976
     23 C                    -0.297346
     24 C                    -0.050698
     25 N                    -0.459640
     26 S                     0.258279
     27 C                     0.104768
     28 C                    -0.277937
     29 C                    -0.211824
     30 H                     0.104204
     31 H                     0.118057
     32 H                     0.110224
     33 H                     0.125131
     34 H                     0.132779
     35 H                     0.128341
     36 H                     0.115665
     37 H                     0.121369
     38 H                     0.116277
     39 C                    -0.187301
     40 H                     0.115881
     41 H                     0.093580
     42 H                     0.096024
     43 C                    -0.183819
     44 H                     0.087973
     45 C                    -0.184469
     46 H                     0.093380
     47 H                     0.091583
     48 H                     0.090921
     49 C                    -0.176533
     50 H                     0.097056
     51 C                    -0.323876
     52 H                     0.098783
     53 H                     0.103218
     54 H                     0.100647
     55 H                     0.104595
     56 C                     0.241293
     57 C                    -0.111075
     58 N                    -0.478782
     59 C                    -0.093473
     60 C                     0.089312
     61 C                     0.042397
     62 C                     0.044482
     63 C                     0.057879
     64 C                     0.203513
     65 N                    -0.508394
     66 N                    -0.538061
     67 C                     0.240445
     68 C                     0.252789
     69 S                     0.621096
     70 N                    -0.551672
     71 C                    -0.221377
     72 S                     0.304743
     73 C                    -0.089709
     74 C                    -0.248774
     75 S                     0.271037
     76 C                     0.170473
     77 C                     0.071525
     78 C                    -0.308322
     79 C                    -0.053605
     80 N                    -0.437829
     81 S                     0.257872
     82 C                     0.115057
     83 C                    -0.295715
     84 C                    -0.207224
     85 H                     0.093281
     86 H                     0.107176
     87 H                     0.128843
     88 H                     0.104357
     89 H                     0.127016
     90 H                     0.125497
     91 H                     0.108103
     92 H                     0.131829
     93 H                     0.126844
     94 C                    -0.196611
     95 H                     0.120919
     96 H                     0.103684
     97 H                     0.094032
     98 C                    -0.178659
     99 H                     0.083813
    100 C                    -0.174411
    101 H                     0.092051
    102 H                     0.092158
    103 H                     0.096492
    104 C                    -0.182372
    105 H                     0.093682
    106 C                    -0.319822
    107 H                     0.088442
    108 H                     0.104988
    109 H                     0.108266
    110 H                     0.104454
  ----------------------------------------
  Sum of atomic charges =     0.000000

                    Cartesian Multipole Moments
 -----------------------------------------------------------------
    Charge (ESU x 10^10)
                 0.0000
    Dipole Moment (Debye)
         X       3.4466      Y       0.9123      Z      -2.6438
       Tot       4.4386
    Quadrupole Moments (Debye-Ang)
        XX    -433.6294     XY      19.7816     YY    -410.8027
        XZ      12.3356     YZ     -14.0612     ZZ    -432.3724

 Total job time:  96.97s(wall), 1126.61s(cpu)
        *  Thank you very much for using Q-Chem.  Have a nice day.  *
