 Q-Chem 4.4, Q-Chem, Inc., Pleasanton, CA (2016)
 Q-Chem 4.4.2 for Intel X86 Linux

User input:
--------------------------------------------------------------
$comment
SP
$end

$rem
MEM_STATIC 5000
MEM_TOTAL 20000
JOBTYPE SP
EXCHANGE B3LYP
BASIS 6-31g(d,p)
$end

$molecule
0 1
C          10.961000     -2.468000      3.883000
C          12.320000     -2.636000      4.230000
N          10.331000     -1.268000      3.625000
C          13.101000     -1.459000      4.315000
C          11.172000     -0.200000      3.679000
C          12.572000     -0.225000      3.915000
C          13.451000      1.037000      3.955000
C          14.681000      1.130000      4.711000
C          13.340000      2.132000      2.994000
N          15.541000      2.179000      4.653000
N          12.350000      2.200000      2.143000
C          14.304000      3.155000      2.888000
C          15.376000      3.271000      3.805000
S          12.526000      3.553000      1.311000
N          13.931000      4.109000      1.910000
C          16.317000      4.373000      3.814000
S          16.538000      5.525000      2.501000
C          17.166000      4.685000      4.851000
C          17.749000      6.419000      3.385000
S          17.359000      3.877000      6.391000
C          17.976000      5.766000      4.538000
C          18.231000      7.732000      2.943000
C          18.544000      5.113000      6.729000
C          18.683000      6.086000      5.727000
N          17.983000      8.063000      1.686000
S          19.181000      8.783000      3.943000
C          18.544000      9.315000      1.495000
C          19.163000      9.856000      2.571000
C           9.969000     -3.641000      3.837000
H          12.755000     -3.605000      4.459000
H          14.116000     -1.656000      4.648000
H          10.678000      0.754000      3.502000
H          14.844000      0.301000      5.398000
H          19.105000      4.984000      7.645000
H          19.468000      6.834000      5.725000
H          18.238000      9.733000      0.545000
H          19.450000     10.890000      2.713000
H           9.279000     -3.344000      3.037000
C           9.296000     -4.062000      5.137000
H          10.485000     -4.422000      3.266000
H           8.763000     -3.187000      5.530000
H          10.019000     -4.236000      5.943000
C           8.306000     -5.288000      5.010000
H           8.787000     -6.078000      4.421000
C           6.922000     -4.993000      4.418000
H           8.078000     -5.683000      6.007000
H           6.999000     -4.481000      3.451000
H           6.438000     -4.341000      5.154000
C           6.109000     -6.255000      4.222000
H           6.749000     -7.000000      3.735000
C           4.790000     -6.204000      3.412000
H           5.895000     -6.612000      5.237000
H           5.090000     -5.656000      2.510000
H           4.010000     -5.593000      3.883000
H           4.299000     -7.157000      3.179000
C           4.650000    -10.083000      5.579000
C           5.641000     -9.810000      6.514000
N           4.964000    -10.298000      4.234000
C           6.954000     -9.762000      6.069000
C           6.175000    -10.120000      3.804000
C           7.270000     -9.864000      4.687000
C           8.673000     -9.798000      4.237000
C           9.520000     -8.780000      4.859000
C           9.265000    -10.610000      3.279000
N          10.813000     -8.603000      4.393000
N           8.623000    -11.704000      2.741000
C          10.547000    -10.432000      2.809000
C          11.299000     -9.387000      3.402000
S           9.646000    -12.435000      1.746000
N          10.880000    -11.325000      1.792000
C          12.672000     -8.934000      2.885000
S          13.329000     -9.403000      1.288000
C          13.455000     -7.917000      3.418000
C          14.696000     -8.256000      1.475000
S          13.195000     -7.004000      4.880000
C          14.518000     -7.543000      2.630000
C          15.570000     -7.852000      0.504000
C          14.467000     -5.896000      4.218000
C          15.169000     -6.441000      3.138000
N          15.107000     -7.828000     -0.736000
S          17.240000     -7.566000      0.665000
C          16.117000     -7.604000     -1.670000
C          17.310000     -7.432000     -1.094000
C           3.241000    -10.571000      5.882000
H           5.349000     -9.744000      7.558000
H           7.742000     -9.464000      6.755000
H           6.366000    -10.209000      2.735000
H           9.173000     -7.991000      5.524000
H          14.763000     -4.984000      4.719000
H          16.100000     -6.022000      2.773000
H          15.924000     -7.392000     -2.713000
H          18.264000     -7.096000     -1.480000
H           2.508000    -10.131000      5.194000
C           2.748000    -10.357000      7.362000
H           3.158000    -11.632000      5.617000
H           3.448000    -10.740000      8.114000
H           1.901000    -11.031000      7.545000
C           2.313000     -8.882000      7.574000
H           2.745000     -8.175000      6.855000
C           2.369000     -8.359000      9.013000
H           1.236000     -8.876000      7.366000
H           1.871000     -9.025000      9.729000
H           1.871000     -7.384000      9.078000
C           3.767000     -8.057000      9.536000
H           3.547000     -7.559000     10.489000
C           4.545000     -7.035000      8.683000
H           4.418000     -8.897000      9.809000
H           5.501000     -6.775000      9.154000
H           3.985000     -6.100000      8.558000
H           4.761000     -7.524000      7.725000
$end

--------------------------------------------------------------

             Standard Nuclear Orientation (Angstroms)
    I     Atom           X                Y                Z
 ----------------------------------------------------------------
    1      C      -0.1286638138    -1.3237669654    -0.6010930967
    2      C      -0.6929078488    -0.4453800207     0.3505260731
    3      N      -0.8178721616    -2.2358063534    -1.3735178555
    4      C      -2.0965310778    -0.5114702932     0.5178249288
    5      C      -2.1639689489    -2.1899209364    -1.1818437366
    6      C      -2.8778587739    -1.2974504949    -0.3391226506
    7      C      -4.4085191610    -1.3131542409    -0.1851188463
    8      C      -5.0963014264    -0.8594325152     1.0040729596
    9      C      -5.3339280544    -1.4528133352    -1.3071619459
   10      N      -6.4439775792    -0.7347662886     1.1117405928
   11      N      -4.9165622144    -1.7674684905    -2.5053784909
   12      C      -6.7186381266    -1.2172553953    -1.1882019816
   13      C      -7.3304637585    -0.9678039502     0.0635856891
   14      S      -6.2044485735    -1.8941295685    -3.4429896562
   15      N      -7.3860536623    -1.4656537502    -2.4123685389
   16      C      -8.7617483134    -0.8449593011     0.2541105306
   17      S      -9.9363101338    -0.6004959465    -1.0345151708
   18      C      -9.4110729181    -0.9109586222     1.4655293877
   19      C     -11.2795880635    -0.6191264948     0.0801463502
   20      S      -8.7329847427    -1.1431940673     3.0617675041
   21      C     -10.7756899610    -0.7105057541     1.3231602412
   22      C     -12.6721322279    -0.7025050948    -0.3732031390
   23      C     -10.3861511634    -1.0766254768     3.6174422364
   24      C     -11.3456043831    -0.9574853773     2.5999408085
   25      N     -12.9006353393    -0.4154424371    -1.6446178466
   26      S     -13.9999800817    -1.0424458797     0.6890404018
   27      C     -14.2676418566    -0.5376428124    -1.8318776923
   28      C     -14.9838263176    -0.8999481498    -0.7412665516
   29      C       1.3872739806    -1.4294967672    -0.8310122402
   30      H      -0.0954882592     0.2282348275     0.9587693386
   31      H      -2.4528857060     0.1430090946     1.3081356967
   32      H      -2.7137082447    -2.9241321283    -1.7685307335
   33      H      -4.4406987401    -0.6771881694     1.8542206622
   34      H     -10.5179222629    -1.0700922802     4.6912260576
   35      H     -12.3960623341    -0.7657936257     2.7884225465
   36      H     -14.5180308213    -0.4879615314    -2.8833990362
   37      H     -15.9985270221    -1.2760665952    -0.7166414569
   38      H       1.4544570867    -1.6686793169    -1.8999309173
   39      C       2.1880712895    -2.3500872455     0.0808028953
   40      H       1.7303053333    -0.3917778633    -0.9189154115
   41      H       1.7633066765    -3.3574798419    -0.0135272707
   42      H       2.0000770556    -2.1510255995     1.1427226800
   43      C       3.7422010854    -2.3878523793    -0.2065285720
   44      H       4.1103822772    -1.3616633949    -0.3238349157
   45      C       4.1968101051    -3.2244647483    -1.4091737330
   46      H       4.2625904777    -2.8529356048     0.6389952146
   47      H       3.6608774014    -2.9396645113    -2.3228623901
   48      H       3.9560698618    -4.2580757580    -1.1357721678
   49      C       5.6818046760    -3.0839000352    -1.6681364442
   50      H       5.9336048987    -2.0174517138    -1.6352940090
   51      C       6.2925461012    -3.6451243137    -2.9759912606
   52      H       6.1638952253    -3.5667207511    -0.8091004388
   53      H       5.6110591724    -3.2515531673    -3.7405730538
   54      H       6.2275141366    -4.7373051567    -3.0564514981
   55      H       7.3424345326    -3.4089550947    -3.1893861567
   56      C       9.7750325088    -2.9132262030    -0.3116445158
   57      C       9.0756839304    -2.8079015330     0.8844546773
   58      N       9.6989718810    -1.9124700532    -1.2845514535
   59      C       8.3020945333    -1.6737284901     1.0832232701
   60      C       8.8716422453    -0.9225820961    -1.1476116630
   61      C       8.1274216291    -0.7088081021     0.0543393984
   62      C       7.2901080084     0.4831323679     0.2855293988
   63      C       6.0203247904     0.2746090369     0.9817948653
   64      C       7.5929718931     1.7833567652    -0.0956031034
   65      N       5.1475058874     1.3413948173     1.1249355694
   66      N       8.8223617957     2.1335685355    -0.6097977972
   67      C       6.7249443662     2.8438044130     0.0388848099
   68      C       5.4814520373     2.5687216087     0.6611663208
   69      S       8.8235729714     3.7195113433    -0.8458040335
   70      N       7.2309283181     4.0287940790    -0.4925347343
   71      C       4.3301042372     3.5818785450     0.7355858449
   72      S       4.2673243979     5.0780623221    -0.2439608856
   73      C       3.0896026813     3.3726279251     1.3262101484
   74      C       2.5815406277     5.3935625550     0.2831630875
   75      S       2.5569943234     2.0078258847     2.2708035676
   76      C       2.1530532009     4.3389664744     1.0436258623
   77      C       1.7089935782     6.3016835151    -0.2496698772
   78      C       0.8989817472     2.6983564065     2.0298598071
   79      C       0.9101279375     4.0061900308     1.5342026944
   80      N       1.8552358669     6.5783979402    -1.5359775076
   81      S       0.5836843000     7.2706644022     0.5818179873
   82      C       1.0637113150     7.6537525175    -1.9356441397
   83      C       0.3174091851     8.1319391833    -0.9361544481
   84      C      10.9610248720    -3.8280336367    -0.5795688966
   85      H       9.2455034267    -3.5693577350     1.6400351106
   86      H       7.6741096895    -1.6012114459     1.9668070602
   87      H       8.7736736771    -0.2093031998    -1.9654126020
   88      H       5.5861635018    -0.6934881671     1.2256119669
   89      H       0.0058014747     2.2097263394     2.3956885354
   90      H       0.0343567414     4.6452470500     1.5475420474
   91      H       0.9199845749     7.9319427973    -2.9710159533
   92      H      -0.5022234176     8.8387911413    -0.9122649953
   93      H      10.9382946832    -4.2242454803    -1.6026683608
   94      C      11.1427835833    -5.0232243722     0.4292561014
   95      H      11.8809818393    -3.2318412677    -0.6122619771
   96      H      11.1394525063    -4.7105649641     1.4801728434
   97      H      12.1761331396    -5.3858850253     0.3528365672
   98      C      10.1485917189    -6.1663258035     0.0905886327
   99      H       9.2745959235    -5.8483570740    -0.4911855818
  100      C       9.7732939634    -7.1021193658     1.2442038214
  101      H      10.7071692754    -6.8331725075    -0.5776445501
  102      H      10.6479666676    -7.4858503360     1.7844946717
  103      H       9.2239811825    -7.9702548906     0.8602114005
  104      C       8.8041964019    -6.5154784677     2.2619657646
  105      H       8.5658488365    -7.3932329229     2.8762544219
  106      C       7.4707838170    -6.0393702087     1.6514669488
  107      H       9.1801609677    -5.7734630971     2.9775032096
  108      H       6.7705452825    -5.7211218206     2.4336184420
  109      H       6.9758436587    -6.8371947611     1.0840515602
  110      H       7.7033715881    -5.1664103599     1.0290643210
 ----------------------------------------------------------------

   10   -5663.4791176130      5.25E-06 Convergence criterion met
 Total energy in the final basis set = -5663.4791176130

                    Orbital Energies (a.u.)
 --------------------------------------------------------------

 Alpha MOs
 -- Occupied --
-88.997 -88.986 -88.932 -88.923 -88.921 -88.918 -88.914 -88.913
-14.388 -14.385 -14.383 -14.373 -14.357 -14.352 -14.343 -14.334
-14.334 -14.327 -10.271 -10.270 -10.265 -10.259 -10.257 -10.255
-10.255 -10.254 -10.250 -10.244 -10.243 -10.235 -10.235 -10.234
-10.232 -10.232 -10.230 -10.230 -10.228 -10.228 -10.228 -10.227
-10.226 -10.226 -10.226 -10.225 -10.225 -10.225 -10.223 -10.216
-10.215 -10.214 -10.203 -10.202 -10.202 -10.202 -10.201 -10.201
-10.190 -10.188 -10.184 -10.180 -10.180 -10.180 -10.178 -10.177
-10.173 -10.171 -10.171 -10.167  -8.052  -8.042  -7.993  -7.986
 -7.979  -7.977  -7.974  -7.972  -6.017  -6.011  -6.010  -6.007
 -6.001  -6.000  -5.957  -5.954  -5.950  -5.950  -5.946  -5.944
 -5.943  -5.942  -5.940  -5.938  -5.938  -5.937  -5.936  -5.934
 -5.934  -5.933  -5.930  -5.928  -1.040  -1.033  -0.972  -0.968
 -0.951  -0.942  -0.939  -0.929  -0.918  -0.914  -0.899  -0.892
 -0.848  -0.839  -0.836  -0.822  -0.814  -0.811  -0.810  -0.806
 -0.803  -0.801  -0.799  -0.796  -0.790  -0.780  -0.768  -0.763
 -0.754  -0.750  -0.742  -0.739  -0.722  -0.719  -0.710  -0.708
 -0.694  -0.694  -0.679  -0.671  -0.661  -0.653  -0.650  -0.638
 -0.637  -0.633  -0.624  -0.620  -0.619  -0.607  -0.602  -0.602
 -0.595  -0.594  -0.588  -0.581  -0.579  -0.577  -0.563  -0.554
 -0.548  -0.547  -0.540  -0.539  -0.526  -0.524  -0.520  -0.517
 -0.506  -0.502  -0.499  -0.499  -0.488  -0.482  -0.474  -0.473
 -0.471  -0.470  -0.468  -0.467  -0.464  -0.460  -0.458  -0.453
 -0.444  -0.440  -0.439  -0.437  -0.435  -0.433  -0.431  -0.430
 -0.430  -0.428  -0.422  -0.421  -0.419  -0.417  -0.414  -0.410
 -0.409  -0.408  -0.405  -0.402  -0.401  -0.399  -0.396  -0.395
 -0.394  -0.392  -0.391  -0.390  -0.389  -0.387  -0.385  -0.383
 -0.381  -0.379  -0.377  -0.371  -0.370  -0.362  -0.361  -0.358
 -0.354  -0.350  -0.348  -0.345  -0.345  -0.343  -0.343  -0.341
 -0.339  -0.335  -0.334  -0.332  -0.328  -0.323  -0.318  -0.315
 -0.311  -0.311  -0.308  -0.307  -0.303  -0.303  -0.302  -0.300
 -0.297  -0.294  -0.292  -0.291  -0.289  -0.286  -0.284  -0.281
 -0.273  -0.272  -0.268  -0.265  -0.260  -0.256  -0.253  -0.247
 -0.244  -0.242  -0.231  -0.230  -0.196  -0.195

          Ground-State Mulliken Net Atomic Charges

     Atom                 Charge (a.u.)
  ----------------------------------------
      1 C                     0.220978
      2 C                    -0.099655
      3 N                    -0.461549
      4 C                    -0.094942
      5 C                     0.082190
      6 C                     0.057714
      7 C                     0.024227
      8 C                     0.072688
      9 C                     0.217492
     10 N                    -0.538526
     11 N                    -0.533981
     12 C                     0.166275
     13 C                     0.294704
     14 S                     0.613345
     15 N                    -0.545839
     16 C                    -0.221938
     17 S                     0.362413
     18 C                    -0.108972
     19 C                    -0.217917
     20 S                     0.300645
     21 C                     0.142315
     22 C                     0.062208
     23 C                    -0.296361
     24 C                    -0.107041
     25 N                    -0.425703
     26 S                     0.288038
     27 C                     0.124631
     28 C                    -0.316831
     29 C                    -0.222253
     30 H                     0.101445
     31 H                     0.095698
     32 H                     0.114893
     33 H                     0.107189
     34 H                     0.128205
     35 H                     0.103499
     36 H                     0.115713
     37 H                     0.134005
     38 H                     0.118987
     39 C                    -0.175371
     40 H                     0.103828
     41 H                     0.106323
     42 H                     0.092187
     43 C                    -0.191413
     44 H                     0.102288
     45 C                    -0.168569
     46 H                     0.085035
     47 H                     0.093029
     48 H                     0.092941
     49 C                    -0.179467
     50 H                     0.090947
     51 C                    -0.327577
     52 H                     0.091072
     53 H                     0.099778
     54 H                     0.097523
     55 H                     0.115718
     56 C                     0.254277
     57 C                    -0.105039
     58 N                    -0.481314
     59 C                    -0.087976
     60 C                     0.123886
     61 C                     0.027119
     62 C                     0.006141
     63 C                     0.057548
     64 C                     0.214977
     65 N                    -0.523598
     66 N                    -0.538880
     67 C                     0.232481
     68 C                     0.294829
     69 S                     0.632367
     70 N                    -0.578527
     71 C                    -0.229577
     72 S                     0.347242
     73 C                    -0.114348
     74 C                    -0.198891
     75 S                     0.281188
     76 C                     0.172064
     77 C                     0.027685
     78 C                    -0.312083
     79 C                    -0.087045
     80 N                    -0.430920
     81 S                     0.256888
     82 C                     0.127181
     83 C                    -0.299343
     84 C                    -0.224157
     85 H                     0.104657
     86 H                     0.096810
     87 H                     0.108653
     88 H                     0.134263
     89 H                     0.115164
     90 H                     0.112362
     91 H                     0.121057
     92 H                     0.130553
     93 H                     0.121121
     94 C                    -0.200966
     95 H                     0.123102
     96 H                     0.093463
     97 H                     0.095890
     98 C                    -0.180194
     99 H                     0.106428
    100 C                    -0.172726
    101 H                     0.097042
    102 H                     0.089545
    103 H                     0.091273
    104 C                    -0.181727
    105 H                     0.089591
    106 C                    -0.324347
    107 H                     0.086814
    108 H                     0.096891
    109 H                     0.102051
    110 H                     0.112790
  ----------------------------------------
  Sum of atomic charges =     0.000000

                    Cartesian Multipole Moments
 -----------------------------------------------------------------
    Charge (ESU x 10^10)
                 0.0000
    Dipole Moment (Debye)
         X      -1.5720      Y       0.0404      Z       3.3783
       Tot       3.7264
    Quadrupole Moments (Debye-Ang)
        XX    -379.3743     XY      -9.1480     YY    -426.0948
        XZ       2.1394     YZ      -8.9454     ZZ    -439.4741

 Total job time:  93.81s(wall), 1120.62s(cpu)
        *  Thank you very much for using Q-Chem.  Have a nice day.  *
