 Q-Chem 4.4, Q-Chem, Inc., Pleasanton, CA (2016)
 Q-Chem 4.4.2 for Intel X86 Linux

User input:
--------------------------------------------------------------
$comment
SP
$end

$rem
MEM_STATIC 5000
MEM_TOTAL 20000
JOBTYPE SP
EXCHANGE B3LYP
BASIS 6-31g(d,p)
$end

$molecule
0 1
C         -17.766000     15.119000      3.187000
C         -17.143000     14.027000      2.587000
N         -17.291000     16.401000      2.988000
C         -16.068000     14.248000      1.739000
C         -16.184000     16.586000      2.224000
C         -15.575000     15.532000      1.551000
C         -14.459000     15.737000      0.665000
C         -13.169000     16.049000      1.111000
C         -14.642000     15.808000     -0.718000
N         -12.106000     16.288000      0.356000
N         -15.803000     15.418000     -1.336000
C         -13.576000     16.218000     -1.506000
C         -12.261000     16.496000     -0.940000
S         -15.407000     15.641000     -2.902000
N         -13.885000     16.150000     -2.838000
C         -11.095000     16.818000     -1.735000
S         -11.047000     17.480000     -3.384000
C          -9.836000     17.067000     -1.182000
C          -9.348000     17.985000     -3.321000
S          -9.173000     16.627000      0.425000
C          -8.932000     17.594000     -2.072000
C          -8.581000     18.567000     -4.412000
C          -7.618000     17.239000     -0.200000
C          -7.659000     17.806000     -1.453000
N          -7.300000     18.316000     -4.352000
S          -9.247000     19.552000     -5.720000
C          -6.742000     18.797000     -5.531000
C          -7.631000     19.400000     -6.368000
C         -18.878000     14.786000      4.148000
H         -17.528000     13.015000      2.676000
H         -15.717000     13.363000      1.217000
H         -15.883000     17.618000      2.052000
H         -12.950000     16.010000      2.177000
H          -6.821000     17.127000      0.524000
H          -6.795000     18.233000     -1.951000
H          -5.673000     18.683000     -5.649000
H          -7.360000     19.781000     -7.344000
H         -19.228000     15.746000      4.549000
C         -18.416000     13.884000      5.234000
H         -19.679000     14.275000      3.601000
H         -17.465000     14.322000      5.560000
H         -18.178000     12.884000      4.850000
C         -19.311000     13.822000      6.466000
H         -19.366000     14.831000      6.893000
C         -18.797000     12.895000      7.557000
H         -20.338000     13.603000      6.150000
H         -17.791000     13.237000      7.830000
H         -18.737000     11.866000      7.181000
C         -19.786000     12.906000      8.779000
H         -19.202000     12.613000      9.659000
C         -21.107000     12.072000      8.602000
H         -20.034000     13.957000      8.976000
H         -21.629000     12.264000      9.548000
H         -20.980000     10.987000      8.503000
H         -21.815000     12.518000      7.893000
C          -3.750000      2.453000      2.354000
C          -2.795000      3.015000      1.521000
N          -5.000000      2.940000      2.379000
C          -3.052000      4.132000      0.717000
C          -5.319000      4.042000      1.638000
C          -4.313000      4.721000      0.813000
C          -4.650000      6.086000      0.274000
C          -5.981000      6.367000     -0.105000
C          -3.735000      7.203000      0.056000
N          -6.423000      7.548000     -0.526000
N          -2.439000      7.110000     -0.015000
C          -4.250000      8.449000     -0.302000
C          -5.653000      8.613000     -0.547000
S          -1.874000      8.646000     -0.329000
N          -3.298000      9.440000     -0.422000
C          -6.414000      9.843000     -1.020000
S          -7.870000      9.737000     -1.981000
C          -6.297000     11.170000     -0.598000
C          -8.350000     11.366000     -1.704000
S          -5.037000     11.929000      0.441000
C          -7.321000     12.018000     -1.044000
C          -9.533000     11.988000     -2.140000
C          -5.998000     13.432000      0.279000
C          -7.057000     13.322000     -0.609000
N         -10.351000     11.203000     -2.915000
S         -10.122000     13.558000     -1.864000
C         -11.422000     12.001000     -3.392000
C         -11.414000     13.281000     -2.960000
C          -3.447000      1.333000      3.321000
H          -1.800000      2.598000      1.641000
H          -2.282000      4.543000      0.070000
H          -6.338000      4.427000      1.650000
H          -6.714000      5.561000     -0.089000
H          -5.589000     14.286000      0.802000
H          -7.779000     14.117000     -0.754000
H         -12.162000     11.662000     -4.105000
H         -12.176000     14.019000     -3.171000
H          -2.420000      1.400000      3.701000
C          -3.747000     -0.032000      2.658000
H          -4.168000      1.424000      4.143000
H          -3.148000     -0.200000      1.754000
H          -4.805000     -0.079000      2.372000
C          -3.578000     -1.236000      3.696000
H          -2.534000     -1.308000      4.023000
C          -3.918000     -2.614000      3.097000
H          -4.118000     -0.977000      4.615000
H          -5.001000     -2.686000      2.939000
H          -3.789000     -3.287000      3.954000
C          -3.072000     -3.022000      1.890000
H          -3.330000     -2.427000      1.005000
C          -3.318000     -4.507000      1.527000
H          -1.994000     -2.921000      2.065000
H          -2.946000     -5.196000      2.296000
H          -2.824000     -4.703000      0.567000
H          -4.377000     -4.743000      1.368000
$end

--------------------------------------------------------------

             Standard Nuclear Orientation (Angstroms)
    I     Atom           X                Y                Z
 ----------------------------------------------------------------
    1      C      -7.5155566851    -5.8202145586    -0.0976435529
    2      C      -6.3140684491    -5.5070827134    -0.7292822679
    3      N      -8.2593740300    -4.8408148749     0.5318499078
    4      C      -5.8983043151    -4.1844619514    -0.7664912035
    5      C      -7.7898635471    -3.5671530252     0.5585968545
    6      C      -6.6320609427    -3.1998098700    -0.1191037693
    7      C      -6.1814494450    -1.8335875281    -0.1726088235
    8      C      -5.6180326934    -1.1652611635     0.9211285465
    9      C      -6.4444730798    -1.0323983458    -1.2862216204
   10      N      -5.2173486141     0.0977830792     0.9569964903
   11      N      -6.8799437241    -1.5417566603    -2.4832447720
   12      C      -6.1799474091     0.3270259319    -1.2002460261
   13      C      -5.5661039324     0.9197038646    -0.0175397843
   14      S      -6.9261852999    -0.1896638064    -3.3935236475
   15      N      -6.4053257569     0.9557543804    -2.3953335285
   16      C      -5.1717748560     2.3095146570     0.0729894424
   17      S      -5.7825265463     3.6816425706    -0.8777977900
   18      C      -4.5696845567     2.8624738917     1.2063977344
   19      C      -5.1515387949     4.9385931582     0.2027227688
   20      S      -3.7080871391     2.0647838728     2.5617421643
   21      C      -4.5030301057     4.2344213639     1.1873630910
   22      C      -5.2253196205     6.3758982972    -0.0117634248
   23      C      -3.2968445600     3.7173337170     3.0938629716
   24      C      -3.8585337153     4.7380883660     2.3619174549
   25      N      -4.2474336535     7.0447722646     0.5395156798
   26      S      -6.5004012598     7.2134997563    -0.9046439368
   27      C      -4.3735590670     8.3622690223     0.1140034313
   28      C      -5.4476721823     8.5921082681    -0.6909524288
   29      C      -7.8569792522    -7.2868732911    -0.0402258454
   30      H      -5.7377035761    -6.2429211291    -1.2830289240
   31      H      -5.0201109079    -4.0056752235    -1.3794525771
   32      H      -8.4386520749    -2.8229377562     1.0173190793
   33      H      -5.3806447840    -1.7264787523     1.8236360526
   34      H      -2.6757929225     3.7119295079     3.9805391572
   35      H      -3.7094991510     5.7902584751     2.5799902871
   36      H      -3.6449236396     9.0691830814     0.4868893748
   37      H      -5.6538914220     9.5539298169    -1.1421186215
   38      H      -8.8024794710    -7.3552537375     0.5131767664
   39      C      -6.7865197336    -8.0762678412     0.6211489829
   40      H      -7.9738359489    -7.6646178065    -1.0627641545
   41      H      -6.5363890600    -7.4926190863     1.5151902443
   42      H      -5.8758221095    -8.1071926866     0.0097788075
   43      C      -7.1929401908    -9.4625470526     1.1066851400
   44      H      -7.9971412037    -9.3389253955     1.8424931427
   45      C      -6.0708550616   -10.2327838938     1.7859981541
   46      H      -7.6620968642   -10.0070825907     0.2784828316
   47      H      -5.7149770638    -9.6212981176     2.6244282324
   48      H      -5.2442201956   -10.3945138149     1.0829083796
   49      C      -6.5927296642   -11.6411572385     2.2503874533
   50      H      -5.9460212775   -11.9597309160     3.0759685061
   51      C      -6.7420275621   -12.7255306804     1.1217730921
   52      H      -7.5629254652   -11.4747741181     2.7361350882
   53      H      -7.1443095873   -13.5821639237     1.6773022620
   54      H      -5.8112122748   -13.0463332273     0.6382199649
   55      H      -7.5732373594   -12.5299524429     0.4335141104
   56      C      10.9513378629    -1.7985415142     0.5103471348
   57      C      11.0250168819    -0.4157097034     0.5744219772
   58      N       9.8108432363    -2.4010541055     0.1408277387
   59      C       9.9275009558     0.4153682709     0.3196236398
   60      C       8.6921153322    -1.6562636080    -0.1020322853
   61      C       8.7043530016    -0.1959637425     0.0431453379
   62      C       7.3800896524     0.5205349251     0.0596147438
   63      C       6.3260157104     0.0373458667    -0.7463749947
   64      C       7.0319209647     1.7213159771     0.8141619126
   65      N       5.0924534021     0.5324740573    -0.7695721128
   66      N       7.8844140984     2.5514972782     1.3408121421
   67      C       5.7070190696     2.1574521226     0.8321960750
   68      C       4.7115493221     1.4923438813     0.0435256690
   69      S       6.9854923601     3.7708069607     2.0353195982
   70      N       5.4880031348     3.2648941853     1.6249060460
   71      C       3.2426120401     1.8388896349    -0.1511003881
   72      S       2.3796089126     1.4836273444    -1.6288376133
   73      C       2.2897456494     2.2114601061     0.8007078308
   74      C       0.8160714877     1.6988661596    -0.9434231594
   75      S       2.5215266954     2.6719140712     2.5262401234
   76      C       0.9667590197     2.2096162486     0.3356282915
   77      C      -0.4230399249     1.4925740674    -1.5747039842
   78      C       0.7366413590     2.8087460716     2.5913196085
   79      C       0.1219290234     2.6575078997     1.3578769630
   80      N      -0.3486015338     1.1328180409    -2.8979607723
   81      S      -2.0057402675     1.6138182139    -0.9677801976
   82      C      -1.6624868273     1.0995259092    -3.4308501319
   83      C      -2.6432737489     1.3761893835    -2.5439440847
   84      C      12.0903670999    -2.7062031341     0.9104231037
   85      H      11.9658516875    -0.0384342785     0.9627609044
   86      H      10.0220466160     1.4964593888     0.3719028214
   87      H       7.7713255649    -2.1472012688    -0.4148523898
   88      H       6.5234399212    -0.7847522329    -1.4336590667
   89      H       0.3426518445     3.0995333455     3.5558614810
   90      H      -0.9554971885     2.6319863337     1.2445835055
   91      H      -1.8904610532     0.9408068650    -4.4766636991
   92      H      -3.7042422844     1.3431242311    -2.7514566442
   93      H      12.6845731610    -2.2678804453     1.7218480093
   94      C      12.9459978082    -3.0568874072    -0.3296215049
   95      H      11.6392871635    -3.6531893319     1.2322150120
   96      H      13.3787118108    -2.1679219464    -0.8057937441
   97      H      12.3237057892    -3.5666583698    -1.0754466914
   98      C      14.0755838802    -4.1313522233     0.0241887055
   99      H      14.7866789688    -3.7078004910     0.7432135347
  100      C      14.9217875377    -4.5541119472    -1.1917465666
  101      H      13.6073816818    -4.9533959134     0.5794119696
  102      H      14.3131039537    -5.1726147048    -1.8625637052
  103      H      15.5932939841    -5.3102919880    -0.7659651224
  104      C      15.6732398582    -3.4165176326    -1.8847311157
  105      H      14.9836781532    -2.7578806198    -2.4274243442
  106      C      16.6775687463    -3.9767340132    -2.9215488873
  107      H      16.2570704644    -2.7996697008    -1.1907927522
  108      H      17.5025907070    -4.5287277940    -2.4534595473
  109      H      17.0651220983    -3.1306479425    -3.5029203352
  110      H      16.2134540681    -4.6496284436    -3.6524857184
 ----------------------------------------------------------------

    9   -5663.5258835186      6.38E-06 Convergence criterion met
 Total energy in the final basis set = -5663.5258835186

                    Orbital Energies (a.u.)
 --------------------------------------------------------------

 Alpha MOs
 -- Occupied --
-88.992 -88.987 -88.942 -88.928 -88.918 -88.913 -88.913 -88.905
-14.394 -14.392 -14.389 -14.381 -14.353 -14.351 -14.341 -14.332
-14.332 -14.329 -10.281 -10.270 -10.265 -10.261 -10.259 -10.257
-10.255 -10.254 -10.249 -10.246 -10.238 -10.237 -10.236 -10.234
-10.234 -10.234 -10.234 -10.229 -10.229 -10.227 -10.227 -10.226
-10.225 -10.224 -10.223 -10.219 -10.217 -10.216 -10.212 -10.209
-10.207 -10.206 -10.205 -10.198 -10.198 -10.195 -10.194 -10.192
-10.185 -10.183 -10.182 -10.181 -10.181 -10.178 -10.178 -10.177
-10.177 -10.176 -10.175 -10.171  -8.048  -8.043  -8.002  -7.987
 -7.980  -7.972  -7.971  -7.964  -6.013  -6.008  -6.007  -6.006
 -6.002  -6.000  -5.966  -5.963  -5.959  -5.951  -5.947  -5.944
 -5.944  -5.940  -5.937  -5.937  -5.936  -5.933  -5.933  -5.929
 -5.929  -5.928  -5.926  -5.921  -1.046  -1.038  -0.983  -0.973
 -0.964  -0.947  -0.932  -0.931  -0.917  -0.910  -0.908  -0.904
 -0.844  -0.843  -0.838  -0.825  -0.820  -0.816  -0.810  -0.804
 -0.800  -0.800  -0.796  -0.792  -0.787  -0.783  -0.771  -0.767
 -0.753  -0.743  -0.741  -0.736  -0.725  -0.715  -0.714  -0.709
 -0.698  -0.690  -0.678  -0.674  -0.657  -0.649  -0.645  -0.644
 -0.642  -0.630  -0.629  -0.624  -0.615  -0.607  -0.600  -0.596
 -0.594  -0.584  -0.583  -0.582  -0.579  -0.574  -0.568  -0.563
 -0.562  -0.547  -0.543  -0.535  -0.528  -0.519  -0.518  -0.512
 -0.510  -0.502  -0.501  -0.498  -0.497  -0.485  -0.484  -0.480
 -0.476  -0.473  -0.466  -0.466  -0.464  -0.458  -0.449  -0.446
 -0.444  -0.443  -0.441  -0.440  -0.438  -0.436  -0.430  -0.427
 -0.426  -0.423  -0.422  -0.421  -0.420  -0.418  -0.415  -0.413
 -0.412  -0.409  -0.404  -0.401  -0.401  -0.400  -0.398  -0.396
 -0.395  -0.394  -0.393  -0.391  -0.390  -0.388  -0.384  -0.383
 -0.378  -0.374  -0.372  -0.368  -0.362  -0.361  -0.358  -0.357
 -0.356  -0.356  -0.351  -0.349  -0.347  -0.342  -0.340  -0.339
 -0.337  -0.336  -0.332  -0.332  -0.331  -0.330  -0.324  -0.323
 -0.318  -0.315  -0.314  -0.313  -0.309  -0.305  -0.304  -0.303
 -0.303  -0.296  -0.295  -0.293  -0.284  -0.283  -0.277  -0.276
 -0.270  -0.268  -0.265  -0.263  -0.257  -0.252  -0.251  -0.250
 -0.245  -0.240  -0.234  -0.227  -0.203  -0.188

          Ground-State Mulliken Net Atomic Charges

     Atom                 Charge (a.u.)
  ----------------------------------------
      1 C                     0.267125
      2 C                    -0.094612
      3 N                    -0.494576
      4 C                    -0.058157
      5 C                     0.087468
      6 C                     0.026490
      7 C                    -0.041722
      8 C                     0.066055
      9 C                     0.243876
     10 N                    -0.510087
     11 N                    -0.533478
     12 C                     0.175682
     13 C                     0.338477
     14 S                     0.608214
     15 N                    -0.543997
     16 C                    -0.259282
     17 S                     0.299541
     18 C                    -0.110381
     19 C                    -0.232437
     20 S                     0.281318
     21 C                     0.170528
     22 C                     0.065498
     23 C                    -0.319370
     24 C                    -0.040960
     25 N                    -0.419266
     26 S                     0.290600
     27 C                     0.124955
     28 C                    -0.302775
     29 C                    -0.226552
     30 H                     0.090729
     31 H                     0.102204
     32 H                     0.106978
     33 H                     0.112280
     34 H                     0.124354
     35 H                     0.124856
     36 H                     0.120350
     37 H                     0.131621
     38 H                     0.113222
     39 C                    -0.175458
     40 H                     0.107871
     41 H                     0.099956
     42 H                     0.090680
     43 C                    -0.172991
     44 H                     0.092930
     45 C                    -0.170575
     46 H                     0.089524
     47 H                     0.090630
     48 H                     0.088938
     49 C                    -0.182459
     50 H                     0.090664
     51 C                    -0.323516
     52 H                     0.092344
     53 H                     0.104540
     54 H                     0.109681
     55 H                     0.109766
     56 C                     0.279643
     57 C                    -0.121754
     58 N                    -0.490644
     59 C                    -0.068274
     60 C                     0.082966
     61 C                     0.009864
     62 C                     0.042017
     63 C                     0.050629
     64 C                     0.266496
     65 N                    -0.493311
     66 N                    -0.563607
     67 C                     0.169388
     68 C                     0.288690
     69 S                     0.597390
     70 N                    -0.531520
     71 C                    -0.239887
     72 S                     0.361398
     73 C                    -0.130670
     74 C                    -0.200112
     75 S                     0.256667
     76 C                     0.147809
     77 C                     0.037513
     78 C                    -0.302202
     79 C                    -0.090917
     80 N                    -0.458195
     81 S                     0.321850
     82 C                     0.114129
     83 C                    -0.320762
     84 C                    -0.221901
     85 H                     0.083209
     86 H                     0.123931
     87 H                     0.109395
     88 H                     0.115182
     89 H                     0.123993
     90 H                     0.120588
     91 H                     0.111872
     92 H                     0.139445
     93 H                     0.098724
     94 C                    -0.180006
     95 H                     0.121156
     96 H                     0.096019
     97 H                     0.112153
     98 C                    -0.187163
     99 H                     0.086178
    100 C                    -0.171478
    101 H                     0.088752
    102 H                     0.092206
    103 H                     0.088340
    104 C                    -0.170898
    105 H                     0.101649
    106 C                    -0.321883
    107 H                     0.095600
    108 H                     0.103880
    109 H                     0.096134
    110 H                     0.103035
  ----------------------------------------
  Sum of atomic charges =     0.000000

                    Cartesian Multipole Moments
 -----------------------------------------------------------------
    Charge (ESU x 10^10)
                 0.0000
    Dipole Moment (Debye)
         X      -0.8807      Y       3.3080      Z       0.8219
       Tot       3.5205
    Quadrupole Moments (Debye-Ang)
        XX    -418.2301     XY     -10.0377     YY    -392.3429
        XZ      21.2110     YZ       6.1547     ZZ    -438.3153

 Total job time:  83.35s(wall), 980.12s(cpu)
        *  Thank you very much for using Q-Chem.  Have a nice day.  *
