 Q-Chem 4.4, Q-Chem, Inc., Pleasanton, CA (2016)
 Q-Chem 4.4.2 for Intel X86 Linux

User input:
--------------------------------------------------------------
$comment
SP
$end

$rem
MEM_STATIC 5000
MEM_TOTAL 20000
JOBTYPE SP
EXCHANGE B3LYP
BASIS 6-31g(d,p)
$end

$molecule
0 1
C           1.880000     11.032000     -2.572000
C           3.006000     11.068000     -1.751000
N           1.122000      9.939000     -2.619000
C           3.482000      9.897000     -1.191000
C           1.547000      8.778000     -2.122000
C           2.832000      8.663000     -1.417000
C           3.239000      7.383000     -0.718000
C           4.575000      7.169000     -0.433000
C           2.335000      6.403000     -0.130000
N           5.014000      6.146000      0.324000
N           1.030000      6.479000     -0.260000
C           2.771000      5.314000      0.600000
C           4.175000      5.127000      0.737000
S           0.434000      5.148000      0.465000
N           1.821000      4.447000      1.006000
C           4.800000      3.973000      1.409000
S           3.861000      2.687000      2.163000
C           6.190000      3.658000      1.536000
C           5.315000      1.733000      2.552000
S           7.578000      4.620000      1.090000
C           6.472000      2.485000      2.311000
C           5.374000      0.494000      3.211000
C           8.547000      3.353000      1.916000
C           7.832000      2.346000      2.588000
N           4.278000     -0.293000      3.122000
S           6.731000     -0.269000      4.066000
C           4.423000     -1.436000      3.875000
C           5.656000     -1.560000      4.406000
C           1.367000     12.350000     -3.102000
H           3.556000     11.992000     -1.598000
H           4.369000      9.994000     -0.572000
H           0.856000      7.954000     -2.295000
H           5.195000      8.018000     -0.717000
H           9.617000      3.441000      1.787000
H           8.397000      1.574000      3.098000
H           3.607000     -2.132000      4.017000
H           6.006000     -2.204000      5.202000
H           0.442000     12.147000     -3.656000
C           2.275000     13.065000     -4.138000
H           1.114000     13.000000     -2.255000
H           3.195000     13.482000     -3.711000
H           1.734000     13.965000     -4.458000
C           2.643000     12.118000     -5.303000
H           3.175000     11.246000     -4.903000
C           3.393000     12.910000     -6.435000
H           1.636000     11.825000     -5.623000
H           4.275000     13.414000     -6.020000
H           2.777000     13.788000     -6.667000
C           3.776000     11.975000     -7.630000
H           4.516000     11.269000     -7.233000
C           4.470000     12.839000     -8.766000
H           2.907000     11.528000     -8.129000
H           3.947000     13.749000     -9.086000
H           4.610000     12.234000     -9.671000
H           5.427000     13.290000     -8.477000
C          -3.750000      2.453000      2.354000
C          -2.795000      3.015000      1.521000
N          -5.000000      2.940000      2.379000
C          -3.052000      4.132000      0.717000
C          -5.319000      4.042000      1.638000
C          -4.313000      4.721000      0.813000
C          -4.650000      6.086000      0.274000
C          -5.981000      6.367000     -0.105000
C          -3.735000      7.203000      0.056000
N          -6.423000      7.548000     -0.526000
N          -2.439000      7.110000     -0.015000
C          -4.250000      8.449000     -0.302000
C          -5.653000      8.613000     -0.547000
S          -1.874000      8.646000     -0.329000
N          -3.298000      9.440000     -0.422000
C          -6.414000      9.843000     -1.020000
S          -7.870000      9.737000     -1.981000
C          -6.297000     11.170000     -0.598000
C          -8.350000     11.366000     -1.704000
S          -5.037000     11.929000      0.441000
C          -7.321000     12.018000     -1.044000
C          -9.533000     11.988000     -2.140000
C          -5.998000     13.432000      0.279000
C          -7.057000     13.322000     -0.609000
N         -10.351000     11.203000     -2.915000
S         -10.122000     13.558000     -1.864000
C         -11.422000     12.001000     -3.392000
C         -11.414000     13.281000     -2.960000
C          -3.447000      1.333000      3.321000
H          -1.800000      2.598000      1.641000
H          -2.282000      4.543000      0.070000
H          -6.338000      4.427000      1.650000
H          -6.714000      5.561000     -0.089000
H          -5.589000     14.286000      0.802000
H          -7.779000     14.117000     -0.754000
H         -12.162000     11.662000     -4.105000
H         -12.176000     14.019000     -3.171000
H          -2.420000      1.400000      3.701000
C          -3.747000     -0.032000      2.658000
H          -4.168000      1.424000      4.143000
H          -3.148000     -0.200000      1.754000
H          -4.805000     -0.079000      2.372000
C          -3.578000     -1.236000      3.696000
H          -2.534000     -1.308000      4.023000
C          -3.918000     -2.614000      3.097000
H          -4.118000     -0.977000      4.615000
H          -5.001000     -2.686000      2.939000
H          -3.789000     -3.287000      3.954000
C          -3.072000     -3.022000      1.890000
H          -3.330000     -2.427000      1.005000
C          -3.318000     -4.507000      1.527000
H          -1.994000     -2.921000      2.065000
H          -2.946000     -5.196000      2.296000
H          -2.824000     -4.703000      0.567000
H          -4.377000     -4.743000      1.368000
$end

--------------------------------------------------------------

             Standard Nuclear Orientation (Angstroms)
    I     Atom           X                Y                Z
 ----------------------------------------------------------------
    1      C       1.6910417294    -5.5209345404     0.0785444889
    2      C       0.6892876778    -6.0219641470     0.9084066181
    3      N       1.5305143882    -4.3478864368    -0.5294120221
    4      C      -0.5639350512    -5.4382502185     0.8970999370
    5      C       0.3373996930    -3.7582772103    -0.5956938768
    6      C      -0.8426777181    -4.3239643082     0.0742989673
    7      C      -2.1565433107    -3.5734048391     0.1296856794
    8      C      -3.3201820571    -4.2745317927     0.3871402637
    9      C      -2.3170004164    -2.1251061660     0.1230170521
   10      N      -4.5058893528    -3.6793044263     0.6153979936
   11      N      -1.3080524759    -1.3038130461    -0.0591989314
   12      C      -3.5359448629    -1.4982428454     0.2966079894
   13      C      -4.6889930656    -2.3195166132     0.4413257856
   14      S      -1.9525539067     0.1916570051    -0.0834730216
   15      N      -3.5398253660    -0.1547526531     0.1781004160
   16      C      -6.0677611911    -1.8082012464     0.5484707897
   17      S      -6.4483924759    -0.0879891612     0.5436534263
   18      C      -7.2912642342    -2.5463091397     0.6239097811
   19      C      -8.2051283611    -0.3866444685     0.5590494273
   20      S      -7.5244784618    -4.2697812082     0.7856476956
   21      C      -8.4683184250    -1.7436244670     0.7861403208
   22      C      -9.2349901561     0.5684108837     0.5707523131
   23      C      -9.2628995056    -3.8735356116     1.0033807924
   24      C      -9.5979976353    -2.5098302079     1.0732006707
   25      N      -8.9459014258     1.7784967072     0.0410108613
   26      S     -10.9286519510     0.3995069833     1.0783192514
   27      C     -10.0004078473     2.6509646612     0.1869522067
   28      C     -11.1011340730     2.0612281994     0.6951241082
   29      C       3.0575850519    -6.1558652753     0.1815751137
   30      H       0.8577351140    -6.9069205113     1.5151707358
   31      H      -1.3007588812    -5.8848129425     1.5581682974
   32      H       0.3392429014    -2.8421492109    -1.1848390977
   33      H      -3.1284221463    -5.3291784812     0.5789878569
   34      H      -9.9269877152    -4.7268506379     1.0145752465
   35      H     -10.6411160225    -2.2479953488     1.2097859441
   36      H      -9.9145956872     3.6972021322    -0.0746953187
   37      H     -11.9885324224     2.5053738198     1.1265297611
   38      H       3.7343637713    -5.5940969314    -0.4742731102
   39      C       3.1677008427    -7.6171940206    -0.3296761073
   40      H       3.4232069178    -6.0486523554     1.2105279994
   41      H       2.6687926275    -8.3525617217     0.3129302551
   42      H       4.2241271093    -7.9009539883    -0.2373461345
   43      C       2.6162458425    -7.7467998937    -1.7679242432
   44      H       1.5621217562    -7.4432525299    -1.7773798597
   45      C       2.9148828110    -9.1799826834    -2.3406292738
   46      H       3.2274957134    -6.9844781736    -2.2654553381
   47      H       2.5027127423    -9.9456395792    -1.6712636395
   48      H       3.9856098308    -9.3644474273    -2.1867448782
   49      C       2.3689536064    -9.3387295883    -3.7986072311
   50      H       1.2763090515    -9.2824047455    -3.7173644539
   51      C       2.7550968484   -10.7774894737    -4.3458652951
   52      H       2.8323159101    -8.6484032235    -4.5146490494
   53      H       3.8052818400   -11.0799148498    -4.2474814790
   54      H       2.5147978327   -10.8544631646    -5.4140326200
   55      H       2.2904799732   -11.6116608896    -3.8063653339
   56      C      -1.2679670340     5.4699894479     0.0045578670
   57      C      -1.3469592375     4.1448332473    -0.3947906972
   58      N      -0.0740869084     6.0637919282     0.1540331493
   59      C      -0.2159031397     3.3473385104    -0.6066119619
   60      C       1.0735723083     5.3427647858    -0.0140269060
   61      C       1.0322649486     3.9143304650    -0.3480494997
   62      C       2.3073030847     3.1240768659    -0.2173131216
   63      C       3.5370721394     3.7456730439    -0.5262617644
   64      C       2.4460419249     1.7258217458     0.1802697670
   65      N       4.7340660756     3.1847724213    -0.3849747928
   66      N       1.4883325286     0.8448651075     0.1765129672
   67      C       3.7193869517     1.2009085203     0.4015468519
   68      C       4.8868303698     1.9943811416     0.1509334750
   69      S       2.1735995965    -0.5964935212     0.6561079517
   70      N       3.7228398341    -0.1102409801     0.8301026422
   71      C       6.3558421708     1.6082409007     0.2439390814
   72      S       7.5845798456     2.3300865224    -0.7679085480
   73      C       7.0176230955     0.8865276350     1.2408733671
   74      C       8.9052990210     1.7906329131     0.1941001127
   75      S       6.3300369113    -0.0615731738     2.6089128752
   76      C       8.4170935285     0.9254856389     1.1598747194
   77      C      10.2676969951     2.0812130605     0.0046167670
   78      C       8.0313858366    -0.3538256319     3.0872164765
   79      C       8.9563011016     0.1193359158     2.1691887523
   80      N      10.5521976795     2.8347209652    -1.1077047684
   81      S      11.6274991481     1.6534723193     0.9298048360
   82      C      11.9610709701     2.9250544484    -1.2429449721
   83      C      12.6666696349     2.3119949908    -0.2675595991
   84      C      -2.4788634731     6.2988058890     0.3624560660
   85      H      -2.3552671977     3.7429057524    -0.4039201162
   86      H      -0.3138118484     2.3136161860    -0.9263963282
   87      H       2.0413582547     5.8308866783     0.0948646912
   88      H       3.5277520779     4.7521240258    -0.9435752646
   89      H       8.1512125954    -0.9572727557     3.9769462764
   90      H      10.0239198568     0.0923117363     2.3530198903
   91      H      12.4628334122     3.3785621537    -2.0876077527
   92      H      13.7439271764     2.3223753534    -0.1715521142
   93      H      -3.2677549986     5.6813720395     0.8097184079
   94      C      -2.9687970274     7.0805249185    -0.8791857790
   95      H      -2.1382309525     7.0620029513     1.0733046645
   96      H      -3.2503078095     6.4182972156    -1.7077068403
   97      H      -2.1711269403     7.7433246487    -1.2366601834
   98      C      -4.1591877035     8.0809786412    -0.5081286582
   99      H      -5.0356534096     7.5152629291    -0.1707526083
  100      C      -4.6470644262     8.9228906962    -1.7024675527
  101      H      -3.8644885069     8.6526316623     0.3804697927
  102      H      -3.8835491825     9.6668521865    -1.9605426846
  103      H      -5.4138884996     9.5628331522    -1.2480740079
  104      C      -5.1749596619     8.1169207153    -2.8902251079
  105      H      -4.3597314817     7.6039445388    -3.4156510843
  106      C      -5.8645017984     9.0467985394    -3.9185095404
  107      H      -5.9208287427     7.3654431960    -2.6040942771
  108      H      -6.7891866819     9.4923710875    -3.5300652452
  109      H      -6.0743243611     8.4539374821    -4.8176993196
  110      H      -5.2242177465     9.8723469869    -4.2516222748
 ----------------------------------------------------------------

    9   -5663.5244986201      8.82E-06 Convergence criterion met
 Total energy in the final basis set = -5663.5244986201

                    Orbital Energies (a.u.)
 --------------------------------------------------------------

 Alpha MOs
 -- Occupied --
-88.987 -88.985 -88.929 -88.926 -88.925 -88.919 -88.916 -88.908
-14.392 -14.390 -14.384 -14.380 -14.351 -14.341 -14.341 -14.337
-14.330 -14.328 -10.269 -10.268 -10.265 -10.261 -10.258 -10.257
-10.256 -10.256 -10.247 -10.241 -10.239 -10.237 -10.237 -10.236
-10.235 -10.234 -10.232 -10.231 -10.230 -10.229 -10.228 -10.228
-10.227 -10.227 -10.225 -10.225 -10.224 -10.223 -10.220 -10.219
-10.217 -10.214 -10.213 -10.209 -10.202 -10.201 -10.197 -10.195
-10.188 -10.185 -10.184 -10.183 -10.182 -10.181 -10.180 -10.179
-10.177 -10.175 -10.172 -10.171  -8.043  -8.040  -7.991  -7.988
 -7.984  -7.978  -7.975  -7.967  -6.008  -6.005  -6.002  -6.001
 -6.000  -5.998  -5.955  -5.952  -5.951  -5.949  -5.948  -5.948
 -5.945  -5.945  -5.943  -5.941  -5.939  -5.939  -5.936  -5.935
 -5.932  -5.932  -5.928  -5.923  -1.048  -1.036  -0.964  -0.964
 -0.953  -0.949  -0.944  -0.933  -0.916  -0.910  -0.907  -0.904
 -0.844  -0.841  -0.827  -0.825  -0.811  -0.808  -0.808  -0.804
 -0.802  -0.800  -0.800  -0.794  -0.783  -0.782  -0.768  -0.768
 -0.751  -0.745  -0.743  -0.738  -0.721  -0.718  -0.711  -0.709
 -0.695  -0.692  -0.677  -0.674  -0.655  -0.649  -0.644  -0.644
 -0.638  -0.631  -0.626  -0.624  -0.614  -0.608  -0.600  -0.597
 -0.594  -0.588  -0.585  -0.584  -0.581  -0.577  -0.576  -0.561
 -0.546  -0.544  -0.543  -0.538  -0.532  -0.520  -0.520  -0.514
 -0.507  -0.504  -0.504  -0.499  -0.488  -0.486  -0.478  -0.477
 -0.473  -0.469  -0.468  -0.466  -0.464  -0.458  -0.448  -0.447
 -0.444  -0.443  -0.441  -0.440  -0.436  -0.433  -0.430  -0.429
 -0.427  -0.425  -0.423  -0.419  -0.418  -0.418  -0.416  -0.413
 -0.412  -0.410  -0.406  -0.404  -0.399  -0.397  -0.396  -0.395
 -0.395  -0.393  -0.391  -0.389  -0.387  -0.384  -0.381  -0.380
 -0.379  -0.377  -0.375  -0.368  -0.367  -0.362  -0.361  -0.358
 -0.356  -0.354  -0.350  -0.349  -0.348  -0.345  -0.344  -0.340
 -0.339  -0.337  -0.335  -0.333  -0.332  -0.331  -0.328  -0.319
 -0.318  -0.317  -0.313  -0.313  -0.308  -0.303  -0.299  -0.298
 -0.296  -0.293  -0.292  -0.291  -0.285  -0.282  -0.280  -0.275
 -0.274  -0.271  -0.267  -0.266  -0.259  -0.254  -0.245  -0.245
 -0.244  -0.237  -0.234  -0.229  -0.194  -0.191

          Ground-State Mulliken Net Atomic Charges

     Atom                 Charge (a.u.)
  ----------------------------------------
      1 C                     0.280423
      2 C                    -0.106285
      3 N                    -0.481054
      4 C                    -0.077462
      5 C                     0.083832
      6 C                     0.000379
      7 C                     0.058587
      8 C                     0.065568
      9 C                     0.238823
     10 N                    -0.538931
     11 N                    -0.565920
     12 C                     0.207787
     13 C                     0.298478
     14 S                     0.619468
     15 N                    -0.567744
     16 C                    -0.225672
     17 S                     0.370520
     18 C                    -0.123745
     19 C                    -0.204101
     20 S                     0.299003
     21 C                     0.128284
     22 C                     0.039733
     23 C                    -0.306691
     24 C                    -0.088046
     25 N                    -0.439178
     26 S                     0.275009
     27 C                     0.132054
     28 C                    -0.311816
     29 C                    -0.244260
     30 H                     0.092168
     31 H                     0.100797
     32 H                     0.125292
     33 H                     0.104925
     34 H                     0.127845
     35 H                     0.128538
     36 H                     0.118425
     37 H                     0.133106
     38 H                     0.116768
     39 C                    -0.192416
     40 H                     0.111294
     41 H                     0.084758
     42 H                     0.095661
     43 C                    -0.173578
     44 H                     0.100122
     45 C                    -0.175540
     46 H                     0.101579
     47 H                     0.089436
     48 H                     0.091932
     49 C                    -0.169610
     50 H                     0.104208
     51 C                    -0.332038
     52 H                     0.105263
     53 H                     0.101279
     54 H                     0.097141
     55 H                     0.099189
     56 C                     0.279990
     57 C                    -0.128759
     58 N                    -0.490568
     59 C                    -0.064028
     60 C                     0.083778
     61 C                     0.009225
     62 C                     0.043255
     63 C                     0.050144
     64 C                     0.276255
     65 N                    -0.493929
     66 N                    -0.586491
     67 C                     0.166467
     68 C                     0.287568
     69 S                     0.628317
     70 N                    -0.534526
     71 C                    -0.237153
     72 S                     0.365847
     73 C                    -0.131205
     74 C                    -0.202352
     75 S                     0.264765
     76 C                     0.151199
     77 C                     0.055240
     78 C                    -0.295639
     79 C                    -0.096020
     80 N                    -0.454324
     81 S                     0.285446
     82 C                     0.118413
     83 C                    -0.304947
     84 C                    -0.222181
     85 H                     0.087914
     86 H                     0.118708
     87 H                     0.110193
     88 H                     0.115198
     89 H                     0.131319
     90 H                     0.105150
     91 H                     0.116231
     92 H                     0.131716
     93 H                     0.101867
     94 C                    -0.181193
     95 H                     0.120906
     96 H                     0.097645
     97 H                     0.111862
     98 C                    -0.186614
     99 H                     0.087256
    100 C                    -0.172027
    101 H                     0.088193
    102 H                     0.092077
    103 H                     0.087744
    104 C                    -0.170949
    105 H                     0.101963
    106 C                    -0.321573
    107 H                     0.096865
    108 H                     0.102964
    109 H                     0.096514
    110 H                     0.102697
  ----------------------------------------
  Sum of atomic charges =     0.000000

                    Cartesian Multipole Moments
 -----------------------------------------------------------------
    Charge (ESU x 10^10)
                 0.0000
    Dipole Moment (Debye)
         X      -2.7993      Y      -3.6549      Z       2.6307
       Tot       5.3023
    Quadrupole Moments (Debye-Ang)
        XX    -359.5563     XY     -15.3375     YY    -432.0492
        XZ       3.3850     YZ      -9.8140     ZZ    -446.5225

 Total job time:  81.50s(wall), 955.39s(cpu)
        *  Thank you very much for using Q-Chem.  Have a nice day.  *
