 Q-Chem 4.4, Q-Chem, Inc., Pleasanton, CA (2016)
 Q-Chem 4.4.2 for Intel X86 Linux

User input:
--------------------------------------------------------------
$comment
SP
$end

$rem
MEM_STATIC 5000
MEM_TOTAL 20000
JOBTYPE SP
EXCHANGE B3LYP
BASIS 6-31g(d,p)
$end

$molecule
0 1
C          13.006000    -19.654000     14.148000
C          13.062000    -18.340000     13.548000
N          14.119000    -20.339000     14.373000
C          14.276000    -17.761000     13.258000
C          15.251000    -19.809000     14.015000
C          15.411000    -18.509000     13.457000
C          16.822000    -18.043000     13.133000
C          17.184000    -16.668000     13.127000
C          17.967000    -18.893000     12.783000
N          18.361000    -16.135000     12.923000
N          17.958000    -20.273000     12.719000
C          19.217000    -18.366000     12.494000
C          19.374000    -16.950000     12.516000
S          19.513000    -20.672000     12.363000
N          20.169000    -19.240000     12.201000
C          20.625000    -16.248000     12.038000
S          22.026000    -17.103000     11.339000
C          20.798000    -14.919000     11.887000
C          22.850000    -15.586000     10.912000
S          19.735000    -13.662000     12.231000
C          22.038000    -14.594000     11.317000
C          23.990000    -15.517000     10.068000
C          20.904000    -12.606000     11.397000
C          22.078000    -13.196000     10.929000
N          24.590000    -14.404000      9.614000
S          24.616000    -16.943000      9.266000
C          25.747000    -14.733000      8.842000
C          25.946000    -16.036000      8.596000
C          11.780000    -20.425000     14.365000
H          12.114000    -17.889000     13.271000
H          14.366000    -16.787000     12.786000
H          16.144000    -20.313000     14.381000
H          16.372000    -16.000000     13.411000
H          20.542000    -11.601000     11.229000
H          22.890000    -12.623000     10.497000
H          26.355000    -13.949000      8.410000
H          26.625000    -16.540000      7.922000
H          10.988000    -19.672000     14.472000
C          11.872000    -21.384000     15.578000
H          11.570000    -20.950000     13.426000
H          12.133000    -20.861000     16.506000
H          12.616000    -22.170000     15.404000
C          10.573000    -22.209000     15.717000
H           9.800000    -21.493000     16.024000
C          10.693000    -23.241000     16.857000
H          10.319000    -22.658000     14.749000
H          11.197000    -22.878000     17.761000
H          11.392000    -24.009000     16.503000
C           9.351000    -23.857000     17.272000
H           8.794000    -23.406000     18.103000
C           9.387000    -25.353000     17.616000
H           8.746000    -23.844000     16.357000
H           9.704000    -25.924000     16.735000
H           8.409000    -25.759000     17.903000
H          10.032000    -25.513000     18.488000
C          29.352000      0.585000      9.414000
C          30.031000     -0.649000      9.399000
N          28.029000      0.680000      9.472000
C          29.304000     -1.824000      9.501000
C          27.289000     -0.416000      9.667000
C          27.881000     -1.764000      9.652000
C          26.974000     -2.982000      9.766000
C          25.874000     -2.956000     10.672000
C          27.074000     -4.145000      8.936000
N          25.083000     -4.019000     10.871000
N          28.123000     -4.360000      8.125000
C          26.146000     -5.172000      9.035000
C          25.162000     -5.120000     10.068000
S          27.781000     -5.700000      7.364000
N          26.397000     -6.179000      8.152000
C          24.183000     -6.142000     10.438000
S          23.332000     -6.076000     11.979000
C          23.593000     -7.155000      9.700000
C          22.464000     -7.581000     11.731000
S          23.794000     -7.544000      7.976000
C          22.662000     -7.910000     10.424000
C          21.605000     -8.169000     12.702000
C          22.557000     -8.795000      8.225000
C          22.090000     -8.860000      9.540000
N          21.184000     -9.400000     12.553000
S          20.811000     -7.255000     13.900000
C          20.307000     -9.759000     13.553000
C          20.034000     -8.727000     14.429000
C          30.190000      1.826000      9.110000
H          31.106000     -0.690000      9.255000
H          29.877000     -2.740000      9.392000
H          26.202000     -0.352000      9.674000
H          25.719000     -2.081000     11.300000
H          22.181000     -9.363000      7.384000
H          21.288000     -9.493000      9.902000
H          19.955000    -10.779000     13.468000
H          19.345000     -8.670000     15.261000
H          29.684000      2.744000      9.433000
C          30.597000      1.973000      7.682000
H          31.066000      1.864000      9.770000
H          29.735000      2.126000      7.021000
H          31.122000      1.061000      7.372000
C          31.676000      2.999000      7.580000
H          31.380000      3.958000      8.023000
C          32.181000      3.170000      6.164000
H          32.573000      2.724000      8.149000
H          32.842000      4.041000      6.075000
H          31.351000      3.230000      5.449000
C          33.066000      2.004000      5.751000
H          33.728000      1.752000      6.589000
C          33.881000      2.388000      4.462000
H          32.403000      1.162000      5.516000
H          33.230000      2.625000      3.611000
H          34.510000      1.549000      4.141000
H          34.608000      3.184000      4.661000
$end

--------------------------------------------------------------

             Standard Nuclear Orientation (Angstroms)
    I     Atom           X                Y                Z
 ----------------------------------------------------------------
    1      C     -12.7012077656     1.9719680417    -1.1377407104
    2      C     -11.4966353609     2.4592705803    -1.7712022781
    3      N     -12.6520256457     0.9484523705    -0.2959475113
    4      C     -10.2765810614     1.9035572344    -1.4617072320
    5      C     -11.5010792175     0.3832277092    -0.0807002079
    6      C     -10.2578171884     0.8153017840    -0.6234483271
    7      C      -9.0048710009     0.0489165455    -0.2286920509
    8      C      -7.7195020302     0.6564207745    -0.2070074758
    9      C      -8.9282959898    -1.3650775686     0.1596144172
   10      N      -6.5773567742     0.1364148006     0.1619532287
   11      N      -9.9980069701    -2.2335173106     0.2601521364
   12      C      -7.7284969130    -1.9750918690     0.4944497926
   13      C      -6.5355169084    -1.1986688215     0.4299908149
   14      S      -9.3315674582    -3.6358802144     0.8016303568
   15      N      -7.7952507173    -3.2540102768     0.8349503589
   16      C      -5.1527937076    -1.7907259549     0.5843731354
   17      S      -4.8492504244    -3.5343848198     0.8078507362
   18      C      -3.9771452729    -1.1587026934     0.3910641734
   19      C      -3.0862605864    -3.3316861351     0.6922044024
   20      S      -3.6866830183     0.4491753759    -0.0073248235
   21      C      -2.8736595203    -2.0174381765     0.5051587124
   22      C      -2.1747211630    -4.4115070380     0.5515640912
   23      C      -1.9885140079    -0.0406552487    -0.2387140444
   24      C      -1.6634722331    -1.3693169617     0.0340603993
   25      N      -0.8500545952    -4.3257475532     0.3447095651
   26      S      -2.7384098891    -6.0584604784     0.3557187819
   27      C      -0.2575016474    -5.6261885856     0.3200493680
   28      C      -1.1037641467    -6.6653535746     0.3636602365
   29      C     -14.0608668870     2.3837087088    -1.4932722794
   30      H     -11.6216697563     3.2100736877    -2.5454729633
   31      H      -9.3492959435     2.2210914769    -1.9295472847
   32      H     -11.4704911546    -0.3232673113     0.7471585702
   33      H      -7.7313785074     1.7158250108    -0.4594864124
   34      H      -1.3696180458     0.7263787570    -0.6835956266
   35      H      -0.6448991900    -1.7388038889     0.0171676021
   36      H       0.8090164820    -5.7365013958     0.1740556576
   37      H      -0.9462512673    -7.7221554839     0.1972498485
   38      H     -13.9522182241     3.3995121581    -1.8958400630
   39      C     -15.0498892822     2.3061159780    -0.3035966640
   40      H     -14.3667457644     1.7569525277    -2.3388849578
   41      H     -14.7136398074     2.8939766504     0.5590678829
   42      H     -15.1958365158     1.2693751103     0.0211736830
   43      C     -16.4749973188     2.6948665735    -0.7566828133
   44      H     -16.4324361791     3.7695295573    -0.9751365167
   45      C     -17.4875262923     2.5205916183     0.3937246440
   46      H     -16.7397083285     2.1290896547    -1.6583288411
   47      H     -17.1311457448     2.8443735881     1.3791987133
   48      H     -17.6019928141     1.4393095049     0.5402422428
   49      C     -18.8400839021     3.1938042276     0.1291160750
   50      H     -19.0067144432     4.2138667031     0.4977864003
   51      C     -20.0727381786     2.4166702407     0.6131348776
   52      H     -18.9575957070     3.1593030585    -0.9610305413
   53      H     -20.1258519068     1.4528454817     0.0926430277
   54      H     -21.0211383693     2.9263128710     0.4022072418
   55      H     -20.0369559666     2.3156083221     1.7042421693
   56      C      13.6627813823     1.7134641878     0.8853373817
   57      C      13.0907213142     0.5185286994     1.3637707178
   58      N      12.9632914130     2.6424231696     0.2446604015
   59      C      11.7291527087     0.3110744526     1.2132660066
   60      C      11.6337356678     2.5351170897     0.1574369784
   61      C      10.9224944550     1.3259224615     0.6044015057
   62      C       9.4210059330     1.2125677859     0.3766913048
   63      C       8.5918892218     2.3540164254     0.5796013404
   64      C       8.7677324248     0.0488379762    -0.1433429764
   65      N       7.2579034948     2.3012939103     0.4657882630
   66      N       9.3968323658    -1.1312439477    -0.2697823575
   67      C       7.4072521942     0.0586998963    -0.4166747979
   68      C       6.6345998288     1.2015224656    -0.0492324252
   69      S       8.3345979299    -2.0890894373    -0.9375210948
   70      N       6.9755191645    -1.1306976077    -0.9223220749
   71      C       5.1836363597     1.3738095562    -0.1188540420
   72      S       4.3762938017     2.6781529428     0.7472431373
   73      C       4.2293247465     0.7849265743    -0.9321308576
   74      C       2.7595785367     2.1949173591     0.2648862958
   75      S       4.4545227043    -0.3881544516    -2.2501083939
   76      C       2.9298295682     1.2556339328    -0.7069445698
   77      C       1.5727866530     2.8374823140     0.7177674098
   78      C       2.7052349240    -0.2480641633    -2.5285648051
   79      C       2.0702310974     0.6254766696    -1.6424296272
   80      N       0.4034524088     2.2831474991     0.5173345323
   81      S       1.5441838489     4.4637023418     1.2233624066
   82      C      -0.6214414300     3.0908570824     0.9591578546
   83      C      -0.1810993313     4.3063018014     1.4446699257
   84      C      15.1882806672     1.7959609688     0.9133946997
   85      H      13.7106837359    -0.2594952640     1.7977837451
   86      H      11.3676409589    -0.6657221247     1.5205829464
   87      H      11.0577911150     3.2707404244    -0.4019020793
   88      H       9.0367250566     3.2820874949     0.9329272100
   89      H       2.2468174443    -0.7493960010    -3.3710615723
   90      H       1.0272651499     0.9191172122    -1.6729953608
   91      H      -1.6014009553     2.6515561486     0.8241651945
   92      H      -0.7321116208     5.1699785498     1.7920053992
   93      H      15.5384310423     2.8314181024     0.8222232162
   94      C      15.8801371215     0.9579567012    -0.1091147105
   95      H      15.5626172751     1.5694872384     1.9198745820
   96      H      15.6635486964     1.2918798308    -1.1313469726
   97      H      15.5424721527    -0.0798617312     0.0021699252
   98      C      17.3272861782     0.8497841241     0.2392806127
   99      H      17.8013120278     1.8325700770     0.3531984112
  100      C      18.0913297904    -0.0304172499    -0.7255016943
  101      H      17.4906081988     0.3758456679     1.2153458038
  102      H      19.1739719717     0.0392369071    -0.5626606500
  103      H      17.8333169199     0.2009307282    -1.7664783855
  104      C      17.7864166028    -1.5014083219    -0.4876714732
  105      H      17.7681366498    -1.6855068264     0.5938855451
  106      C      18.8646898830    -2.3895537621    -1.2099777865
  107      H      16.8031546922    -1.7036960567    -0.9304283902
  108      H      18.8806727570    -2.2277311691    -2.2952100179
  109      H      18.6465285164    -3.4541847989    -1.0631126318
  110      H      19.8573629488    -2.2730704699    -0.7596691956
 ----------------------------------------------------------------

   10   -5663.5240103089      4.37E-06 Convergence criterion met
 Total energy in the final basis set = -5663.5240103089

                    Orbital Energies (a.u.)
 --------------------------------------------------------------

 Alpha MOs
 -- Occupied --
-88.992 -88.991 -88.926 -88.917 -88.916 -88.913 -88.910 -88.908
-14.390 -14.387 -14.386 -14.383 -14.353 -14.350 -14.340 -14.339
-14.331 -14.322 -10.268 -10.268 -10.268 -10.264 -10.261 -10.261
-10.259 -10.255 -10.241 -10.241 -10.240 -10.238 -10.236 -10.235
-10.234 -10.233 -10.232 -10.231 -10.231 -10.229 -10.229 -10.228
-10.227 -10.225 -10.225 -10.224 -10.223 -10.219 -10.217 -10.216
-10.211 -10.211 -10.206 -10.205 -10.203 -10.197 -10.196 -10.195
-10.186 -10.180 -10.180 -10.178 -10.177 -10.176 -10.175 -10.175
-10.174 -10.174 -10.171 -10.168  -8.048  -8.047  -7.988  -7.977
 -7.976  -7.975  -7.970  -7.968  -6.013  -6.012  -6.008  -6.006
 -6.006  -6.005  -5.952  -5.949  -5.945  -5.941  -5.940  -5.939
 -5.938  -5.936  -5.936  -5.934  -5.934  -5.933  -5.932  -5.932
 -5.931  -5.929  -5.926  -5.925  -1.049  -1.049  -0.976  -0.965
 -0.957  -0.954  -0.952  -0.942  -0.917  -0.914  -0.908  -0.906
 -0.842  -0.842  -0.834  -0.829  -0.822  -0.815  -0.809  -0.808
 -0.807  -0.803  -0.798  -0.793  -0.788  -0.786  -0.770  -0.769
 -0.752  -0.751  -0.743  -0.740  -0.720  -0.716  -0.712  -0.710
 -0.694  -0.692  -0.678  -0.677  -0.656  -0.654  -0.647  -0.645
 -0.636  -0.634  -0.628  -0.625  -0.611  -0.609  -0.602  -0.596
 -0.593  -0.587  -0.585  -0.582  -0.578  -0.577  -0.570  -0.566
 -0.557  -0.551  -0.542  -0.541  -0.525  -0.524  -0.518  -0.513
 -0.508  -0.508  -0.499  -0.498  -0.488  -0.488  -0.480  -0.478
 -0.473  -0.473  -0.472  -0.471  -0.467  -0.464  -0.458  -0.453
 -0.446  -0.445  -0.439  -0.434  -0.433  -0.433  -0.431  -0.430
 -0.428  -0.427  -0.424  -0.423  -0.419  -0.418  -0.415  -0.413
 -0.413  -0.412  -0.408  -0.403  -0.400  -0.400  -0.396  -0.395
 -0.394  -0.393  -0.391  -0.391  -0.388  -0.388  -0.385  -0.384
 -0.380  -0.378  -0.373  -0.367  -0.366  -0.364  -0.363  -0.358
 -0.357  -0.351  -0.351  -0.350  -0.348  -0.346  -0.346  -0.343
 -0.340  -0.333  -0.333  -0.331  -0.330  -0.328  -0.327  -0.315
 -0.314  -0.313  -0.311  -0.309  -0.307  -0.306  -0.305  -0.302
 -0.301  -0.299  -0.295  -0.292  -0.287  -0.282  -0.280  -0.278
 -0.272  -0.268  -0.266  -0.265  -0.255  -0.254  -0.249  -0.249
 -0.243  -0.240  -0.232  -0.226  -0.195  -0.193

          Ground-State Mulliken Net Atomic Charges

     Atom                 Charge (a.u.)
  ----------------------------------------
      1 C                     0.263888
      2 C                    -0.133998
      3 N                    -0.467775
      4 C                    -0.066155
      5 C                     0.097800
      6 C                     0.034987
      7 C                     0.046182
      8 C                     0.055171
      9 C                     0.204489
     10 N                    -0.521169
     11 N                    -0.555919
     12 C                     0.220643
     13 C                     0.299736
     14 S                     0.610458
     15 N                    -0.546610
     16 C                    -0.233671
     17 S                     0.306805
     18 C                    -0.073172
     19 C                    -0.210134
     20 S                     0.277162
     21 C                     0.111359
     22 C                     0.070052
     23 C                    -0.307371
     24 C                    -0.059023
     25 N                    -0.464256
     26 S                     0.247248
     27 C                     0.114200
     28 C                    -0.295018
     29 C                    -0.227805
     30 H                     0.087782
     31 H                     0.101825
     32 H                     0.111047
     33 H                     0.097885
     34 H                     0.135046
     35 H                     0.146511
     36 H                     0.114826
     37 H                     0.139256
     38 H                     0.093647
     39 C                    -0.165996
     40 H                     0.123649
     41 H                     0.096679
     42 H                     0.121153
     43 C                    -0.184081
     44 H                     0.090454
     45 C                    -0.173892
     46 H                     0.092277
     47 H                     0.092506
     48 H                     0.093494
     49 C                    -0.180350
     50 H                     0.095179
     51 C                    -0.320114
     52 H                     0.094067
     53 H                     0.100456
     54 H                     0.096040
     55 H                     0.098475
     56 C                     0.263913
     57 C                    -0.103032
     58 N                    -0.472298
     59 C                    -0.062076
     60 C                     0.079590
     61 C                     0.003337
     62 C                     0.005963
     63 C                     0.072075
     64 C                     0.207750
     65 N                    -0.519634
     66 N                    -0.518782
     67 C                     0.247394
     68 C                     0.291445
     69 S                     0.609221
     70 N                    -0.573630
     71 C                    -0.231726
     72 S                     0.305288
     73 C                    -0.126615
     74 C                    -0.219086
     75 S                     0.288832
     76 C                     0.180586
     77 C                     0.064913
     78 C                    -0.311521
     79 C                    -0.066875
     80 N                    -0.445991
     81 S                     0.282430
     82 C                     0.128446
     83 C                    -0.319856
     84 C                    -0.232206
     85 H                     0.092371
     86 H                     0.111090
     87 H                     0.106849
     88 H                     0.119419
     89 H                     0.129865
     90 H                     0.110681
     91 H                     0.118729
     92 H                     0.136381
     93 H                     0.109997
     94 C                    -0.156507
     95 H                     0.098291
     96 H                     0.108283
     97 H                     0.096010
     98 C                    -0.180257
     99 H                     0.086537
    100 C                    -0.166488
    101 H                     0.087346
    102 H                     0.085703
    103 H                     0.089827
    104 C                    -0.175643
    105 H                     0.088644
    106 C                    -0.325679
    107 H                     0.098207
    108 H                     0.106332
    109 H                     0.096487
    110 H                     0.103743
  ----------------------------------------
  Sum of atomic charges =     0.000000

                    Cartesian Multipole Moments
 -----------------------------------------------------------------
    Charge (ESU x 10^10)
                 0.0000
    Dipole Moment (Debye)
         X       0.5852      Y      -1.2886      Z      -1.6340
       Tot       2.1617
    Quadrupole Moments (Debye-Ang)
        XX    -422.1499     XY     -42.0607     YY    -417.5632
        XZ      17.5984     YZ       1.4262     ZZ    -443.2066

 Total job time:  88.22s(wall), 1044.63s(cpu)
        *  Thank you very much for using Q-Chem.  Have a nice day.  *
