 Q-Chem 4.4, Q-Chem, Inc., Pleasanton, CA (2016)
 Q-Chem 4.4.2 for Intel X86 Linux

User input:
--------------------------------------------------------------
$comment
SP
$end

$rem
MEM_STATIC 5000
MEM_TOTAL 20000
JOBTYPE SP
EXCHANGE B3LYP
BASIS 6-31g(d,p)
$end

$molecule
0 1
C          17.228000      4.209000     13.021000
C          17.028000      2.878000     12.859000
N          18.422000      4.719000     13.350000
C          18.104000      1.971000     12.931000
C          19.532000      3.911000     13.337000
C          19.446000      2.507000     13.159000
C          20.718000      1.654000     13.200000
C          20.693000      0.423000     13.847000
C          21.969000      2.104000     12.637000
N          21.798000     -0.280000     14.056000
N          22.220000      3.223000     11.963000
C          23.131000      1.275000     12.800000
C          22.993000      0.063000     13.491000
S          23.798000      3.088000     11.489000
N          24.233000      1.620000     12.118000
C          24.066000     -0.950000     13.723000
S          25.773000     -0.659000     13.660000
C          23.858000     -2.223000     14.142000
C          26.273000     -2.247000     14.133000
S          22.434000     -3.173000     14.463000
C          25.089000     -2.965000     14.276000
C          27.615000     -2.753000     14.207000
C          23.494000     -4.564000     14.880000
C          24.882000     -4.290000     14.686000
N          27.849000     -3.929000     14.793000
S          28.924000     -2.066000     13.324000
C          29.161000     -4.319000     14.541000
C          29.928000     -3.405000     13.806000
C          16.086000      5.191000     12.782000
H          16.012000      2.502000     12.777000
H          17.936000      0.899000     12.877000
H          20.467000      4.422000     13.564000
H          19.807000     -0.043000     14.275000
H          22.992000     -5.467000     15.199000
H          25.583000     -5.019000     15.077000
H          29.544000     -5.238000     14.965000
H          30.947000     -3.589000     13.493000
H          15.226000      4.693000     13.248000
C          15.863000      5.460000     11.305000
H          16.092000      6.162000     13.292000
H          14.889000      5.944000     11.171000
H          15.867000      4.478000     10.815000
C          16.994000      6.274000     10.694000
H          17.070000      7.242000     11.205000
C          16.873000      6.512000      9.109000
H          17.960000      5.796000     10.899000
H          16.728000      5.483000      8.757000
H          17.798000      6.964000      8.730000
C          15.670000      7.378000      8.759000
H          14.689000      7.031000      9.107000
C          15.637000      7.780000      7.261000
H          15.866000      8.306000      9.309000
H          14.739000      8.345000      6.982000
H          15.562000      6.877000      6.644000
H          16.479000      8.443000      7.027000
C          29.352000      0.585000      9.414000
C          30.031000     -0.649000      9.399000
N          28.029000      0.680000      9.472000
C          29.304000     -1.824000      9.501000
C          27.289000     -0.416000      9.667000
C          27.881000     -1.764000      9.652000
C          26.974000     -2.982000      9.766000
C          25.874000     -2.956000     10.672000
C          27.074000     -4.145000      8.936000
N          25.083000     -4.019000     10.871000
N          28.123000     -4.360000      8.125000
C          26.146000     -5.172000      9.035000
C          25.162000     -5.120000     10.068000
S          27.781000     -5.700000      7.364000
N          26.397000     -6.179000      8.152000
C          24.183000     -6.142000     10.438000
S          23.332000     -6.076000     11.979000
C          23.593000     -7.155000      9.700000
C          22.464000     -7.581000     11.731000
S          23.794000     -7.544000      7.976000
C          22.662000     -7.910000     10.424000
C          21.605000     -8.169000     12.702000
C          22.557000     -8.795000      8.225000
C          22.090000     -8.860000      9.540000
N          21.184000     -9.400000     12.553000
S          20.811000     -7.255000     13.900000
C          20.307000     -9.759000     13.553000
C          20.034000     -8.727000     14.429000
C          30.190000      1.826000      9.110000
H          31.106000     -0.690000      9.255000
H          29.877000     -2.740000      9.392000
H          26.202000     -0.352000      9.674000
H          25.719000     -2.081000     11.300000
H          22.181000     -9.363000      7.384000
H          21.288000     -9.493000      9.902000
H          19.955000    -10.779000     13.468000
H          19.345000     -8.670000     15.261000
H          29.684000      2.744000      9.433000
C          30.597000      1.973000      7.682000
H          31.066000      1.864000      9.770000
H          29.735000      2.126000      7.021000
H          31.122000      1.061000      7.372000
C          31.676000      2.999000      7.580000
H          31.380000      3.958000      8.023000
C          32.181000      3.170000      6.164000
H          32.573000      2.724000      8.149000
H          32.842000      4.041000      6.075000
H          31.351000      3.230000      5.449000
C          33.066000      2.004000      5.751000
H          33.728000      1.752000      6.589000
C          33.881000      2.388000      4.462000
H          32.403000      1.162000      5.516000
H          33.230000      2.625000      3.611000
H          34.510000      1.549000      4.141000
H          34.608000      3.184000      4.661000
$end

--------------------------------------------------------------

             Standard Nuclear Orientation (Angstroms)
    I     Atom           X                Y                Z
 ----------------------------------------------------------------
    1      C       9.1299187283     0.9731245931     0.4486574062
    2      C       8.3261373092     1.9647617256    -0.0078469506
    3      N       8.6760587306    -0.0122255003     1.2341975363
    4      C       6.9398491957     1.9456725150     0.2440456224
    5      C       7.3251506526    -0.1514718150     1.4361649312
    6      C       6.3879431947     0.8137343357     0.9885989949
    7      C       4.8969375813     0.6233755161     1.2851454172
    8      C       4.1293242502     1.7228697271     1.6545736968
    9      C       4.2611136832    -0.6723802488     1.2502890225
   10      N       2.8799484822     1.5926100878     2.0800235960
   11      N       4.7875406733    -1.8453080302     0.9088903643
   12      C       2.8784156772    -0.7672138278     1.6287157877
   13      C       2.2090273780     0.4054936335     2.0057376905
   14      S       3.5223812356    -2.9083498523     0.9568349320
   15      N       2.2616958501    -1.9389452149     1.4159830648
   16      C       0.7689060858     0.5185958317     2.3859751906
   17      S      -0.2448700153    -0.7751768941     2.9345270576
   18      C       0.0761904421     1.6810349385     2.4767185648
   19      C      -1.6526692417     0.1814671258     3.2482252524
   20      S       0.4591506497     3.3463821499     2.1401518628
   21      C      -1.2980237685     1.4723046379     2.8663953092
   22      C      -2.9478106082    -0.2818813294     3.6610121827
   23      C      -1.2144372077     3.7955895006     2.6194079945
   24      C      -2.0286854565     2.6670162806     2.9396864301
   25      N      -3.8674384604     0.5955396281     4.0678844930
   26      S      -3.4953937103    -1.8919500290     3.3908816053
   27      C      -5.0969647278    -0.0451357769     4.1893265904
   28      C      -5.0858019417    -1.4206971408     3.9217143218
   29      C      10.5965473652     0.9222851174     0.0338986945
   30      H       8.7748682278     2.8331846800    -0.4820179482
   31      H       6.3059318521     2.7758021986    -0.0548816428
   32      H       7.0440910887    -1.0114217449     2.0430970853
   33      H       4.4802819983     2.7531762342     1.6797363778
   34      H      -1.4522301558     4.8499602170     2.5888972388
   35      H      -2.9895682130     2.8724582477     3.3981849868
   36      H      -5.9612216069     0.5031112038     4.5407683284
   37      H      -5.9710182907    -2.0424117266     3.9287135630
   38      H      10.9110374846     1.9719882234     0.0969808164
   39      C      10.7767716324     0.3514963748    -1.3608551995
   40      H      11.3258818312     0.4254654341     0.6852192292
   41      H      11.7891296536     0.5782782387    -1.7138271859
   42      H      10.0349245668     0.8567782716    -1.9923559010
   43      C      10.4742197992    -1.1387358386    -1.4132797967
   44      H      11.1519778745    -1.6769747614    -0.7388438446
   45      C      10.5484935054    -1.7902143875    -2.8807841807
   46      H       9.4796521070    -1.3394905722    -0.9959098858
   47      H       9.8949078348    -1.1100211352    -3.4410813436
   48      H      10.1656288868    -2.8178609334    -2.8503332282
   49      C      11.9651050416    -1.7616910920    -3.4394103321
   50      H      12.4573390549    -0.7828291570    -3.4977968755
   51      C      12.1010245826    -2.5512742193    -4.7678610701
   52      H      12.5343303341    -2.3335187427    -2.6970521272
   53      H      13.0997512648    -2.4797484255    -5.2160787350
   54      H      11.4559901725    -2.0963669904    -5.5285929696
   55      H      11.9402011586    -3.6219427994    -4.5915272452
   56      C      -2.3889164415    -5.3866715791     0.3806134544
   57      C      -3.7314803579    -4.9609323546     0.3635769329
   58      N      -1.3788358219    -4.6031585125     0.0220574390
   59      C      -4.0236381990    -3.6537697222     0.0092781205
   60      C      -1.5963373576    -3.3097000553    -0.2358171459
   61      C      -2.9566871733    -2.7503319063    -0.3017614616
   62      C      -3.1499251779    -1.2962966260    -0.7111628260
   63      C      -2.2510744972    -0.3038732001    -0.2226188695
   64      C      -4.1239332690    -0.8461135117    -1.6599053633
   65      N      -2.4090002933     1.0000522931    -0.4873616713
   66      N      -5.1077074429    -1.6417178544    -2.1110695292
   67      C      -4.1708910235     0.4831947277    -2.0554411692
   68      C      -3.3219106752     1.4299361237    -1.4066252498
   69      S      -5.8841459510    -0.7672975983    -3.1713607434
   70      N      -5.1491247623     0.7117058668    -2.9760824738
   71      C      -3.2989370658     2.8838333883    -1.5662496758
   72      S      -2.4776175576     3.9176879207    -0.4001377295
   73      C      -3.6692481435     3.6948304213    -2.6264697087
   74      C      -2.9389455478     5.4181034198    -1.1849197473
   75      S      -4.2755329250     3.2274910681    -4.2320570445
   76      C      -3.4546575333     5.0588846431    -2.3935127386
   77      C      -2.6313858264     6.7087373013    -0.6690348747
   78      C      -4.2428443723     4.9590562226    -4.6292781093
   79      C      -3.8101577559     5.7631017969    -3.5720023617
   80      N      -3.2074505107     7.7740391362    -1.1671156713
   81      S      -1.2979773062     6.9966818589     0.3508404363
   82      C      -2.7243382947     8.9272964826    -0.5886607640
   83      C      -1.7138809084     8.6927348557     0.3228685628
   84      C      -2.1520157169    -6.8808218896     0.5954014811
   85      H      -4.5378373023    -5.6570475560     0.5715531446
   86      H      -5.0800452027    -3.4156650510    -0.0718169347
   87      H      -0.7807764723    -2.6706153892    -0.5706980680
   88      H      -1.4613537566    -0.5913474841     0.4685639486
   89      H      -4.4662520943     5.2905973724    -5.6349870413
   90      H      -3.6424565650     6.8332818988    -3.6110902115
   91      H      -3.1951203316     9.8256203069    -0.9666919537
   92      H      -1.0929192696     9.3799017617     0.8817981528
   93      H      -1.1177512258    -7.0863985215     0.8972693511
   94      C      -2.4976958218    -7.7442631361    -0.5713960501
   95      H      -2.6724004734    -7.2219615222     1.4994166669
   96      H      -1.8542638859    -7.5448136248    -1.4371842669
   97      H      -3.5397880688    -7.5501443084    -0.8539391962
   98      C      -2.5587603478    -9.1685449793    -0.1297928858
   99      H      -1.6313009851    -9.4915893134     0.3590910358
  100      C      -2.9558135079   -10.1057863099    -1.2492791413
  101      H      -3.3222847915    -9.3378746904     0.6398517549
  102      H      -2.8272487739   -11.1559963078    -0.9594290603
  103      H      -2.4058924118    -9.8809887504    -2.1716553364
  104      C      -4.4414756506    -9.9974509300    -1.5565598653
  105      H      -4.9923791003    -9.9401151294    -0.6093481703
  106      C      -4.8955648196   -11.2317062308    -2.4188932573
  107      H      -4.5846577507    -9.0810183405    -2.1425702705
  108      H      -4.3643606216   -11.2901331885    -3.3773187320
  109      H      -5.9617133880   -11.1573118980    -2.6646486509
  110      H      -4.8338064946   -12.1690762824    -1.8538540590
 ----------------------------------------------------------------

   10   -5663.5329549708      4.33E-06 Convergence criterion met
 Total energy in the final basis set = -5663.5329549708

                    Orbital Energies (a.u.)
 --------------------------------------------------------------

 Alpha MOs
 -- Occupied --
-88.990 -88.986 -88.927 -88.926 -88.919 -88.912 -88.907 -88.905
-14.394 -14.388 -14.388 -14.383 -14.346 -14.345 -14.341 -14.337
-14.329 -14.326 -10.267 -10.264 -10.263 -10.263 -10.263 -10.258
-10.257 -10.256 -10.238 -10.237 -10.237 -10.236 -10.235 -10.233
-10.232 -10.232 -10.232 -10.231 -10.230 -10.230 -10.228 -10.227
-10.227 -10.225 -10.225 -10.224 -10.224 -10.223 -10.222 -10.221
-10.220 -10.209 -10.206 -10.201 -10.197 -10.196 -10.192 -10.191
-10.181 -10.180 -10.180 -10.178 -10.178 -10.175 -10.175 -10.174
-10.174 -10.171 -10.169 -10.169  -8.046  -8.041  -7.989  -7.987
 -7.979  -7.972  -7.967  -7.964  -6.011  -6.006  -6.005  -6.004
 -6.001  -5.999  -5.953  -5.951  -5.949  -5.948  -5.946  -5.945
 -5.944  -5.940  -5.936  -5.936  -5.932  -5.931  -5.929  -5.928
 -5.928  -5.925  -5.923  -5.921  -1.047  -1.038  -0.975  -0.962
 -0.956  -0.953  -0.940  -0.932  -0.916  -0.911  -0.909  -0.905
 -0.839  -0.837  -0.827  -0.823  -0.822  -0.808  -0.807  -0.805
 -0.805  -0.804  -0.796  -0.792  -0.787  -0.782  -0.768  -0.767
 -0.750  -0.747  -0.738  -0.737  -0.717  -0.715  -0.709  -0.703
 -0.692  -0.690  -0.676  -0.674  -0.652  -0.651  -0.642  -0.642
 -0.634  -0.634  -0.624  -0.623  -0.611  -0.610  -0.601  -0.594
 -0.594  -0.589  -0.586  -0.581  -0.579  -0.575  -0.566  -0.555
 -0.554  -0.547  -0.539  -0.539  -0.522  -0.521  -0.516  -0.509
 -0.506  -0.505  -0.499  -0.497  -0.486  -0.486  -0.478  -0.477
 -0.472  -0.471  -0.470  -0.468  -0.466  -0.460  -0.457  -0.450
 -0.447  -0.445  -0.438  -0.435  -0.433  -0.432  -0.431  -0.429
 -0.427  -0.426  -0.424  -0.422  -0.420  -0.416  -0.413  -0.412
 -0.411  -0.407  -0.403  -0.399  -0.399  -0.397  -0.396  -0.394
 -0.393  -0.392  -0.390  -0.389  -0.389  -0.386  -0.383  -0.381
 -0.377  -0.374  -0.373  -0.371  -0.366  -0.361  -0.360  -0.356
 -0.351  -0.350  -0.349  -0.347  -0.346  -0.343  -0.342  -0.340
 -0.340  -0.333  -0.332  -0.330  -0.328  -0.322  -0.321  -0.318
 -0.314  -0.313  -0.312  -0.309  -0.304  -0.303  -0.302  -0.297
 -0.296  -0.294  -0.291  -0.289  -0.284  -0.281  -0.279  -0.278
 -0.271  -0.269  -0.269  -0.264  -0.253  -0.251  -0.247  -0.245
 -0.241  -0.238  -0.230  -0.226  -0.192  -0.190

          Ground-State Mulliken Net Atomic Charges

     Atom                 Charge (a.u.)
  ----------------------------------------
      1 C                     0.278556
      2 C                    -0.103415
      3 N                    -0.482901
      4 C                    -0.082263
      5 C                     0.077153
      6 C                     0.020575
      7 C                     0.027006
      8 C                     0.064769
      9 C                     0.257310
     10 N                    -0.509402
     11 N                    -0.555089
     12 C                     0.186209
     13 C                     0.288432
     14 S                     0.602531
     15 N                    -0.541035
     16 C                    -0.234452
     17 S                     0.296213
     18 C                    -0.066529
     19 C                    -0.213961
     20 S                     0.272068
     21 C                     0.128017
     22 C                     0.055204
     23 C                    -0.315856
     24 C                    -0.052682
     25 N                    -0.432327
     26 S                     0.289650
     27 C                     0.112011
     28 C                    -0.311044
     29 C                    -0.220618
     30 H                     0.091585
     31 H                     0.102089
     32 H                     0.117106
     33 H                     0.118039
     34 H                     0.133663
     35 H                     0.133836
     36 H                     0.114687
     37 H                     0.132239
     38 H                     0.088472
     39 C                    -0.172293
     40 H                     0.111888
     41 H                     0.095409
     42 H                     0.089764
     43 C                    -0.182512
     44 H                     0.087197
     45 C                    -0.170597
     46 H                     0.107067
     47 H                     0.088686
     48 H                     0.092654
     49 C                    -0.173214
     50 H                     0.093588
     51 C                    -0.319393
     52 H                     0.092483
     53 H                     0.095202
     54 H                     0.102085
     55 H                     0.103662
     56 C                     0.265454
     57 C                    -0.105964
     58 N                    -0.475618
     59 C                    -0.060997
     60 C                     0.085850
     61 C                     0.002467
     62 C                     0.006785
     63 C                     0.079149
     64 C                     0.206817
     65 N                    -0.525445
     66 N                    -0.519710
     67 C                     0.246116
     68 C                     0.292895
     69 S                     0.605555
     70 N                    -0.574327
     71 C                    -0.247777
     72 S                     0.343810
     73 C                    -0.126275
     74 C                    -0.236025
     75 S                     0.285097
     76 C                     0.182416
     77 C                     0.058750
     78 C                    -0.311437
     79 C                    -0.066080
     80 N                    -0.434797
     81 S                     0.268383
     82 C                     0.125260
     83 C                    -0.319667
     84 C                    -0.231743
     85 H                     0.089748
     86 H                     0.108662
     87 H                     0.110566
     88 H                     0.125617
     89 H                     0.126279
     90 H                     0.112062
     91 H                     0.118230
     92 H                     0.134353
     93 H                     0.109057
     94 C                    -0.156701
     95 H                     0.097227
     96 H                     0.108189
     97 H                     0.095920
     98 C                    -0.179640
     99 H                     0.086252
    100 C                    -0.166601
    101 H                     0.086853
    102 H                     0.085669
    103 H                     0.089850
    104 C                    -0.175612
    105 H                     0.088256
    106 C                    -0.325606
    107 H                     0.098365
    108 H                     0.106466
    109 H                     0.096394
    110 H                     0.103678
  ----------------------------------------
  Sum of atomic charges =     0.000000

                    Cartesian Multipole Moments
 -----------------------------------------------------------------
    Charge (ESU x 10^10)
                 0.0000
    Dipole Moment (Debye)
         X      -2.5935      Y       0.5639      Z      -1.2855
       Tot       2.9490
    Quadrupole Moments (Debye-Ang)
        XX    -428.6096     XY      32.8396     YY    -403.9688
        XZ     -10.9466     YZ      -4.2414     ZZ    -447.8265

 Total job time:  96.49s(wall), 1144.48s(cpu)
        *  Thank you very much for using Q-Chem.  Have a nice day.  *
