 Q-Chem 4.4, Q-Chem, Inc., Pleasanton, CA (2016)
 Q-Chem 4.4.2 for Intel X86 Linux

User input:
--------------------------------------------------------------
$comment
SP
$end

$rem
MEM_STATIC 5000
MEM_TOTAL 20000
JOBTYPE SP
EXCHANGE B3LYP
BASIS 6-31g(d,p)
$end

$molecule
0 1
C         -15.151000     14.807000      8.953000
C         -14.488000     15.459000      7.901000
N         -16.344000     15.245000      9.404000
C         -15.027000     16.618000      7.274000
C         -16.926000     16.281000      8.670000
C         -16.329000     17.007000      7.625000
C         -16.983000     18.123000      6.985000
C         -18.354000     18.060000      6.587000
C         -16.308000     19.384000      6.634000
N         -19.015000     19.044000      5.826000
N         -15.097000     19.665000      7.032000
C         -16.953000     20.315000      5.839000
C         -18.275000     20.144000      5.463000
S         -14.816000     21.152000      6.370000
N         -16.187000     21.365000      5.503000
C         -18.941000     21.217000      4.669000
S         -18.641000     23.003000      4.691000
C         -19.633000     20.895000      3.513000
C         -19.692000     23.286000      3.317000
S         -19.691000     19.442000      2.718000
C         -20.044000     22.029000      2.788000
C         -19.895000     24.585000      2.577000
C         -20.285000     20.329000      1.290000
C         -20.452000     21.645000      1.466000
N         -20.614000     24.733000      1.447000
S         -19.487000     26.103000      3.434000
C         -20.545000     25.991000      1.049000
C         -20.042000     26.859000      2.008000
C         -14.559000     13.587000      9.775000
H         -13.485000     15.172000      7.599000
H         -14.436000     17.154000      6.537000
H         -17.909000     16.644000      8.966000
H         -18.879000     17.132000      6.808000
H         -20.537000     19.778000      0.394000
H         -20.687000     22.334000      0.663000
H         -20.846000     26.222000      0.035000
H         -20.083000     27.931000      1.863000
H         -13.563000     13.353000      9.379000
C         -15.442000     12.274000      9.763000
H         -14.299000     13.828000     10.813000
H         -14.726000     11.445000      9.701000
H         -15.872000     12.163000      8.760000
C         -16.386000     12.120000     10.888000
H         -16.930000     13.064000     11.016000
C         -15.635000     11.661000     12.197000
H         -17.207000     11.427000     10.664000
H         -14.650000     12.122000     12.345000
H         -15.318000     10.613000     12.131000
C         -16.410000     11.709000     13.425000
H         -16.821000     12.697000     13.666000
C         -15.603000     11.280000     14.674000
H         -17.243000     11.018000     13.247000
H         -15.476000     10.192000     14.715000
H         -16.082000     11.526000     15.630000
H         -14.590000     11.699000     14.673000
C         -17.766000     15.119000      3.187000
C         -17.143000     14.027000      2.587000
N         -17.291000     16.401000      2.988000
C         -16.068000     14.248000      1.739000
C         -16.184000     16.586000      2.224000
C         -15.575000     15.532000      1.551000
C         -14.459000     15.737000      0.665000
C         -13.169000     16.049000      1.111000
C         -14.642000     15.808000     -0.718000
N         -12.106000     16.288000      0.356000
N         -15.803000     15.418000     -1.336000
C         -13.576000     16.218000     -1.506000
C         -12.261000     16.496000     -0.940000
S         -15.407000     15.641000     -2.902000
N         -13.885000     16.150000     -2.838000
C         -11.095000     16.818000     -1.735000
S         -11.047000     17.480000     -3.384000
C          -9.836000     17.067000     -1.182000
C          -9.348000     17.985000     -3.321000
S          -9.173000     16.627000      0.425000
C          -8.932000     17.594000     -2.072000
C          -8.581000     18.567000     -4.412000
C          -7.618000     17.239000     -0.200000
C          -7.659000     17.806000     -1.453000
N          -7.300000     18.316000     -4.352000
S          -9.247000     19.552000     -5.720000
C          -6.742000     18.797000     -5.531000
C          -7.631000     19.400000     -6.368000
C         -18.878000     14.786000      4.148000
H         -17.528000     13.015000      2.676000
H         -15.717000     13.363000      1.217000
H         -15.883000     17.618000      2.052000
H         -12.950000     16.010000      2.177000
H          -6.821000     17.127000      0.524000
H          -6.795000     18.233000     -1.951000
H          -5.673000     18.683000     -5.649000
H          -7.360000     19.781000     -7.344000
H         -19.228000     15.746000      4.549000
C         -18.416000     13.884000      5.234000
H         -19.679000     14.275000      3.601000
H         -17.465000     14.322000      5.560000
H         -18.178000     12.884000      4.850000
C         -19.311000     13.822000      6.466000
H         -19.366000     14.831000      6.893000
C         -18.797000     12.895000      7.557000
H         -20.338000     13.603000      6.150000
H         -17.791000     13.237000      7.830000
H         -18.737000     11.866000      7.181000
C         -19.786000     12.906000      8.779000
H         -19.202000     12.613000      9.659000
C         -21.107000     12.072000      8.602000
H         -20.034000     13.957000      8.976000
H         -21.629000     12.264000      9.548000
H         -20.980000     10.987000      8.503000
H         -21.815000     12.518000      7.893000
$end

--------------------------------------------------------------

             Standard Nuclear Orientation (Angstroms)
    I     Atom           X                Y                Z
 ----------------------------------------------------------------
    1      C      -5.3097659828     3.3927619889    -1.7764475722
    2      C      -3.9610802828     3.0716773888    -1.9985479150
    3      N      -6.2119333168     2.4398990910    -1.4655771827
    4      C      -3.4837131144     1.7323145025    -1.9267242057
    5      C      -5.6920437828     1.1628199559    -1.2429569789
    6      C      -4.3683481997     0.7455250831    -1.4647789626
    7      C      -3.9478883327    -0.6236218354    -1.2875158371
    8      C      -4.3337619510    -1.3831625774    -0.1402523922
    9      C      -3.0558635153    -1.3393156523    -2.2154280559
   10      N      -3.8423869979    -2.6647967910     0.1763899894
   11      N      -2.7087015341    -0.8471850794    -3.3735178875
   12      C      -2.5385013299    -2.5733816990    -1.8629676167
   13      C      -2.9391110751    -3.2139743817    -0.7021688198
   14      S      -1.7147928472    -2.0099444602    -3.9968237069
   15      N      -1.6543652717    -3.0632730072    -2.7464051848
   16      C      -2.4049935790    -4.5762706144    -0.4120163173
   17      S      -1.9119481551    -5.8771926305    -1.5716663153
   18      C      -1.8612718573    -4.8568407261     0.8307753393
   19      C      -1.2501211909    -6.8840992911    -0.2986030622
   20      S      -1.5186262402    -3.8066395951     2.0661981680
   21      C      -1.2413386831    -6.1191216273     0.8839898692
   22      C      -0.4777027937    -8.1697448141    -0.4619903587
   23      C      -0.4559432169    -5.0665188855     2.7460495969
   24      C      -0.4255003847    -6.2159731532     2.0615431176
   25      N       0.1244182720    -8.8481098760     0.5345215907
   26      S      -0.6790312431    -9.0719204720    -1.9952166752
   27      C       0.7433367403    -9.9016231126     0.0317504799
   28      C       0.3758524000   -10.2022825987    -1.2723481104
   29      C      -5.9346869512     4.8392317574    -1.9546244287
   30      H      -3.2507084752     3.8169354606    -2.3442997065
   31      H      -2.4579456967     1.5118468105    -2.2076889752
   32      H      -6.3719296680     0.3651986860    -0.9476105842
   33      H      -4.9736418799    -0.8773281674     0.5810902630
   34      H       0.0514864374    -4.8794908320     3.6827761596
   35      H       0.2610364030    -7.0264014443     2.2774788122
   36      H       1.4803173528   -10.4016515043     0.6473714544
   37      H       0.6900158999   -11.1273375598    -1.7386791239
   38      H      -5.1389284901     5.5236601222    -2.2738645970
   39      C      -6.6413740148     5.4315399976    -0.6687137231
   40      H      -6.6184014968     4.9318284343    -2.8073173837
   41      H      -6.3871344910     6.4988220661    -0.6652136211
   42      H      -6.0482969915     5.1433997833     0.2079075528
   43      C      -8.0959047936     5.1986597865    -0.5658350533
   44      H      -8.2937221461     4.1408536927    -0.7788387221
   45      C      -8.8930219340     6.1759495807    -1.5132905524
   46      H      -8.4699459009     5.2849034860     0.4623289776
   47      H      -8.4176312086     6.3600189772    -2.4852844390
   48      H      -8.8844618872     7.2031697450    -1.1287200652
   49      C     -10.3061351307     5.8845914137    -1.6839788992
   50      H     -10.5209810341     4.8798868310    -2.0681090066
   51      C     -11.0184135284     6.8594914400    -2.6522352820
   52      H     -10.7243100401     5.9691303245    -0.6735151850
   53      H     -11.2048110481     7.8302502302    -2.1784871043
   54      H     -12.0128567617     6.5294912651    -2.9779276833
   55      H     -10.4127605724     7.0723201729    -3.5408406091
   56      C      -1.7839233024     0.8759930362     2.8513631880
   57      C      -1.1814410660     2.0318645251     3.3428601422
   58      N      -1.1173310137     0.0545571040     1.9627419358
   59      C       0.1228643697     2.3211642016     2.9704852939
   60      C       0.1261850802     0.4030411299     1.5436994465
   61      C       0.7899416311     1.5095573326     2.0630982665
   62      C       2.1438266599     1.8291812766     1.6925407634
   63      C       2.4977917882     2.3461305228     0.4404097141
   64      C       3.2172368674     1.4732171137     2.5124792008
   65      N       3.7219670841     2.6272521566     0.0167583574
   66      N       3.0574672884     1.0669681362     3.8130100347
   67      C       4.5046642709     1.6106257665     2.0134305631
   68      C       4.7646174786     2.1863839142     0.6989755866
   69      S       4.6116932818     0.8786577632     4.2688847597
   70      N       5.4429431156     1.3069017333     2.9630165366
   71      C       6.0917241281     2.4502362840     0.1847432774
   72      S       7.6239418218     1.6974119925     0.6800346311
   73      C       6.3279163368     3.0171727806    -1.0705205393
   74      C       8.5462674852     2.2262413494    -0.7395603400
   75      S       5.2408194421     3.9727984846    -2.1291129326
   76      C       7.6404720696     2.9546391226    -1.4709353116
   77      C       9.9669748658     2.0144412695    -0.9719936956
   78      C       6.6842229063     4.2364255983    -3.1441406094
   79      C       7.8214274972     3.5691120984    -2.7509009733
   80      N      10.5256490622     2.9346390303    -1.7127238916
   81      S      10.9121445491     0.6513871415    -0.3609431953
   82      C      11.8920488008     2.6783471825    -1.7070455872
   83      C      12.2533541070     1.5738034044    -0.9971579074
   84      C      -3.2238882962     0.6745399456     3.2474332185
   85      H      -1.6560248060     2.6650828409     4.0872356108
   86      H       0.5617798984     3.1681195222     3.4890697554
   87      H       0.6307785628    -0.3046829133     0.8881682908
   88      H       1.7136562478     2.6504755596    -0.2512141381
   89      H       6.4680002366     4.8703359512    -3.9946313039
   90      H       8.7665098358     3.6226072313    -3.2807940229
   91      H      12.5175116934     3.3438098447    -2.2863871233
   92      H      13.2828488079     1.2706716140    -0.8577671676
   93      H      -3.5463872709    -0.2507812293     2.7527857333
   94      C      -4.0722574362     1.8254226976     2.8447140937
   95      H      -3.2818905484     0.5761096443     4.3377901392
   96      H      -3.7673952230     2.0350272085     1.8124127908
   97      H      -3.8295411562     2.7244128252     3.4252358916
   98      C      -5.5724224159     1.5590629359     2.8093515273
   99      H      -5.7550710250     0.7595288227     2.0807777922
  100      C      -6.4032129566     2.7598483916     2.3830800565
  101      H      -5.8809295605     1.1288901488     3.7697268263
  102      H      -6.0450557970     3.0711590463     1.3939702924
  103      H      -6.2645223262     3.5858453115     3.0918190757
  104      C      -7.9287930299     2.3802678720     2.3760041120
  105      H      -8.4208575878     3.0680183503     1.6787403524
  106      C      -8.6274000455     2.3139434066     3.7829423846
  107      H      -8.0105089452     1.4072067565     1.8746174600
  108      H      -9.6464178129     2.0032704426     3.5196002133
  109      H      -8.6964457980     3.2623106120     4.3297397216
  110      H      -8.3111301548     1.4564062525     4.3891307923
 ----------------------------------------------------------------

    9   -5663.4943465149      9.85E-06 Convergence criterion met
 Total energy in the final basis set = -5663.4943465149

                    Orbital Energies (a.u.)
 --------------------------------------------------------------

 Alpha MOs
 -- Occupied --
-88.987 -88.985 -88.939 -88.927 -88.923 -88.923 -88.907 -88.898
-14.390 -14.388 -14.383 -14.383 -14.354 -14.350 -14.347 -14.343
-14.338 -14.332 -10.277 -10.275 -10.266 -10.259 -10.255 -10.254
-10.251 -10.249 -10.243 -10.242 -10.241 -10.241 -10.237 -10.235
-10.235 -10.234 -10.233 -10.231 -10.229 -10.228 -10.226 -10.226
-10.224 -10.221 -10.219 -10.217 -10.214 -10.214 -10.212 -10.212
-10.205 -10.204 -10.204 -10.203 -10.202 -10.193 -10.192 -10.191
-10.185 -10.179 -10.178 -10.177 -10.175 -10.174 -10.172 -10.172
-10.171 -10.170 -10.169 -10.169  -8.043  -8.041  -7.999  -7.988
 -7.982  -7.982  -7.966  -7.960  -6.007  -6.006  -6.002  -6.001
 -6.001  -5.998  -5.963  -5.960  -5.956  -5.951  -5.949  -5.946
 -5.946  -5.945  -5.943  -5.942  -5.939  -5.938  -5.931  -5.927
 -5.925  -5.922  -5.921  -5.916  -1.047  -1.040  -0.980  -0.971
 -0.969  -0.939  -0.931  -0.930  -0.916  -0.912  -0.907  -0.904
 -0.841  -0.840  -0.838  -0.833  -0.817  -0.814  -0.809  -0.806
 -0.805  -0.803  -0.797  -0.789  -0.784  -0.778  -0.767  -0.765
 -0.750  -0.743  -0.738  -0.737  -0.720  -0.715  -0.710  -0.704
 -0.694  -0.688  -0.673  -0.669  -0.656  -0.652  -0.648  -0.641
 -0.638  -0.636  -0.627  -0.624  -0.612  -0.609  -0.597  -0.593
 -0.590  -0.586  -0.579  -0.578  -0.577  -0.571  -0.568  -0.564
 -0.559  -0.546  -0.542  -0.535  -0.524  -0.521  -0.515  -0.507
 -0.507  -0.503  -0.502  -0.497  -0.496  -0.489  -0.481  -0.477
 -0.475  -0.471  -0.469  -0.468  -0.463  -0.460  -0.446  -0.444
 -0.440  -0.438  -0.437  -0.435  -0.433  -0.430  -0.428  -0.427
 -0.424  -0.423  -0.422  -0.417  -0.416  -0.416  -0.414  -0.410
 -0.409  -0.409  -0.402  -0.398  -0.398  -0.398  -0.396  -0.396
 -0.393  -0.391  -0.390  -0.390  -0.388  -0.386  -0.384  -0.382
 -0.380  -0.371  -0.370  -0.369  -0.364  -0.362  -0.355  -0.354
 -0.353  -0.351  -0.349  -0.345  -0.344  -0.343  -0.339  -0.334
 -0.334  -0.333  -0.333  -0.331  -0.328  -0.328  -0.322  -0.319
 -0.318  -0.318  -0.312  -0.305  -0.304  -0.303  -0.302  -0.301
 -0.299  -0.298  -0.295  -0.292  -0.291  -0.284  -0.281  -0.278
 -0.276  -0.273  -0.270  -0.259  -0.257  -0.253  -0.250  -0.247
 -0.245  -0.237  -0.236  -0.230  -0.198  -0.188

          Ground-State Mulliken Net Atomic Charges

     Atom                 Charge (a.u.)
  ----------------------------------------
      1 C                     0.275922
      2 C                    -0.135077
      3 N                    -0.480520
      4 C                    -0.052280
      5 C                     0.056160
      6 C                     0.055223
      7 C                     0.038986
      8 C                     0.056559
      9 C                     0.232285
     10 N                    -0.506112
     11 N                    -0.555085
     12 C                     0.246937
     13 C                     0.233912
     14 S                     0.583274
     15 N                    -0.548025
     16 C                    -0.201605
     17 S                     0.318352
     18 C                    -0.098979
     19 C                    -0.223671
     20 S                     0.290403
     21 C                     0.103598
     22 C                     0.055110
     23 C                    -0.312826
     24 C                    -0.036986
     25 N                    -0.415640
     26 S                     0.277769
     27 C                     0.130545
     28 C                    -0.314370
     29 C                    -0.229118
     30 H                     0.091068
     31 H                     0.114067
     32 H                     0.103154
     33 H                     0.115940
     34 H                     0.121093
     35 H                     0.128344
     36 H                     0.112958
     37 H                     0.124037
     38 H                     0.089380
     39 C                    -0.177057
     40 H                     0.121394
     41 H                     0.089859
     42 H                     0.093781
     43 C                    -0.181035
     44 H                     0.128459
     45 C                    -0.170968
     46 H                     0.090777
     47 H                     0.084316
     48 H                     0.087271
     49 C                    -0.165267
     50 H                     0.095112
     51 C                    -0.329932
     52 H                     0.091399
     53 H                     0.099695
     54 H                     0.100079
     55 H                     0.100691
     56 C                     0.269726
     57 C                    -0.095110
     58 N                    -0.493375
     59 C                    -0.057722
     60 C                     0.083419
     61 C                     0.027957
     62 C                    -0.041344
     63 C                     0.063421
     64 C                     0.240464
     65 N                    -0.511993
     66 N                    -0.538819
     67 C                     0.174080
     68 C                     0.336777
     69 S                     0.605158
     70 N                    -0.531946
     71 C                    -0.238363
     72 S                     0.300266
     73 C                    -0.112621
     74 C                    -0.237686
     75 S                     0.273947
     76 C                     0.167182
     77 C                     0.065447
     78 C                    -0.314163
     79 C                    -0.044194
     80 N                    -0.420975
     81 S                     0.288372
     82 C                     0.123617
     83 C                    -0.303365
     84 C                    -0.234143
     85 H                     0.090097
     86 H                     0.099635
     87 H                     0.109057
     88 H                     0.105152
     89 H                     0.124924
     90 H                     0.121922
     91 H                     0.118020
     92 H                     0.129520
     93 H                     0.122057
     94 C                    -0.178213
     95 H                     0.107981
     96 H                     0.101086
     97 H                     0.089380
     98 C                    -0.179501
     99 H                     0.091041
    100 C                    -0.182293
    101 H                     0.090400
    102 H                     0.110295
    103 H                     0.083107
    104 C                    -0.185563
    105 H                     0.097959
    106 C                    -0.324238
    107 H                     0.091333
    108 H                     0.103943
    109 H                     0.106923
    110 H                     0.108603
  ----------------------------------------
  Sum of atomic charges =     0.000000

                    Cartesian Multipole Moments
 -----------------------------------------------------------------
    Charge (ESU x 10^10)
                 0.0000
    Dipole Moment (Debye)
         X       5.0779      Y       0.7166      Z      -0.7689
       Tot       5.1856
    Quadrupole Moments (Debye-Ang)
        XX    -409.7956     XY     -20.4758     YY    -425.4323
        XZ      -6.8416     YZ       8.5630     ZZ    -429.3787

 Total job time:  86.94s(wall), 1040.38s(cpu)
        *  Thank you very much for using Q-Chem.  Have a nice day.  *
