 Q-Chem 4.4, Q-Chem, Inc., Pleasanton, CA (2016)
 Q-Chem 4.4.2 for Intel X86 Linux

User input:
--------------------------------------------------------------
$comment
SP
$end

$rem
MEM_STATIC 5000
MEM_TOTAL 20000
JOBTYPE SP
EXCHANGE B3LYP
BASIS 6-31g(d,p)
$end

$molecule
0 1
C         -18.347000     21.960000     -5.115000
C         -19.033000     21.836000     -3.884000
N         -17.985000     20.922000     -5.848000
C         -19.316000     20.580000     -3.404000
C         -18.362000     19.694000     -5.430000
C         -18.915000     19.507000     -4.168000
C         -19.531000     18.168000     -3.797000
C         -20.511000     17.553000     -4.611000
C         -19.316000     17.524000     -2.529000
N         -21.251000     16.500000     -4.222000
N         -18.430000     18.000000     -1.621000
C         -19.999000     16.359000     -2.161000
C         -21.017000     15.857000     -3.037000
S         -18.444000     16.952000     -0.379000
N         -19.706000     15.978000     -0.898000
C         -22.006000     14.892000     -2.615000
S         -22.303000     14.337000     -0.935000
C         -23.073000     14.435000     -3.377000
C         -23.497000     13.224000     -1.416000
S         -23.477000     14.807000     -5.052000
C         -23.895000     13.553000     -2.704000
C         -23.975000     12.140000     -0.593000
C         -24.956000     13.918000     -4.775000
C         -24.960000     13.184000     -3.575000
N         -24.831000     11.227000     -1.049000
S         -23.375000     11.883000      0.998000
C         -25.028000     10.266000     -0.020000
C         -24.435000     10.532000      1.189000
C         -18.113000     23.364000     -5.657000
H         -19.437000     22.741000     -3.441000
H         -19.906000     20.518000     -2.494000
H         -18.218000     18.904000     -6.166000
H         -20.826000     18.046000     -5.529000
H         -25.714000     13.912000     -5.547000
H         -25.816000     12.540000     -3.412000
H         -25.619000      9.408000     -0.311000
H         -24.516000      9.989000      2.121000
H         -18.020000     24.042000     -4.799000
C         -19.218000     24.049000     -6.478000
H         -17.191000     23.433000     -6.247000
H         -19.866000     24.510000     -5.723000
H         -19.754000     23.290000     -7.061000
C         -18.614000     25.232000     -7.298000
H         -17.976000     25.814000     -6.622000
C         -19.771000     26.083000     -7.876000
H         -17.964000     24.930000     -8.129000
H         -20.501000     26.322000     -7.093000
H         -20.413000     25.505000     -8.553000
C         -19.284000     27.327000     -8.663000
H         -18.604000     27.089000     -9.490000
C         -18.551000     28.383000     -7.893000
H         -20.164000     27.660000     -9.227000
H         -18.390000     29.201000     -8.606000
H         -17.619000     27.974000     -7.484000
H         -19.212000     28.717000     -7.084000
C         -17.766000     15.119000      3.187000
C         -17.143000     14.027000      2.587000
N         -17.291000     16.401000      2.988000
C         -16.068000     14.248000      1.739000
C         -16.184000     16.586000      2.224000
C         -15.575000     15.532000      1.551000
C         -14.459000     15.737000      0.665000
C         -13.169000     16.049000      1.111000
C         -14.642000     15.808000     -0.718000
N         -12.106000     16.288000      0.356000
N         -15.803000     15.418000     -1.336000
C         -13.576000     16.218000     -1.506000
C         -12.261000     16.496000     -0.940000
S         -15.407000     15.641000     -2.902000
N         -13.885000     16.150000     -2.838000
C         -11.095000     16.818000     -1.735000
S         -11.047000     17.480000     -3.384000
C          -9.836000     17.067000     -1.182000
C          -9.348000     17.985000     -3.321000
S          -9.173000     16.627000      0.425000
C          -8.932000     17.594000     -2.072000
C          -8.581000     18.567000     -4.412000
C          -7.618000     17.239000     -0.200000
C          -7.659000     17.806000     -1.453000
N          -7.300000     18.316000     -4.352000
S          -9.247000     19.552000     -5.720000
C          -6.742000     18.797000     -5.531000
C          -7.631000     19.400000     -6.368000
C         -18.878000     14.786000      4.148000
H         -17.528000     13.015000      2.676000
H         -15.717000     13.363000      1.217000
H         -15.883000     17.618000      2.052000
H         -12.950000     16.010000      2.177000
H          -6.821000     17.127000      0.524000
H          -6.795000     18.233000     -1.951000
H          -5.673000     18.683000     -5.649000
H          -7.360000     19.781000     -7.344000
H         -19.228000     15.746000      4.549000
C         -18.416000     13.884000      5.234000
H         -19.679000     14.275000      3.601000
H         -17.465000     14.322000      5.560000
H         -18.178000     12.884000      4.850000
C         -19.311000     13.822000      6.466000
H         -19.366000     14.831000      6.893000
C         -18.797000     12.895000      7.557000
H         -20.338000     13.603000      6.150000
H         -17.791000     13.237000      7.830000
H         -18.737000     11.866000      7.181000
C         -19.786000     12.906000      8.779000
H         -19.202000     12.613000      9.659000
C         -21.107000     12.072000      8.602000
H         -20.034000     13.957000      8.976000
H         -21.629000     12.264000      9.548000
H         -20.980000     10.987000      8.503000
H         -21.815000     12.518000      7.893000
$end

--------------------------------------------------------------

             Standard Nuclear Orientation (Angstroms)
    I     Atom           X                Y                Z
 ----------------------------------------------------------------
    1      C       2.9686782552     5.2924838741     1.5792562072
    2      C       1.8907072209     4.8791605103     2.3968595622
    3      N       3.0268220601     5.0475669794     0.2821779471
    4      C       0.8634869004     4.1630566214     1.8311399909
    5      C       1.9648250676     4.4418138885    -0.2923327844
    6      C       0.9468622503     3.8973156917     0.4827126442
    7      C      -0.3368344162     3.4169669765    -0.1741023831
    8      C      -1.0801609330     4.2495517987    -1.0432912023
    9      C      -0.9861177957     2.1809026328     0.1713842758
   10      N      -2.3263182743     3.9680591356    -1.4623183629
   11      N      -0.4212130584     1.2819001039     1.0132352667
   12      C      -2.2349342968     1.8251523945    -0.3511452587
   13      C      -2.9277002050     2.7732479895    -1.1738810238
   14      S      -1.4370201495     0.0148168213     1.0740621388
   15      N      -2.6921584807     0.6670351451     0.1741065689
   16      C      -4.3367782175     2.6657379519    -1.4744982992
   17      S      -5.5017747356     1.5266923418    -0.7235041508
   18      C      -5.0902727859     3.5929899195    -2.1819102896
   19      C      -6.7875495767     2.0479102370    -1.7088370711
   20      S      -4.5615212144     5.0761104727    -2.9743749263
   21      C      -6.4276056514     3.2623628532    -2.2755241221
   22      C      -8.0163833509     1.3155724532    -1.8946270753
   23      C      -6.2564591470     5.3983861564    -3.2533279481
   24      C      -7.0933101403     4.2984822160    -2.9912902846
   25      N      -8.9511160665     1.7057883925    -2.7596399488
   26      S      -8.3032943475    -0.1816488765    -1.0988002286
   27      C      -9.9823041903     0.7271229712    -2.7536360745
   28      C      -9.8667179569    -0.2796014249    -1.8277679344
   29      C       4.0551605833     6.1472503817     2.2185263911
   30      H       1.8485650557     5.2713259854     3.4082547758
   31      H       0.0168867860     3.9225505637     2.4679045335
   32      H       1.9770884406     4.4493106504    -1.3815184473
   33      H      -0.7206035737     5.2553165028    -1.2534194139
   34      H      -6.5440148360     6.3520149295    -3.6758062183
   35      H      -8.1391182530     4.4227868915    -3.2459954849
   36      H     -10.7491721508     0.8750444214    -3.5020736308
   37      H     -10.5637998764    -1.0731151764    -1.5944297172
   38      H       4.1236889389     5.8638888617     3.2765940229
   39      C       3.8579000410     7.6691193530     2.3149323697
   40      H       5.0369970159     5.9835882358     1.7579214393
   41      H       3.2848849009     7.8069685993     3.2396492100
   42      H       3.2973911344     8.0141172399     1.4373947787
   43      C       5.2321226687     8.3680468002     2.5593042031
   44      H       5.7480267427     7.8184949048     3.3559093127
   45      C       4.9806441601     9.8458644016     2.9462766784
   46      H       5.9149148124     8.3513739610     1.7003618855
   47      H       4.2236097474     9.9128488431     3.7371761553
   48      H       4.4639989437    10.4003883225     2.1524517974
   49      C       6.2811091054    10.6246595412     3.2723795096
   50      H       7.0171385912    10.6168511872     2.4592542883
   51      C       7.0672439192    10.1785514618     4.4674965064
   52      H       5.9839863595    11.6804672076     3.2530599491
   53      H       7.8757043031    10.9126572184     4.5718734471
   54      H       7.4282878682     9.1531859897     4.3210078868
   55      H       6.4003324686    10.2308936845     5.3366612830
   56      C      -3.2168373005    -3.5168844533     2.0202471189
   57      C      -3.0350317222    -4.0323310999     0.7388984207
   58      N      -2.1383475417    -3.0849582466     2.7679433087
   59      C      -1.7580385189    -4.0561575825     0.1982593015
   60      C      -0.8873014853    -3.1985175936     2.2528141603
   61      C      -0.6689199821    -3.6413692149     0.9524611464
   62      C       0.6469705458    -3.6739439146     0.3694963039
   63      C       1.6264878794    -4.6067109423     0.7312302741
   64      C       1.0841035294    -2.6527205562    -0.4774019231
   65      N       2.8664370617    -4.6735579648     0.2673633741
   66      N       0.2339814736    -1.7272280233    -1.0275846762
   67      C       2.4235962736    -2.6206062118    -0.8381343130
   68      C       3.3585519850    -3.6606275546    -0.4245180366
   69      S       1.2674327090    -0.8766259509    -1.9589039869
   70      N       2.6743886218    -1.6188374374    -1.7369621724
   71      C       4.7350761244    -3.7269573626    -0.8672895918
   72      S       5.7472977901    -2.4037821637    -1.4872603109
   73      C       5.6173939433    -4.7377361851    -0.4764796144
   74      C       7.2900696391    -3.2565065346    -1.2915279191
   75      S       5.2829492352    -6.3695189027     0.1876362640
   76      C       6.9289050554    -4.4863775900    -0.7986635050
   77      C       8.6014220774    -2.7676804538    -1.6898969006
   78      C       7.0373769620    -6.6480112437     0.0214455076
   79      C       7.7778940194    -5.5648549358    -0.3927837772
   80      N       9.4485278077    -3.7138338603    -1.9977403883
   81      S       9.0843318886    -1.0684700899    -1.7541406045
   82      C      10.5825266711    -3.0875086445    -2.5022493593
   83      C      10.5188371239    -1.7272004246    -2.5042959725
   84      C      -4.6221843002    -3.5940668035     2.5587605311
   85      H      -3.8673820278    -4.3240107994     0.1045436922
   86      H      -1.7160986481    -4.3562680504    -0.8443742652
   87      H      -0.0776426045    -2.7931132973     2.8572220136
   88      H       1.3578009318    -5.4346286857     1.3855983160
   89      H       7.3159704373    -7.6505059955     0.3203082656
   90      H       8.8548469478    -5.5835730821    -0.5218226131
   91      H      11.4025966646    -3.7261130912    -2.8011650101
   92      H      11.3009205087    -1.0988752673    -2.9101667351
   93      H      -4.5787917225    -3.1829557287     3.5756212730
   94      C      -5.1352047512    -4.9880696752     2.5619244832
   95      H      -5.2804029540    -2.9923146744     1.9211293062
   96      H      -4.3095456368    -5.5767206089     2.9794147286
   97      H      -5.2919273693    -5.3594886817     1.5413433043
   98      C      -6.3452620569    -5.2440120686     3.4524006524
   99      H      -6.0589767248    -5.0085731477     4.4848948283
  100      C      -6.8322002824    -6.6849683885     3.4339060906
  101      H      -7.1259769543    -4.5123964682     3.2120491138
  102      H      -5.9902796740    -7.3189158661     3.7385522538
  103      H      -7.1445243580    -6.9651119837     2.4201061903
  104      C      -8.0753306425    -6.8424263473     4.3833058478
  105      H      -8.1126152410    -7.8967324793     4.6805489112
  106      C      -9.4418838653    -6.3047308814     3.8217527556
  107      H      -7.8276647647    -6.3226746950     5.3178826680
  108      H     -10.1247537132    -6.4912647053     4.6602978667
  109      H      -9.8387839461    -6.8276798551     2.9430322672
  110      H      -9.4927771890    -5.2105457905     3.7667086243
 ----------------------------------------------------------------

   10   -5663.5239595721      3.88E-06 Convergence criterion met
 Total energy in the final basis set = -5663.5239595721

                    Orbital Energies (a.u.)
 --------------------------------------------------------------

 Alpha MOs
 -- Occupied --
-88.987 -88.979 -88.938 -88.922 -88.922 -88.920 -88.906 -88.906
-14.389 -14.385 -14.376 -14.373 -14.349 -14.346 -14.346 -14.342
-14.335 -14.325 -10.277 -10.266 -10.266 -10.259 -10.256 -10.252
-10.248 -10.247 -10.243 -10.240 -10.237 -10.236 -10.236 -10.234
-10.233 -10.232 -10.232 -10.230 -10.230 -10.229 -10.228 -10.225
-10.224 -10.223 -10.220 -10.218 -10.217 -10.213 -10.210 -10.208
-10.207 -10.206 -10.205 -10.204 -10.195 -10.194 -10.193 -10.192
-10.185 -10.183 -10.182 -10.181 -10.180 -10.179 -10.179 -10.179
-10.176 -10.176 -10.173 -10.170  -8.043  -8.034  -7.998  -7.984
 -7.981  -7.980  -7.965  -7.965  -6.008  -6.002  -6.001  -5.999
 -5.993  -5.991  -5.962  -5.959  -5.955  -5.948  -5.945  -5.945
 -5.944  -5.941  -5.941  -5.941  -5.938  -5.937  -5.930  -5.930
 -5.926  -5.926  -5.922  -5.922  -1.041  -1.022  -0.979  -0.969
 -0.960  -0.947  -0.943  -0.934  -0.913  -0.912  -0.905  -0.889
 -0.845  -0.842  -0.837  -0.829  -0.818  -0.816  -0.807  -0.806
 -0.805  -0.799  -0.799  -0.796  -0.788  -0.784  -0.769  -0.764
 -0.752  -0.750  -0.738  -0.738  -0.722  -0.720  -0.713  -0.708
 -0.695  -0.691  -0.674  -0.669  -0.656  -0.649  -0.644  -0.641
 -0.639  -0.630  -0.629  -0.623  -0.615  -0.610  -0.599  -0.593
 -0.590  -0.588  -0.581  -0.579  -0.578  -0.576  -0.570  -0.565
 -0.559  -0.546  -0.543  -0.533  -0.524  -0.517  -0.515  -0.510
 -0.510  -0.505  -0.500  -0.496  -0.494  -0.492  -0.482  -0.479
 -0.472  -0.470  -0.468  -0.466  -0.458  -0.457  -0.449  -0.446
 -0.443  -0.442  -0.441  -0.438  -0.437  -0.434  -0.432  -0.431
 -0.429  -0.427  -0.423  -0.422  -0.417  -0.416  -0.415  -0.414
 -0.410  -0.407  -0.405  -0.403  -0.401  -0.398  -0.397  -0.397
 -0.394  -0.393  -0.390  -0.389  -0.388  -0.386  -0.384  -0.383
 -0.380  -0.376  -0.373  -0.372  -0.370  -0.362  -0.358  -0.353
 -0.353  -0.352  -0.350  -0.347  -0.344  -0.341  -0.338  -0.336
 -0.334  -0.334  -0.333  -0.331  -0.327  -0.326  -0.324  -0.322
 -0.320  -0.317  -0.316  -0.306  -0.306  -0.304  -0.301  -0.299
 -0.296  -0.294  -0.291  -0.287  -0.285  -0.285  -0.284  -0.280
 -0.274  -0.269  -0.260  -0.258  -0.254  -0.253  -0.249  -0.248
 -0.247  -0.244  -0.236  -0.229  -0.198  -0.189

          Ground-State Mulliken Net Atomic Charges

     Atom                 Charge (a.u.)
  ----------------------------------------
      1 C                     0.282371
      2 C                    -0.115981
      3 N                    -0.481397
      4 C                    -0.027000
      5 C                     0.064400
      6 C                     0.022790
      7 C                    -0.014079
      8 C                     0.070432
      9 C                     0.199199
     10 N                    -0.515946
     11 N                    -0.555199
     12 C                     0.223638
     13 C                     0.293070
     14 S                     0.644338
     15 N                    -0.588991
     16 C                    -0.223596
     17 S                     0.319467
     18 C                    -0.116094
     19 C                    -0.231289
     20 S                     0.293016
     21 C                     0.182459
     22 C                     0.086057
     23 C                    -0.295748
     24 C                    -0.093723
     25 N                    -0.444898
     26 S                     0.266143
     27 C                     0.106814
     28 C                    -0.303077
     29 C                    -0.238483
     30 H                     0.087912
     31 H                     0.111024
     32 H                     0.107916
     33 H                     0.113525
     34 H                     0.124849
     35 H                     0.117519
     36 H                     0.112781
     37 H                     0.138779
     38 H                     0.093766
     39 C                    -0.169806
     40 H                     0.112333
     41 H                     0.092392
     42 H                     0.106351
     43 C                    -0.175831
     44 H                     0.095209
     45 C                    -0.176937
     46 H                     0.100221
     47 H                     0.086642
     48 H                     0.091343
     49 C                    -0.183853
     50 H                     0.088741
     51 C                    -0.303964
     52 H                     0.085645
     53 H                     0.102188
     54 H                     0.106190
     55 H                     0.099572
     56 C                     0.261975
     57 C                    -0.089244
     58 N                    -0.492559
     59 C                    -0.061239
     60 C                     0.072099
     61 C                     0.027347
     62 C                    -0.037495
     63 C                     0.064285
     64 C                     0.246888
     65 N                    -0.512259
     66 N                    -0.552412
     67 C                     0.174882
     68 C                     0.338132
     69 S                     0.615155
     70 N                    -0.529066
     71 C                    -0.238117
     72 S                     0.303703
     73 C                    -0.112671
     74 C                    -0.237343
     75 S                     0.275698
     76 C                     0.166167
     77 C                     0.065006
     78 C                    -0.313845
     79 C                    -0.044098
     80 N                    -0.420615
     81 S                     0.291366
     82 C                     0.124196
     83 C                    -0.303864
     84 C                    -0.227850
     85 H                     0.093876
     86 H                     0.103654
     87 H                     0.109539
     88 H                     0.109357
     89 H                     0.125197
     90 H                     0.122103
     91 H                     0.117916
     92 H                     0.129999
     93 H                     0.113489
     94 C                    -0.175973
     95 H                     0.113168
     96 H                     0.099759
     97 H                     0.090510
     98 C                    -0.172860
     99 H                     0.093415
    100 C                    -0.170885
    101 H                     0.089724
    102 H                     0.090833
    103 H                     0.088438
    104 C                    -0.182178
    105 H                     0.090776
    106 C                    -0.323508
    107 H                     0.092827
    108 H                     0.104956
    109 H                     0.108890
    110 H                     0.109554
  ----------------------------------------
  Sum of atomic charges =     0.000000

                    Cartesian Multipole Moments
 -----------------------------------------------------------------
    Charge (ESU x 10^10)
                 0.0000
    Dipole Moment (Debye)
         X       0.2997      Y      -1.0541      Z       0.4552
       Tot       1.1867
    Quadrupole Moments (Debye-Ang)
        XX    -377.2613     XY      19.4395     YY    -428.1942
        XZ      -5.6726     YZ       5.0228     ZZ    -446.1030

 Total job time:  89.84s(wall), 1052.59s(cpu)
        *  Thank you very much for using Q-Chem.  Have a nice day.  *
