 Q-Chem 4.4, Q-Chem, Inc., Pleasanton, CA (2016)
 Q-Chem 4.4.2 for Intel X86 Linux

User input:
--------------------------------------------------------------
$comment
SP
$end

$rem
MEM_STATIC 5000
MEM_TOTAL 20000
JOBTYPE SP
EXCHANGE B3LYP
BASIS 6-31g(d,p)
$end

$molecule
0 1
C         -13.602000     12.350000     -7.959000
C         -13.890000     12.979000     -6.733000
N         -13.112000     12.956000     -9.069000
C         -13.720000     14.409000     -6.754000
C         -12.785000     14.236000     -9.030000
C         -13.097000     15.029000     -7.893000
C         -12.789000     16.478000     -7.959000
C         -11.694000     16.948000     -8.662000
C         -13.465000     17.527000     -7.278000
N         -11.274000     18.246000     -8.742000
N         -14.580000     17.327000     -6.601000
C         -13.147000     18.827000     -7.463000
C         -11.948000     19.220000     -8.109000
S         -15.014000     18.832000     -6.071000
N         -13.804000     19.721000     -6.684000
C         -11.407000     20.602000     -8.162000
S         -11.850000     21.972000     -7.182000
C         -10.400000     21.007000     -9.058000
C         -10.523000     22.995000     -7.786000
S          -9.473000     20.138000    -10.282000
C          -9.894000     22.320000     -8.822000
C         -10.273000     24.349000     -7.337000
C          -8.507000     21.630000    -10.576000
C          -8.789000     22.627000     -9.621000
N         -10.905000     24.634000     -6.274000
S          -9.461000     25.680000     -8.200000
C         -10.849000     25.978000     -5.961000
C         -10.138000     26.661000     -6.900000
C         -13.885000     10.878000     -7.959000
H         -14.224000     12.469000     -5.834000
H         -14.031000     15.024000     -5.915000
H         -12.538000     14.771000     -9.946000
H         -11.117000     16.229000     -9.243000
H          -7.800000     21.621000    -11.395000
H          -8.245000     23.544000     -9.425000
H         -11.288000     26.357000     -5.048000
H         -10.010000     27.732000     -6.980000
H         -14.867000     10.625000     -7.541000
C         -12.865000     10.017000     -7.152000
H         -13.943000     10.432000     -8.960000
H         -12.784000     10.348000     -6.109000
H         -11.918000     10.153000     -7.688000
C         -13.109000      8.474000     -7.206000
H         -14.035000      8.232000     -6.670000
C         -11.973000      7.758000     -6.459000
H         -13.199000      8.238000     -8.273000
H         -11.955000      7.944000     -5.378000
H         -10.995000      8.112000     -6.807000
C         -12.125000      6.255000     -6.822000
H         -12.983000      5.770000     -6.340000
C         -10.904000      5.387000     -6.564000
H         -12.335000      6.113000     -7.889000
H         -10.061000      5.682000     -7.201000
H         -11.101000      4.315000     -6.688000
H         -10.749000      5.548000     -5.490000
C         -17.766000     15.119000      3.187000
C         -17.143000     14.027000      2.587000
N         -17.291000     16.401000      2.988000
C         -16.068000     14.248000      1.739000
C         -16.184000     16.586000      2.224000
C         -15.575000     15.532000      1.551000
C         -14.459000     15.737000      0.665000
C         -13.169000     16.049000      1.111000
C         -14.642000     15.808000     -0.718000
N         -12.106000     16.288000      0.356000
N         -15.803000     15.418000     -1.336000
C         -13.576000     16.218000     -1.506000
C         -12.261000     16.496000     -0.940000
S         -15.407000     15.641000     -2.902000
N         -13.885000     16.150000     -2.838000
C         -11.095000     16.818000     -1.735000
S         -11.047000     17.480000     -3.384000
C          -9.836000     17.067000     -1.182000
C          -9.348000     17.985000     -3.321000
S          -9.173000     16.627000      0.425000
C          -8.932000     17.594000     -2.072000
C          -8.581000     18.567000     -4.412000
C          -7.618000     17.239000     -0.200000
C          -7.659000     17.806000     -1.453000
N          -7.300000     18.316000     -4.352000
S          -9.247000     19.552000     -5.720000
C          -6.742000     18.797000     -5.531000
C          -7.631000     19.400000     -6.368000
C         -18.878000     14.786000      4.148000
H         -17.528000     13.015000      2.676000
H         -15.717000     13.363000      1.217000
H         -15.883000     17.618000      2.052000
H         -12.950000     16.010000      2.177000
H          -6.821000     17.127000      0.524000
H          -6.795000     18.233000     -1.951000
H          -5.673000     18.683000     -5.649000
H          -7.360000     19.781000     -7.344000
H         -19.228000     15.746000      4.549000
C         -18.416000     13.884000      5.234000
H         -19.679000     14.275000      3.601000
H         -17.465000     14.322000      5.560000
H         -18.178000     12.884000      4.850000
C         -19.311000     13.822000      6.466000
H         -19.366000     14.831000      6.893000
C         -18.797000     12.895000      7.557000
H         -20.338000     13.603000      6.150000
H         -17.791000     13.237000      7.830000
H         -18.737000     11.866000      7.181000
C         -19.786000     12.906000      8.779000
H         -19.202000     12.613000      9.659000
C         -21.107000     12.072000      8.602000
H         -20.034000     13.957000      8.976000
H         -21.629000     12.264000      9.548000
H         -20.980000     10.987000      8.503000
H         -21.815000     12.518000      7.893000
$end

--------------------------------------------------------------

             Standard Nuclear Orientation (Angstroms)
    I     Atom           X                Y                Z
 ----------------------------------------------------------------
    1      C       0.1870026109    -6.0495669724    -1.6161532330
    2      C      -0.5188111982    -4.8366655171    -1.5049870211
    3      N       1.5297890904    -6.1794441999    -1.7557683332
    4      C       0.3034558110    -3.6641676001    -1.6578483964
    5      C       2.3025637752    -5.1080514994    -1.7134957929
    6      C       1.7347253345    -3.8056956540    -1.6937282125
    7      C       2.6619913456    -2.6497226413    -1.7459310704
    8      C       3.9111464668    -2.7039557382    -1.1536437631
    9      C       2.3938345976    -1.3631955753    -2.2882207226
   10      N       4.8221933861    -1.6879526267    -1.0806013903
   11      N       1.2924985527    -1.0967397742    -2.9646926158
   12      C       3.3365935323    -0.3973493525    -2.3490127049
   13      C       4.5517601149    -0.4904368112    -1.6250852904
   14      S       1.4769887086     0.4740905324    -3.4471203622
   15      N       2.9262129347     0.8124465079    -2.8025628579
   16      C       5.5406418527     0.6036970095    -1.4507348068
   17      S       5.3229947551     2.3089376894    -1.7306150751
   18      C       6.8579989502     0.3943827312    -1.0016826823
   19      C       6.8869379100     2.7575165166    -1.0059545725
   20      S       7.7286889498    -1.0535027943    -0.4935562909
   21      C       7.5844463929     1.5912464564    -0.7269239949
   22      C       7.3627934184     4.1196452870    -0.8811196901
   23      C       9.1421308645    -0.0234077077    -0.0614196620
   24      C       8.8251239462     1.3478048105    -0.1309958333
   25      N       6.4450735535     4.9753724448    -1.0712230331
   26      S       9.0406114212     4.7121964660    -0.7837346301
   27      C       6.9275998382     6.2654918372    -1.1722247072
   28      C       8.2845262581     6.2812114190    -1.0616146464
   29      C      -0.6924291467    -7.2623011894    -1.5637270692
   30      H      -1.5877320840    -4.7510154793    -1.3319864112
   31      H      -0.1368361128    -2.6737237315    -1.7213382768
   32      H       3.3573531604    -5.1772811655    -1.9760155185
   33      H       4.2298800950    -3.6547173168    -0.7271319872
   34      H      10.0561902695    -0.5192731277     0.2374179016
   35      H       9.3958376473     2.1901095626     0.2432361484
   36      H       6.2548329699     7.1066769393    -1.2708318312
   37      H       8.9476816687     7.1240985438    -1.2015832008
   38      H      -1.5712567668    -7.1894470500    -2.2159626772
   39      C      -1.2611647779    -7.5958102859    -0.1501212315
   40      H      -0.2141747550    -8.1798067631    -1.9294281209
   41      H      -1.8184530643    -6.7525603357     0.2768802760
   42      H      -0.3715814205    -7.8290161661     0.4472542514
   43      C      -2.1197161078    -8.8995761066    -0.0702131669
   44      H      -3.0539223037    -8.7560165139    -0.6269765160
   45      C      -2.5180997992    -9.1514346304     1.3923252833
   46      H      -1.5004415670    -9.6761834353    -0.5346107338
   47      H      -3.2056892235    -8.4048570925     1.8086469899
   48      H      -1.6407176622    -9.1014100822     2.0485280951
   49      C      -3.0886260157   -10.5962844538     1.4204468798
   50      H      -4.0766530694   -10.6889361467     0.9525460302
   51      C      -3.1685116933   -11.2477167810     2.7916081401
   52      H      -2.4756088832   -11.2877194153     0.8297856494
   53      H      -2.1708931176   -11.3977388388     3.2225298958
   54      H      -3.7141563081   -12.1993598609     2.7875581015
   55      H      -3.8018121170   -10.5335094443     3.3322193253
   56      C      -8.4343306943     2.6021619110    -1.3716693509
   57      C      -8.2713323674     1.3270971851    -0.8347946073
   58      N      -7.4195477949     3.5365251051    -1.2946557912
   59      C      -7.0522816255     0.9867066360    -0.2676794841
   60      C      -6.2658510223     3.2103252102    -0.6575157866
   61      C      -6.0363864181     1.9277590707    -0.1705906453
   62      C      -4.7791750410     1.5508969673     0.4209087277
   63      C      -4.3629546385     1.9834821075     1.6858161049
   64      C      -3.8140750560     0.8625717425    -0.3180157637
   65      N      -3.2081628587     1.7097468210     2.2762735023
   66      N      -4.0859936419     0.2634155454    -1.5217670395
   67      C      -2.5464891463     0.7133076164     0.2263611115
   68      C      -2.2240978544     1.1818710360     1.5692599077
   69      S      -2.6476975105    -0.4307326452    -1.8509531996
   70      N      -1.7466155763    -0.0560322719    -0.5752918111
   71      C      -0.9511124841     0.9497261319     2.2180140912
   72      S       0.6146986009     0.5959796357     1.4545692258
   73      C      -0.6593331738     1.3900964749     3.5117798331
   74      C       1.5944844000     0.9568857480     2.8882224496
   75      S      -1.7596720250     1.8663175064     4.8452287229
   76      C       0.6693577138     1.2916603664     3.8463479995
   77      C       3.0363413497     0.8018832257     3.0078750903
   78      C      -0.2871265612     1.9475936628     5.8493193778
   79      C       0.9003013449     1.7365310385     5.1870154170
   80      N       3.4434005327     0.5535631603     4.2245106013
   81      S       4.1948623225     0.9445433204     1.6804255609
   82      C       4.8035801696     0.2777416079     4.1432712846
   83      C       5.3217622367     0.3721444903     2.8874550397
   84      C      -9.8099394442     2.9130644014    -1.9027006201
   85      H      -9.0271288122     0.5527707426    -0.9321614098
   86      H      -6.9636161630    -0.0576233277     0.0159106473
   87      H      -5.4771076103     3.9605656372    -0.6727516537
   88      H      -5.0635775717     2.5227972805     2.3215083650
   89      H      -0.5135757585     2.2062245634     6.8758474185
   90      H       1.8731330800     1.7716709825     5.6657560560
   91      H       5.3149412539     0.0580960694     5.0706043849
   92      H       6.3526658676     0.1401608114     2.6537901587
   93      H      -9.7713591141     3.9536325792    -2.2500195302
   94      C     -10.8559273230     2.7294507946    -0.8641249604
   95      H     -10.0328227401     2.2316716495    -2.7321329284
   96      H     -10.4408558320     3.2204201387     0.0242363177
   97      H     -10.9779939430     1.6710820510    -0.6013411274
   98      C     -12.1933055572     3.4028881556    -1.1480168048
   99      H     -12.0153691260     4.4820871777    -1.2322966780
  100      C     -13.2322067593     3.1982378323    -0.0559506267
  101      H     -12.5382420765     3.1044365790    -2.1452587284
  102      H     -12.8025165546     3.5769621614     0.8797112837
  103      H     -13.4553968343     2.1300122479     0.0576156151
  104      C     -14.5674955810     3.9323853564    -0.4426768547
  105      H     -15.0967436322     4.1373527747     0.4949743906
  106      C     -15.4609829748     3.2132596072    -1.5180672183
  107      H     -14.2871335883     4.9314116217    -0.8008076607
  108      H     -16.2908772044     3.9210975611    -1.6385039183
  109      H     -15.8850831296     2.2463290388    -1.2208478808
  110      H     -15.0347553181     3.2366326615    -2.5283368284
 ----------------------------------------------------------------

   10   -5663.5211277216      7.89E-06 Convergence criterion met
 Total energy in the final basis set = -5663.5211277216

                    Orbital Energies (a.u.)
 --------------------------------------------------------------

 Alpha MOs
 -- Occupied --
-88.986 -88.986 -88.934 -88.930 -88.926 -88.919 -88.916 -88.903
-14.391 -14.388 -14.382 -14.382 -14.349 -14.343 -14.342 -14.342
-14.330 -14.330 -10.270 -10.269 -10.263 -10.263 -10.254 -10.250
-10.249 -10.249 -10.243 -10.242 -10.240 -10.238 -10.237 -10.235
-10.235 -10.235 -10.234 -10.232 -10.232 -10.228 -10.227 -10.225
-10.225 -10.224 -10.224 -10.221 -10.218 -10.215 -10.215 -10.211
-10.210 -10.209 -10.205 -10.203 -10.202 -10.200 -10.190 -10.188
-10.183 -10.181 -10.181 -10.181 -10.181 -10.181 -10.178 -10.177
-10.176 -10.174 -10.174 -10.168  -8.042  -8.042  -7.994  -7.989
 -7.984  -7.978  -7.974  -7.962  -6.007  -6.007  -6.001  -6.001
 -6.000  -6.000  -5.958  -5.955  -5.953  -5.951  -5.950  -5.948
 -5.946  -5.944  -5.943  -5.941  -5.939  -5.939  -5.935  -5.935
 -5.931  -5.927  -5.923  -5.919  -1.048  -1.040  -0.986  -0.972
 -0.966  -0.955  -0.940  -0.928  -0.915  -0.909  -0.908  -0.903
 -0.843  -0.838  -0.834  -0.830  -0.815  -0.810  -0.808  -0.808
 -0.805  -0.802  -0.795  -0.795  -0.790  -0.785  -0.768  -0.765
 -0.753  -0.748  -0.744  -0.735  -0.720  -0.717  -0.712  -0.710
 -0.695  -0.692  -0.672  -0.670  -0.654  -0.654  -0.648  -0.640
 -0.635  -0.635  -0.626  -0.625  -0.611  -0.611  -0.602  -0.597
 -0.594  -0.585  -0.584  -0.578  -0.578  -0.574  -0.572  -0.568
 -0.555  -0.546  -0.540  -0.539  -0.527  -0.522  -0.519  -0.509
 -0.505  -0.505  -0.501  -0.496  -0.492  -0.489  -0.481  -0.479
 -0.478  -0.476  -0.476  -0.471  -0.468  -0.462  -0.453  -0.446
 -0.445  -0.444  -0.440  -0.439  -0.438  -0.434  -0.431  -0.427
 -0.426  -0.425  -0.424  -0.418  -0.418  -0.416  -0.415  -0.414
 -0.412  -0.411  -0.401  -0.400  -0.399  -0.397  -0.396  -0.395
 -0.394  -0.391  -0.390  -0.389  -0.388  -0.386  -0.385  -0.384
 -0.382  -0.380  -0.375  -0.370  -0.367  -0.367  -0.362  -0.356
 -0.355  -0.352  -0.350  -0.349  -0.349  -0.342  -0.340  -0.336
 -0.334  -0.333  -0.332  -0.331  -0.328  -0.326  -0.323  -0.320
 -0.318  -0.317  -0.316  -0.314  -0.307  -0.304  -0.302  -0.300
 -0.297  -0.295  -0.295  -0.293  -0.286  -0.285  -0.284  -0.279
 -0.271  -0.271  -0.269  -0.260  -0.256  -0.251  -0.249  -0.248
 -0.245  -0.244  -0.233  -0.231  -0.198  -0.194

          Ground-State Mulliken Net Atomic Charges

     Atom                 Charge (a.u.)
  ----------------------------------------
      1 C                     0.284309
      2 C                    -0.107831
      3 N                    -0.485379
      4 C                    -0.080509
      5 C                     0.074714
      6 C                     0.040311
      7 C                     0.063800
      8 C                     0.045060
      9 C                     0.235640
     10 N                    -0.532515
     11 N                    -0.557552
     12 C                     0.158228
     13 C                     0.306449
     14 S                     0.601900
     15 N                    -0.511447
     16 C                    -0.238555
     17 S                     0.362177
     18 C                    -0.123768
     19 C                    -0.244626
     20 S                     0.280444
     21 C                     0.151397
     22 C                     0.086176
     23 C                    -0.326934
     24 C                    -0.072335
     25 N                    -0.423273
     26 S                     0.260053
     27 C                     0.128875
     28 C                    -0.310718
     29 C                    -0.242072
     30 H                     0.103706
     31 H                     0.127967
     32 H                     0.111191
     33 H                     0.109583
     34 H                     0.136561
     35 H                     0.104275
     36 H                     0.125931
     37 H                     0.131149
     38 H                     0.100382
     39 C                    -0.186252
     40 H                     0.105987
     41 H                     0.088678
     42 H                     0.106298
     43 C                    -0.173703
     44 H                     0.093527
     45 C                    -0.171382
     46 H                     0.100483
     47 H                     0.095572
     48 H                     0.095755
     49 C                    -0.181595
     50 H                     0.091518
     51 C                    -0.315527
     52 H                     0.091670
     53 H                     0.103132
     54 H                     0.097523
     55 H                     0.098190
     56 C                     0.265764
     57 C                    -0.095149
     58 N                    -0.495611
     59 C                    -0.057059
     60 C                     0.087512
     61 C                     0.029325
     62 C                    -0.043398
     63 C                     0.063393
     64 C                     0.236880
     65 N                    -0.511807
     66 N                    -0.539103
     67 C                     0.173559
     68 C                     0.338211
     69 S                     0.602471
     70 N                    -0.540816
     71 C                    -0.239627
     72 S                     0.291855
     73 C                    -0.112323
     74 C                    -0.235272
     75 S                     0.273646
     76 C                     0.166241
     77 C                     0.049627
     78 C                    -0.315216
     79 C                    -0.042569
     80 N                    -0.425535
     81 S                     0.320824
     82 C                     0.122177
     83 C                    -0.310061
     84 C                    -0.225798
     85 H                     0.088213
     86 H                     0.098152
     87 H                     0.107238
     88 H                     0.108652
     89 H                     0.123891
     90 H                     0.122419
     91 H                     0.114289
     92 H                     0.139666
     93 H                     0.112931
     94 C                    -0.175267
     95 H                     0.107023
     96 H                     0.100058
     97 H                     0.089659
     98 C                    -0.173135
     99 H                     0.093100
    100 C                    -0.170594
    101 H                     0.089327
    102 H                     0.090605
    103 H                     0.088295
    104 C                    -0.182608
    105 H                     0.090378
    106 C                    -0.323076
    107 H                     0.092593
    108 H                     0.104380
    109 H                     0.109169
    110 H                     0.109861
  ----------------------------------------
  Sum of atomic charges =     0.000000

                    Cartesian Multipole Moments
 -----------------------------------------------------------------
    Charge (ESU x 10^10)
                 0.0000
    Dipole Moment (Debye)
         X       1.7134      Y       0.9997      Z       0.2047
       Tot       1.9942
    Quadrupole Moments (Debye-Ang)
        XX    -375.4084     XY      36.7353     YY    -438.9804
        XZ       9.0925     YZ      -1.3347     ZZ    -448.0414

 Total job time:  94.71s(wall), 1131.87s(cpu)
        *  Thank you very much for using Q-Chem.  Have a nice day.  *
