 Q-Chem 4.4, Q-Chem, Inc., Pleasanton, CA (2016)
 Q-Chem 4.4.2 for Intel X86 Linux

User input:
--------------------------------------------------------------
$comment
SP
$end

$rem
MEM_STATIC 5000
MEM_TOTAL 20000
JOBTYPE SP
EXCHANGE B3LYP
BASIS 6-31g(d,p)
$end

$molecule
0 1
C          12.008000     30.049000      6.049000
C          12.215000     28.938000      5.245000
N          11.090000     30.144000      7.078000
C          11.381000     27.819000      5.516000
C          10.361000     29.091000      7.255000
C          10.399000     27.911000      6.527000
C           9.476000     26.761000      6.872000
C           8.709000     26.164000      5.881000
C           9.249000     26.329000      8.222000
N           7.807000     25.176000      6.158000
N           9.949000     26.876000      9.230000
C           8.319000     25.387000      8.503000
C           7.579000     24.703000      7.454000
S           9.507000     25.879000     10.490000
N           8.242000     25.090000      9.797000
C           6.685000     23.555000      7.652000
S           6.581000     22.656000      9.052000
C           5.957000     22.896000      6.598000
C           5.590000     21.416000      8.254000
S           5.661000     23.421000      5.029000
C           5.333000     21.744000      6.996000
C           4.943000     20.313000      8.987000
C           4.548000     22.020000      4.806000
C           4.539000     21.228000      5.952000
N           5.206000     20.222000     10.264000
S           3.856000     19.039000      8.388000
C           4.846000     19.020000     10.780000
C           4.037000     18.234000      9.998000
C          12.879000     31.317000      5.862000
H          13.007000     28.866000      4.505000
H          11.457000     26.854000      5.024000
H           9.669000     29.134000      8.094000
H           8.667000     26.521000      4.853000
H           4.058000     21.911000      3.848000
H           3.848000     20.394000      5.918000
H           5.160000     18.820000     11.796000
H           3.564000     17.271000     10.137000
H          13.153000     31.751000      6.832000
C          12.425000     32.348000      4.769000
H          13.863000     30.906000      5.604000
H          11.334000     32.242000      4.817000
H          12.828000     32.080000      3.785000
C          12.645000     33.832000      5.257000
H          12.123000     33.945000      6.216000
C          12.211000     34.896000      4.277000
H          13.711000     33.891000      5.507000
H          12.509000     34.659000      3.248000
H          12.763000     35.812000      4.522000
C          10.691000     35.078000      4.374000
H          10.180000     34.137000      4.136000
C          10.134000     36.291000      3.563000
H          10.399000     35.244000      5.419000
H          10.271000     36.069000      2.498000
H          10.700000     37.185000      3.853000
H           9.074000     36.458000      3.789000
C          -6.718000     27.930000      8.912000
C          -5.582000     27.462000      8.209000
N          -6.752000     28.045000     10.256000
C          -4.464000     27.039000      8.961000
C          -5.666000     27.736000     10.995000
C          -4.523000     27.134000     10.381000
C          -3.335000     26.617000     11.134000
C          -2.527000     25.593000     10.564000
C          -2.984000     27.005000     12.473000
N          -1.497000     25.015000     11.203000
N          -3.563000     27.971000     13.201000
C          -1.977000     26.366000     13.155000
C          -1.186000     25.375000     12.452000
S          -2.781000     28.024000     14.553000
N          -1.675000     26.890000     14.385000
C           0.110000     24.919000     13.026000
S           0.732000     25.032000     14.721000
C           0.962000     24.075000     12.277000
C           2.010000     23.816000     14.372000
S           0.783000     23.338000     10.727000
C           2.036000     23.526000     13.011000
C           3.014000     23.324000     15.322000
C           2.196000     22.355000     11.134000
C           2.699000     22.508000     12.406000
N           4.280000     23.163000     14.893000
S           2.778000     23.377000     17.074000
C           5.129000     23.100000     15.971000
C           4.534000     23.181000     17.167000
C          -8.084000     28.171000      8.207000
H          -5.726000     27.299000      7.145000
H          -3.596000     26.654000      8.433000
H          -5.740000     27.837000     12.077000
H          -2.732000     25.257000      9.548000
H           2.748000     21.768000     10.412000
H           3.483000     21.982000     12.939000
H           6.189000     22.961000     15.802000
H           4.972000     23.127000     18.155000
H          -8.049000     28.273000      7.116000
C          -8.696000     29.490000      8.645000
H          -8.827000     27.381000      8.371000
H          -8.123000     30.368000      8.322000
H          -8.786000     29.522000      9.738000
C         -10.189000     29.682000      8.056000
H         -10.166000     29.745000      6.961000
C         -10.901000     30.965000      8.535000
H         -10.807000     28.830000      8.363000
H         -10.601000     30.981000      9.590000
H         -11.985000     30.794000      8.516000
C         -10.668000     32.224000      7.688000
H          -9.673000     32.648000      7.872000
C         -11.772000     33.348000      7.893000
H         -10.638000     31.996000      6.615000
H         -12.823000     33.103000      8.088000
H         -11.758000     34.048000      7.048000
H         -11.548000     33.981000      8.761000
$end

--------------------------------------------------------------

             Standard Nuclear Orientation (Angstroms)
    I     Atom           X                Y                Z
 ----------------------------------------------------------------
    1      C      -9.7087443265    -3.9423683015     0.9182949926
    2      C     -10.0938668371    -3.3486442690    -0.2744993840
    3      N      -8.5670233747    -3.6456746354     1.6387366188
    4      C      -9.2055095211    -2.3634908476    -0.7858231712
    5      C      -7.8043450037    -2.7491879906     1.1037483965
    6      C      -8.0061521909    -2.0816000876    -0.0951795626
    7      C      -7.0129616404    -1.0455727364    -0.5785778020
    8      C      -6.5062365114    -1.1173884660    -1.8688689105
    9      C      -6.4556863009    -0.0448043474     0.2866157183
   10      N      -5.5520644616    -0.2514343227    -2.3229130945
   11      N      -6.8926953618     0.0694182331     1.5520205084
   12      C      -5.4739428636     0.7796629049    -0.1465800494
   13      C      -5.0066136927     0.7582115334    -1.5238963837
   14      S      -6.1424264236     1.4846436885     2.0115925166
   15      N      -5.0774373735     1.6568488679     0.7709722285
   16      C      -4.0777159285     1.7246872065    -2.1234109514
   17      S      -3.6217669074     3.1691612045    -1.4272627205
   18      C      -3.6235460791     1.6808486550    -3.4897889845
   19      C      -2.8427742716     3.7159502459    -2.9274884426
   20      S      -3.7289184991     0.4226750157    -4.5992472966
   21      C      -2.9070830619     2.7846742424    -3.8681192867
   22      C      -2.0221952864     4.9378817300    -3.0052095927
   23      C      -2.6883078871     1.3724762050    -5.7245500358
   24      C      -2.3881963688     2.6135076908    -5.1673831596
   25      N      -1.9618618454     5.6748337291    -1.9275080445
   26      S      -1.1007990058     5.5981829682    -4.3757850809
   27      C      -1.4716404108     6.9148642377    -2.1778423867
   28      C      -0.8705346020     7.1023830530    -3.3973953789
   29      C     -10.6140796126    -5.0100644968     1.5829955675
   30      H     -11.0426497973    -3.5411058865    -0.7672644603
   31      H      -9.3886609452    -1.7610665648    -1.6704731241
   32      H      -6.9277806846    -2.4699602337     1.6853847556
   33      H      -6.7226888801    -1.9325343647    -2.5578409969
   34      H      -2.4477677503     0.9331383160    -6.6831258866
   35      H      -1.7168726567     3.2232723093    -5.7604300242
   36      H      -1.5236388017     7.6253308143    -1.3633576350
   37      H      -0.3663946638     7.9371365963    -3.8658486260
   38      H     -10.6462080192    -4.8742190324     2.6715017802
   39      C     -10.4552735602    -6.4936308967     1.0956175059
   40      H     -11.6263215353    -4.6491453836     1.3619872334
   41      H      -9.3848053494    -6.5255184692     0.8570761206
   42      H     -11.0847198104    -6.6884251127     0.2190665197
   43      C     -10.5661946137    -7.5058118536     2.3006014188
   44      H      -9.8257105149    -7.2055399517     3.0532328587
   45      C     -10.3993689626    -8.9600123863     1.9286847443
   46      H     -11.5385624833    -7.2913454378     2.7597766389
   47      H     -10.9384904395    -9.2176214141     1.0084675841
   48      H     -10.8850488015    -9.5562373771     2.7112547760
   49      C      -8.9045058147    -9.2740742438     1.7883910571
   50      H      -8.4565420249    -8.6473582139     1.0074932015
   51      C      -8.5786767067   -10.7908611990     1.6080255257
   52      H      -8.3664144269    -8.9466169673     2.6873206375
   53      H      -8.9707930997   -11.1006257666     0.6320292926
   54      H      -9.0665921362   -11.3442720813     2.4200396444
   55      H      -7.4977300408   -10.9671766429     1.6630906661
   56      C       9.1700568721    -3.2363221577    -1.6198874566
   57      C       7.9017082582    -3.0229333182    -2.2110608633
   58      N       9.5322600482    -2.6842875467    -0.4431191500
   59      C       7.0081989402    -2.1408249974    -1.5646221507
   60      C       8.6652036901    -1.9111459597     0.2435127443
   61      C       7.4135672822    -1.5378202074    -0.3394822687
   62      C       6.4535843782    -0.5647388839     0.2746737065
   63      C       5.5424991446     0.1489578579    -0.5541209955
   64      C       6.4381524840    -0.1988153823     1.6648276000
   65      N       4.7083344923     1.0977744582    -0.0989052316
   66      N       7.1668537069    -0.7545971757     2.6438486037
   67      C       5.6375868673     0.8204990468     2.1204445312
   68      C       4.7098651508     1.4385526038     1.1934530440
   69      S       6.7409026221    -0.0354428367     3.9643105343
   70      N       5.6412050437     1.0093533634     3.4780162442
   71      C       3.6004453961     2.2862081080     1.7108464670
   72      S       3.4132265583     3.0994596899     3.3159162384
   73      C       2.6005287586     2.7632395385     0.8322972467
   74      C       2.1032816875     4.1497925998     2.6720325424
   75      S       2.4015262805     2.6184900100    -0.8756710164
   76      C       1.7467428185     3.7393166943     1.3908274199
   77      C       1.3697940886     5.1726902715     3.4258603050
   78      C       1.1439306156     3.8549087758    -0.7406570203
   79      C       0.9675091665     4.4112597714     0.5058384840
   80      N       0.0391830857     5.2724844222     3.2463234389
   81      S       2.0288847727     5.9501090317     4.8712766953
   82      C      -0.5177212691     5.9669991630     4.2924404565
   83      C       0.3521991056     6.4006932968     5.2123045443
   84      C      10.3176652648    -3.9718841682    -2.3702243848
   85      H       7.7814763036    -3.4208865315    -3.2143447299
   86      H       6.0416524414    -1.9496740160    -2.0225328056
   87      H       9.0018897717    -1.4802565233     1.1855200564
   88      H       5.4952650384    -0.0845735276    -1.6173279514
   89      H       0.4383413566     4.0831166074    -1.5284526685
   90      H       0.3450686722     5.2304226292     0.8478341616
   91      H      -1.5849807023     6.1469783778     4.2992803761
   92      H       0.1713864456     6.9882559820     6.1027992793
   93      H      10.0141361985    -4.5874884897    -3.2250994781
   94      C      11.0027881620    -4.9780528882    -1.4622705739
   95      H      11.0875692339    -3.3104491939    -2.7859125528
   96      H      10.3574808952    -5.8158294695    -1.1702929528
   97      H      11.3585125365    -4.4844385909    -0.5492655931
   98      C      12.3026065374    -5.6318339873    -2.1664555391
   99      H      12.0101902018    -6.2173682102    -3.0468902957
  100      C      13.0951655719    -6.6003978724    -1.2630131351
  101      H      12.9872806657    -4.8303403089    -2.4679621253
  102      H      13.0637469039    -6.0590747809    -0.3094602115
  103      H      14.1431446368    -6.6079763444    -1.5891119641
  104      C      12.6459239157    -8.0681762622    -1.2872522080
  105      H      11.7217679483    -8.2102585958    -0.7133137458
  106      C      13.7529047377    -9.0860252032    -0.7746178422
  107      H      12.3556152061    -8.3910600645    -2.2950616659
  108      H      14.8224295652    -8.9209249687    -0.9521271547
  109      H      13.5230938322   -10.1001688582    -1.1252181768
  110      H      13.7417642117    -9.1783024939     0.3188398800
 ----------------------------------------------------------------

   10   -5663.4994114461      4.83E-06 Convergence criterion met
 Total energy in the final basis set = -5663.4994114461

                    Orbital Energies (a.u.)
 --------------------------------------------------------------

 Alpha MOs
 -- Occupied --
-88.988 -88.984 -88.928 -88.928 -88.928 -88.925 -88.911 -88.908
-14.388 -14.385 -14.385 -14.377 -14.349 -14.346 -14.345 -14.340
-14.327 -14.326 -10.274 -10.273 -10.271 -10.262 -10.253 -10.252
-10.251 -10.250 -10.243 -10.240 -10.240 -10.239 -10.239 -10.238
-10.236 -10.234 -10.232 -10.231 -10.229 -10.229 -10.228 -10.227
-10.227 -10.225 -10.223 -10.221 -10.219 -10.214 -10.214 -10.213
-10.210 -10.210 -10.208 -10.206 -10.202 -10.201 -10.194 -10.184
-10.183 -10.181 -10.181 -10.179 -10.175 -10.175 -10.174 -10.173
-10.172 -10.171 -10.171 -10.170  -8.045  -8.039  -7.988  -7.988
 -7.987  -7.982  -7.971  -7.967  -6.010  -6.005  -6.004  -6.003
 -5.999  -5.997  -5.952  -5.952  -5.952  -5.949  -5.949  -5.948
 -5.947  -5.945  -5.945  -5.944  -5.943  -5.939  -5.935  -5.932
 -5.932  -5.928  -5.928  -5.924  -1.058  -1.042  -0.975  -0.964
 -0.956  -0.944  -0.942  -0.932  -0.926  -0.912  -0.909  -0.904
 -0.857  -0.835  -0.830  -0.825  -0.808  -0.807  -0.803  -0.801
 -0.799  -0.796  -0.794  -0.792  -0.784  -0.776  -0.763  -0.761
 -0.751  -0.747  -0.740  -0.735  -0.735  -0.712  -0.708  -0.705
 -0.694  -0.690  -0.672  -0.669  -0.653  -0.651  -0.641  -0.641
 -0.631  -0.631  -0.623  -0.622  -0.610  -0.609  -0.606  -0.600
 -0.592  -0.589  -0.587  -0.582  -0.580  -0.570  -0.565  -0.558
 -0.551  -0.547  -0.541  -0.538  -0.525  -0.523  -0.519  -0.512
 -0.506  -0.503  -0.502  -0.492  -0.486  -0.480  -0.478  -0.477
 -0.472  -0.470  -0.466  -0.463  -0.455  -0.455  -0.451  -0.447
 -0.446  -0.445  -0.441  -0.440  -0.439  -0.432  -0.429  -0.425
 -0.424  -0.422  -0.419  -0.417  -0.415  -0.414  -0.413  -0.412
 -0.410  -0.406  -0.404  -0.403  -0.402  -0.396  -0.396  -0.395
 -0.393  -0.392  -0.389  -0.389  -0.386  -0.383  -0.382  -0.381
 -0.378  -0.372  -0.369  -0.365  -0.361  -0.357  -0.356  -0.354
 -0.354  -0.353  -0.349  -0.349  -0.347  -0.342  -0.342  -0.339
 -0.338  -0.337  -0.336  -0.328  -0.325  -0.324  -0.321  -0.319
 -0.316  -0.315  -0.307  -0.306  -0.303  -0.300  -0.296  -0.296
 -0.296  -0.295  -0.292  -0.290  -0.286  -0.285  -0.283  -0.277
 -0.273  -0.272  -0.267  -0.265  -0.257  -0.254  -0.253  -0.247
 -0.245  -0.241  -0.237  -0.224  -0.196  -0.187

          Ground-State Mulliken Net Atomic Charges

     Atom                 Charge (a.u.)
  ----------------------------------------
      1 C                     0.231539
      2 C                    -0.104409
      3 N                    -0.466737
      4 C                    -0.085681
      5 C                     0.109286
      6 C                     0.046491
      7 C                    -0.005264
      8 C                     0.066602
      9 C                     0.240948
     10 N                    -0.541668
     11 N                    -0.550304
     12 C                     0.211186
     13 C                     0.322171
     14 S                     0.586352
     15 N                    -0.557531
     16 C                    -0.203831
     17 S                     0.381732
     18 C                    -0.136353
     19 C                    -0.282018
     20 S                     0.286044
     21 C                     0.221120
     22 C                     0.060339
     23 C                    -0.309384
     24 C                    -0.095244
     25 N                    -0.422505
     26 S                     0.241964
     27 C                     0.130379
     28 C                    -0.316712
     29 C                    -0.233247
     30 H                     0.099255
     31 H                     0.097681
     32 H                     0.098175
     33 H                     0.121911
     34 H                     0.135071
     35 H                     0.120086
     36 H                     0.116396
     37 H                     0.142501
     38 H                     0.113647
     39 C                    -0.175222
     40 H                     0.088325
     41 H                     0.113538
     42 H                     0.095558
     43 C                    -0.186570
     44 H                     0.105306
     45 C                    -0.164220
     46 H                     0.083854
     47 H                     0.089391
     48 H                     0.088753
     49 C                    -0.180791
     50 H                     0.098311
     51 C                    -0.318865
     52 H                     0.093490
     53 H                     0.102223
     54 H                     0.103462
     55 H                     0.101029
     56 C                     0.276038
     57 C                    -0.126372
     58 N                    -0.486566
     59 C                    -0.087884
     60 C                     0.091775
     61 C                     0.029514
     62 C                     0.040485
     63 C                     0.063539
     64 C                     0.210208
     65 N                    -0.537944
     66 N                    -0.532184
     67 C                     0.166138
     68 C                     0.313137
     69 S                     0.611208
     70 N                    -0.536096
     71 C                    -0.223567
     72 S                     0.320073
     73 C                    -0.114781
     74 C                    -0.221575
     75 S                     0.301496
     76 C                     0.152056
     77 C                     0.025848
     78 C                    -0.340828
     79 C                    -0.033968
     80 N                    -0.416955
     81 S                     0.264356
     82 C                     0.139201
     83 C                    -0.307846
     84 C                    -0.217651
     85 H                     0.093426
     86 H                     0.106569
     87 H                     0.126161
     88 H                     0.109043
     89 H                     0.130789
     90 H                     0.128036
     91 H                     0.118859
     92 H                     0.131661
     93 H                     0.095064
     94 C                    -0.178908
     95 H                     0.116539
     96 H                     0.092502
     97 H                     0.121696
     98 C                    -0.196165
     99 H                     0.081894
    100 C                    -0.170105
    101 H                     0.088034
    102 H                     0.095114
    103 H                     0.088823
    104 C                    -0.174416
    105 H                     0.099083
    106 C                    -0.333345
    107 H                     0.095191
    108 H                     0.104081
    109 H                     0.098222
    110 H                     0.103739
  ----------------------------------------
  Sum of atomic charges =     0.000000

                    Cartesian Multipole Moments
 -----------------------------------------------------------------
    Charge (ESU x 10^10)
                 0.0000
    Dipole Moment (Debye)
         X      -2.2788      Y       3.1308      Z      -2.4110
       Tot       4.5615
    Quadrupole Moments (Debye-Ang)
        XX    -448.6738     XY       4.2595     YY    -415.8450
        XZ       2.9550     YZ      15.4162     ZZ    -410.3415

 Total job time:  85.84s(wall), 981.56s(cpu)
        *  Thank you very much for using Q-Chem.  Have a nice day.  *
