 Q-Chem 4.4, Q-Chem, Inc., Pleasanton, CA (2016)
 Q-Chem 4.4.2 for Intel X86 Linux

User input:
--------------------------------------------------------------
$comment
SP
$end

$rem
MEM_STATIC 5000
MEM_TOTAL 20000
JOBTYPE SP
EXCHANGE B3LYP
BASIS 6-31g(d,p)
$end

$molecule
0 1
C          10.750000    -15.784000    -10.305000
C          11.325000    -16.931000     -9.711000
N           9.511000    -15.371000    -10.071000
C          10.460000    -17.662000     -8.910000
C           8.662000    -16.220000     -9.408000
C           9.100000    -17.352000     -8.722000
C           8.234000    -18.203000     -7.768000
C           8.529000    -19.600000     -7.583000
C           7.143000    -17.691000     -6.978000
N           7.814000    -20.416000     -6.790000
N           6.817000    -16.392000     -6.969000
C           6.465000    -18.519000     -6.170000
C           6.727000    -19.913000     -6.138000
S           5.405000    -16.410000     -5.958000
N           5.499000    -17.947000     -5.452000
C           6.043000    -20.960000     -5.386000
S           6.900000    -22.306000     -4.644000
C           4.722000    -21.132000     -5.221000
C           5.370000    -22.870000     -3.837000
S           3.341000    -20.215000     -5.886000
C           4.365000    -22.186000     -4.377000
C           5.313000    -23.737000     -2.738000
C           2.232000    -21.367000     -5.068000
C           2.939000    -22.282000     -4.337000
N           4.213000    -23.830000     -1.944000
S           6.768000    -24.253000     -2.045000
C           4.569000    -24.669000     -0.937000
C           5.870000    -25.078000     -0.881000
C          11.613000    -14.866000    -11.196000
H          12.370000    -17.209000     -9.812000
H          10.806000    -18.569000     -8.423000
H           7.633000    -15.886000     -9.284000
H           9.369000    -20.089000     -8.072000
H           1.157000    -21.306000     -5.175000
H           2.469000    -23.061000     -3.747000
H           3.790000    -24.853000     -0.209000
H           6.422000    -25.711000     -0.199000
H          12.343000    -15.448000    -11.772000
C          12.254000    -13.779000    -10.364000
H          11.008000    -14.526000    -12.047000
H          12.890000    -14.249000     -9.603000
H          11.459000    -13.131000     -9.975000
C          13.195000    -12.859000    -11.210000
H          12.715000    -12.393000    -12.079000
C          14.504000    -13.437000    -11.660000
H          13.417000    -12.038000    -10.518000
H          14.279000    -14.185000    -12.430000
H          14.973000    -13.897000    -10.781000
C          15.432000    -12.351000    -12.290000
H          14.945000    -11.826000    -13.121000
C          16.753000    -13.015000    -12.764000
H          15.687000    -11.614000    -11.520000
H          17.249000    -13.465000    -11.895000
H          17.393000    -12.266000    -13.246000
H          16.493000    -13.803000    -13.482000
C           6.144000    -13.420000    -18.268000
C           6.697000    -12.594000    -17.231000
N           5.206000    -14.367000    -18.025000
C           6.166000    -12.711000    -15.945000
C           4.833000    -14.543000    -16.767000
C           5.167000    -13.669000    -15.672000
C           4.682000    -13.815000    -14.307000
C           5.452000    -13.848000    -13.158000
C           3.277000    -14.076000    -13.978000
N           5.017000    -13.958000    -11.920000
N           2.299000    -13.952000    -14.913000
C           2.760000    -14.156000    -12.669000
C           3.712000    -14.036000    -11.638000
S           0.885000    -14.159000    -14.073000
N           1.443000    -14.088000    -12.599000
C           3.330000    -13.861000    -10.195000
S           1.823000    -14.357000     -9.427000
C           4.145000    -13.552000     -9.152000
C           2.341000    -13.972000     -7.838000
S           5.810000    -13.050000     -9.174000
C           3.577000    -13.560000     -7.900000
C           1.586000    -14.194000     -6.633000
C           5.738000    -12.821000     -7.400000
C           4.526000    -13.185000     -6.902000
N           0.278000    -14.281000     -6.746000
S           2.290000    -14.524000     -5.055000
C          -0.278000    -14.525000     -5.501000
C           0.637000    -14.644000     -4.509000
C           6.604000    -13.304000    -19.725000
H           7.337000    -11.755000    -17.490000
H           6.406000    -11.926000    -15.234000
H           4.235000    -15.434000    -16.587000
H           6.514000    -13.624000    -13.248000
H           6.571000    -12.369000     -6.877000
H           4.315000    -13.063000     -5.846000
H          -1.358000    -14.579000     -5.457000
H           0.390000    -14.870000     -3.480000
H           5.878000    -12.628000    -20.194000
C           6.616000    -14.630000    -20.432000
H           7.558000    -12.770000    -19.808000
H           5.616000    -15.081000    -20.477000
H           7.315000    -15.220000    -19.826000
C           7.081000    -14.403000    -21.919000
H           6.266000    -13.935000    -22.486000
C           7.493000    -15.768000    -22.440000
H           7.927000    -13.714000    -21.808000
H           6.803000    -16.516000    -22.030000
H           8.421000    -16.136000    -21.986000
C           7.815000    -15.851000    -23.915000
H           7.158000    -16.593000    -24.385000
C           9.358000    -15.986000    -24.192000
H           7.638000    -14.862000    -24.355000
H           9.697000    -17.029000    -24.188000
H           9.967000    -15.311000    -23.578000
H           9.516000    -15.770000    -25.255000
$end

--------------------------------------------------------------

             Standard Nuclear Orientation (Angstroms)
    I     Atom           X                Y                Z
 ----------------------------------------------------------------
    1      C       1.4757622180    -4.3889958935     1.3853075833
    2      C       0.5422905581    -5.2709338036     0.7937958059
    3      N       1.2457971158    -3.0992819727     1.5955456724
    4      C      -0.6292292268    -4.6670834083     0.3612532139
    5      C       0.1468972120    -2.5341673393     1.0003688478
    6      C      -0.8838621671    -3.2848636560     0.4365833014
    7      C      -2.2433701713    -2.7190180733    -0.0279915181
    8      C      -2.9719277973    -3.3741507138    -1.0829152163
    9      C      -2.8962287987    -1.5754426190     0.5572740567
   10      N      -4.1489382711    -2.9365411235    -1.5615321729
   11      N      -2.3871490864    -0.9258262358     1.6120699617
   12      C      -4.0856380141    -1.1774061951     0.0829274287
   13      C      -4.6832538016    -1.7919643512    -1.0475935324
   14      S      -3.5211531085     0.3789620836     1.7786572339
   15      N      -4.6278869570    -0.1351608532     0.7118588488
   16      C      -5.9204688385    -1.4418054072    -1.7377070493
   17      S      -7.0254367525    -2.6548926649    -2.3734697520
   18      C      -6.3601946619    -0.2205392568    -2.0797599546
   19      C      -8.2388248768    -1.3667198956    -2.7960158161
   20      S      -5.5984161320     1.3831756690    -1.8846525273
   21      C      -7.6276353026    -0.1924176352    -2.6658524361
   22      C      -9.5995985422    -1.5929549683    -3.0406619349
   23      C      -7.0103328842     2.1127441806    -2.7215096667
   24      C      -7.9409615766     1.1562798890    -3.0224104739
   25      N     -10.5233864598    -0.5972143782    -2.9758424884
   26      S     -10.1976129050    -3.1659086741    -2.8625455086
   27      C     -11.7223310143    -1.2098233597    -3.1545830575
   28      C     -11.7363898072    -2.5734110019    -3.2133120317
   29      C       2.8086005620    -4.9379175316     1.9363075688
   30      H       0.6820861997    -6.3455528018     0.7219544025
   31      H      -1.4006177651    -5.2605400370    -0.1207249524
   32      H       0.0140543758    -1.4617119592     1.1344033156
   33      H      -2.6162145806    -4.2853300809    -1.5594257287
   34      H      -7.0668265800     3.1710679571    -2.9395790282
   35      H      -8.8819698107     1.3776804237    -3.5136602134
   36      H     -12.5747615380    -0.5438080796    -3.1329763672
   37      H     -12.5254451687    -3.3049463749    -3.3262927133
   38      H       3.1820582421    -5.7624838284     1.3166142710
   39      C       2.6578052274    -5.3187352896     3.3912689437
   40      H       3.6093185857    -4.2221565798     1.7074781425
   41      H       1.8845352038    -6.0933011808     3.4726209603
   42      H       2.4677051833    -4.4046788943     3.9671273285
   43      C       3.9646918961    -5.9447254460     3.9809981691
   44      H       4.8573524441    -5.3160543595     3.8778147836
   45      C       4.3244139746    -7.3333477211     3.5423716726
   46      H       3.7512974499    -5.9827919716     5.0558017558
   47      H       4.6382618116    -7.2694657419     2.4933494479
   48      H       3.4237426886    -7.9503782166     3.6531263669
   49      C       5.5114092608    -7.9151558897     4.3730469674
   50      H       6.3952944855    -7.2664675124     4.3369180507
   51      C       5.8565061725    -9.3363233516     3.8516985554
   52      H       5.1976877981    -8.0108191701     5.4187626940
   53      H       4.9735238560    -9.9762949718     3.9719298081
   54      H       6.7170907395    -9.7350874103     4.4024311844
   55      H       6.1010755738    -9.2517207057     2.7853514261
   56      C       8.7834590843     1.0795249666    -1.2426092939
   57      C       8.3224063748     0.7054901086     0.0654359362
   58      N       7.9975775010     1.7270413997    -2.1363735838
   59      C       7.0477889082     1.1205308039     0.4559964758
   60      C       6.7478773957     1.9758828462    -1.7772126430
   61      C       6.2204986862     1.8224865830    -0.4457479295
   62      C       4.8709947166     2.1815479352    -0.0338256291
   63      C       3.9693973307     1.3704217445     0.6320470737
   64      C       4.2334684308     3.4523112152    -0.3931415364
   65      N       2.7561101852     1.6971642907     1.0259285421
   66      N       4.9517291159     4.4764520985    -0.9235395373
   67      C       2.9571221549     3.8622087222     0.0428564199
   68      C       2.2570482958     2.9211903119     0.8226294273
   69      S       3.8852974233     5.7432428106    -0.9997611656
   70      N       2.7074160503     5.1465692276    -0.1362467728
   71      C       0.9967986878     3.2597660059     1.5682402003
   72      S      -0.1484663110     4.5453510869     1.1907112845
   73      C       0.3465438618     2.4991093019     2.4880907534
   74      C      -1.2964843518     4.0624010077     2.3698142481
   75      S       0.8619466949     1.0238191491     3.2513678228
   76      C      -0.8562667475     2.9797734385     2.9489601773
   77      C      -2.5827810137     4.6706114987     2.5862741663
   78      C      -0.6155371676     1.0600726580     4.2615302450
   79      C      -1.4156241748     2.1092492000     3.9320862214
   80      N      -2.7375575031     5.9157723778     2.1902683285
   81      S      -4.0045852375     3.8240821941     3.1833176202
   82      C      -4.0359301834     6.3242520528     2.4473086717
   83      C      -4.8127356625     5.3592077909     2.9956815561
   84      C      10.1968680822     0.7416189894    -1.7284071482
   85      H       9.0256657123     0.3183677623     0.7976685450
   86      H       6.8047737059     1.0548104256     1.5123914982
   87      H       6.0984559971     2.3131685935    -2.5824301115
   88      H       4.3229315020     0.4085282800     1.0006858570
   89      H      -0.7408669586     0.3460724339     5.0654071781
   90      H      -2.3292159521     2.2893272231     4.4865796569
   91      H      -4.2771102208     7.3498255316     2.1997541745
   92      H      -5.8613958900     5.4855091752     3.2308106434
   93      H      10.7879952444     1.6410218863    -1.5147342505
   94      C      10.2402447548     0.4242674338    -3.1966290164
   95      H      10.6626132928    -0.0363654436    -1.1119798444
   96      H       9.9163811823     1.2747339502    -3.8108318257
   97      H       9.5614968918    -0.4340040988    -3.2779205572
   98      C      11.7297536619     0.1117782926    -3.5999114886
   99      H      12.3012649492     1.0483979439    -3.6291771236
  100      C      11.6579214667    -0.6111914026    -4.9327899360
  101      H      12.0744859865    -0.5320794534    -2.7817642968
  102      H      10.8530752182    -0.1601879950    -5.5265259401
  103      H      11.2488142543    -1.6250962778    -4.8470450071
  104      C      12.9769368349    -0.8664531049    -5.6265030770
  105      H      12.9571183853    -0.3999144834    -6.6190059454
  106      C      13.4173246166    -2.3753557010    -5.5552671521
  107      H      13.7708181642    -0.4172828830    -5.0173655337
  108      H      13.0114343394    -2.9720489089    -6.3810978240
  109      H      13.2726229272    -2.8203991222    -4.5630475321
  110      H      14.4768896259    -2.4166170960    -5.8331313063
 ----------------------------------------------------------------

   10   -5663.4926883817      3.94E-06 Convergence criterion met
 Total energy in the final basis set = -5663.4926883817

                    Orbital Energies (a.u.)
 --------------------------------------------------------------

 Alpha MOs
 -- Occupied --
-88.984 -88.984 -88.934 -88.922 -88.918 -88.916 -88.905 -88.903
-14.388 -14.383 -14.381 -14.376 -14.348 -14.345 -14.343 -14.341
-14.330 -14.324 -10.269 -10.264 -10.260 -10.260 -10.254 -10.252
-10.251 -10.251 -10.239 -10.236 -10.235 -10.233 -10.232 -10.232
-10.231 -10.230 -10.229 -10.229 -10.228 -10.227 -10.226 -10.225
-10.225 -10.225 -10.222 -10.221 -10.221 -10.219 -10.215 -10.213
-10.210 -10.205 -10.201 -10.200 -10.200 -10.197 -10.197 -10.194
-10.182 -10.181 -10.181 -10.179 -10.176 -10.175 -10.174 -10.173
-10.172 -10.172 -10.171 -10.166  -8.041  -8.039  -7.995  -7.986
 -7.978  -7.976  -7.965  -7.962  -6.006  -6.004  -6.000  -5.999
 -5.998  -5.997  -5.958  -5.955  -5.952  -5.949  -5.946  -5.943
 -5.942  -5.940  -5.939  -5.936  -5.934  -5.932  -5.930  -5.927
 -5.926  -5.923  -5.921  -5.918  -1.045  -1.036  -0.974  -0.973
 -0.964  -0.954  -0.941  -0.933  -0.927  -0.915  -0.904  -0.903
 -0.848  -0.840  -0.831  -0.822  -0.819  -0.813  -0.812  -0.810
 -0.807  -0.807  -0.799  -0.799  -0.783  -0.781  -0.771  -0.765
 -0.749  -0.748  -0.739  -0.738  -0.724  -0.722  -0.710  -0.709
 -0.695  -0.692  -0.677  -0.674  -0.653  -0.651  -0.644  -0.640
 -0.634  -0.633  -0.625  -0.623  -0.611  -0.607  -0.602  -0.594
 -0.593  -0.593  -0.586  -0.582  -0.581  -0.574  -0.568  -0.563
 -0.555  -0.546  -0.542  -0.541  -0.525  -0.523  -0.520  -0.512
 -0.510  -0.505  -0.502  -0.496  -0.487  -0.480  -0.477  -0.475
 -0.473  -0.472  -0.471  -0.469  -0.465  -0.461  -0.448  -0.447
 -0.447  -0.446  -0.443  -0.441  -0.438  -0.437  -0.433  -0.428
 -0.428  -0.426  -0.424  -0.422  -0.419  -0.418  -0.415  -0.414
 -0.414  -0.410  -0.407  -0.404  -0.401  -0.398  -0.397  -0.396
 -0.393  -0.391  -0.390  -0.386  -0.382  -0.381  -0.380  -0.380
 -0.380  -0.374  -0.371  -0.370  -0.365  -0.363  -0.360  -0.353
 -0.351  -0.351  -0.346  -0.345  -0.340  -0.339  -0.338  -0.337
 -0.336  -0.335  -0.334  -0.331  -0.331  -0.329  -0.326  -0.313
 -0.310  -0.309  -0.309  -0.307  -0.305  -0.302  -0.302  -0.297
 -0.297  -0.295  -0.294  -0.292  -0.286  -0.286  -0.285  -0.283
 -0.277  -0.272  -0.267  -0.263  -0.255  -0.253  -0.250  -0.244
 -0.242  -0.242  -0.231  -0.229  -0.198  -0.191

          Ground-State Mulliken Net Atomic Charges

     Atom                 Charge (a.u.)
  ----------------------------------------
      1 C                     0.248731
      2 C                    -0.104648
      3 N                    -0.474542
      4 C                    -0.087416
      5 C                     0.051064
      6 C                     0.065496
      7 C                     0.014513
      8 C                     0.063389
      9 C                     0.275983
     10 N                    -0.506567
     11 N                    -0.581235
     12 C                     0.221174
     13 C                     0.256712
     14 S                     0.595175
     15 N                    -0.535654
     16 C                    -0.217912
     17 S                     0.298585
     18 C                    -0.106393
     19 C                    -0.261377
     20 S                     0.245109
     21 C                     0.202685
     22 C                     0.055426
     23 C                    -0.300719
     24 C                    -0.049730
     25 N                    -0.437640
     26 S                     0.291330
     27 C                     0.122198
     28 C                    -0.310958
     29 C                    -0.215628
     30 H                     0.096237
     31 H                     0.084904
     32 H                     0.136551
     33 H                     0.113281
     34 H                     0.135042
     35 H                     0.118878
     36 H                     0.105825
     37 H                     0.136170
     38 H                     0.090964
     39 C                    -0.168912
     40 H                     0.108314
     41 H                     0.091530
     42 H                     0.115357
     43 C                    -0.183507
     44 H                     0.087161
     45 C                    -0.161364
     46 H                     0.084074
     47 H                     0.090443
     48 H                     0.085816
     49 C                    -0.180067
     50 H                     0.093413
     51 C                    -0.313333
     52 H                     0.094405
     53 H                     0.103220
     54 H                     0.098037
     55 H                     0.101663
     56 C                     0.256916
     57 C                    -0.122767
     58 N                    -0.467818
     59 C                    -0.086937
     60 C                     0.107430
     61 C                     0.035589
     62 C                     0.046005
     63 C                     0.056395
     64 C                     0.171302
     65 N                    -0.509391
     66 N                    -0.533671
     67 C                     0.217783
     68 C                     0.302414
     69 S                     0.597668
     70 N                    -0.533387
     71 C                    -0.231043
     72 S                     0.331953
     73 C                    -0.122567
     74 C                    -0.234120
     75 S                     0.282923
     76 C                     0.186628
     77 C                     0.052607
     78 C                    -0.297951
     79 C                    -0.100118
     80 N                    -0.424414
     81 S                     0.277348
     82 C                     0.125563
     83 C                    -0.309113
     84 C                    -0.233998
     85 H                     0.093165
     86 H                     0.104885
     87 H                     0.104371
     88 H                     0.107964
     89 H                     0.133199
     90 H                     0.114363
     91 H                     0.118710
     92 H                     0.130401
     93 H                     0.115350
     94 C                    -0.170364
     95 H                     0.095656
     96 H                     0.125492
     97 H                     0.097823
     98 C                    -0.177537
     99 H                     0.097640
    100 C                    -0.177162
    101 H                     0.087674
    102 H                     0.091984
    103 H                     0.095061
    104 C                    -0.181164
    105 H                     0.095152
    106 C                    -0.331144
    107 H                     0.097491
    108 H                     0.103221
    109 H                     0.108006
    110 H                     0.097286
  ----------------------------------------
  Sum of atomic charges =     0.000000

                    Cartesian Multipole Moments
 -----------------------------------------------------------------
    Charge (ESU x 10^10)
                 0.0000
    Dipole Moment (Debye)
         X      -1.8819      Y      -1.6319      Z       1.8808
       Tot       3.1212
    Quadrupole Moments (Debye-Ang)
        XX    -395.0421     XY     -11.5635     YY    -425.4704
        XZ       4.7795     YZ      -1.9267     ZZ    -441.5657

 Total job time:  89.29s(wall), 1050.20s(cpu)
        *  Thank you very much for using Q-Chem.  Have a nice day.  *
