 Q-Chem 4.4, Q-Chem, Inc., Pleasanton, CA (2016)
 Q-Chem 4.4.2 for Intel X86 Linux

User input:
--------------------------------------------------------------
$comment
SP
$end

$rem
MEM_STATIC 5000
MEM_TOTAL 20000
JOBTYPE SP
EXCHANGE B3LYP
BASIS 6-31g(d,p)
$end

$molecule
0 1
C          15.355000    -24.362000    -11.115000
C          15.660000    -23.364000    -10.193000
N          14.691000    -25.501000    -10.778000
C          15.254000    -23.529000     -8.862000
C          14.321000    -25.612000     -9.535000
C          14.514000    -24.659000     -8.482000
C          13.968000    -24.882000     -7.112000
C          12.738000    -25.498000     -7.009000
C          14.486000    -24.483000     -5.864000
N          12.069000    -25.749000     -5.831000
N          15.627000    -23.780000     -5.744000
C          13.820000    -24.691000     -4.623000
C          12.659000    -25.474000     -4.636000
S          15.917000    -23.599000     -4.119000
N          14.486000    -24.217000     -3.555000
C          11.897000    -25.778000     -3.414000
S          12.412000    -25.320000     -1.796000
C          10.640000    -26.408000     -3.379000
C          10.933000    -26.047000     -1.079000
S           9.535000    -26.902000     -4.671000
C          10.137000    -26.539000     -2.068000
C          10.493000    -25.982000      0.336000
C           8.345000    -27.074000     -3.378000
C           8.800000    -26.928000     -2.103000
N           9.652000    -26.879000      0.827000
S          11.200000    -24.982000      1.556000
C           9.671000    -26.970000      2.177000
C          10.307000    -25.913000      2.769000
C          15.820000    -24.316000    -12.515000
H          16.079000    -22.419000    -10.525000
H          15.393000    -22.664000     -8.220000
H          13.766000    -26.523000     -9.313000
H          12.254000    -25.827000     -7.927000
H           7.362000    -27.383000     -3.709000
H           8.124000    -26.830000     -1.262000
H           9.053000    -27.700000      2.683000
H          10.207000    -25.605000      3.801000
H          16.647000    -23.602000    -12.622000
C          14.675000    -24.036000    -13.516000
H          16.206000    -25.329000    -12.677000
H          14.283000    -23.021000    -13.369000
H          13.801000    -24.663000    -13.301000
C          15.037000    -24.177000    -15.006000
H          15.898000    -23.525000    -15.201000
C          13.924000    -23.945000    -15.972000
H          15.479000    -25.166000    -15.174000
H          14.339000    -24.121000    -16.972000
H          13.633000    -22.889000    -15.899000
C          12.629000    -24.896000    -15.780000
H          12.078000    -24.788000    -14.837000
C          12.993000    -26.324000    -15.840000
H          11.959000    -24.650000    -16.613000
H          12.114000    -26.973000    -15.936000
H          13.566000    -26.642000    -14.960000
H          13.572000    -26.581000    -16.736000
C          17.004000    -21.603000     -0.671000
C          16.775000    -21.452000      0.690000
N          17.087000    -22.818000     -1.219000
C          16.621000    -22.593000      1.535000
C          16.991000    -23.869000     -0.468000
C          16.821000    -23.865000      0.954000
C          16.634000    -25.162000      1.738000
C          15.726000    -25.204000      2.845000
C          17.432000    -26.319000      1.546000
N          15.478000    -26.283000      3.554000
N          18.445000    -26.528000      0.689000
C          17.171000    -27.436000      2.366000
C          16.190000    -27.395000      3.341000
S          19.038000    -28.026000      1.005000
N          18.108000    -28.441000      2.263000
C          15.886000    -28.487000      4.263000
S          15.153000    -28.235000      5.857000
C          15.815000    -29.858000      3.956000
C          14.846000    -29.960000      6.028000
S          16.385000    -30.792000      2.585000
C          15.326000    -30.635000      4.974000
C          14.248000    -30.492000      7.211000
C          16.031000    -32.319000      3.481000
C          15.482000    -32.012000      4.679000
N          14.283000    -31.752000      7.479000
S          13.675000    -29.358000      8.479000
C          13.770000    -31.967000      8.707000
C          13.396000    -30.821000      9.385000
C          17.198000    -20.439000     -1.626000
H          16.824000    -20.448000      1.102000
H          16.464000    -22.437000      2.599000
H          16.970000    -24.763000     -1.089000
H          15.129000    -24.339000      3.131000
H          16.229000    -33.285000      3.036000
H          15.156000    -32.784000      5.366000
H          13.721000    -32.992000      9.051000
H          13.244000    -30.728000     10.452000
H          17.552000    -19.653000     -0.947000
C          15.812000    -19.988000     -2.309000
H          17.942000    -20.692000     -2.391000
H          15.562000    -20.573000     -3.202000
H          15.916000    -18.953000     -2.658000
C          14.606000    -20.165000     -1.394000
H          13.721000    -20.183000     -2.041000
C          14.435000    -18.931000     -0.462000
H          14.584000    -21.108000     -0.835000
H          14.166000    -18.083000     -1.103000
H          15.392000    -18.681000      0.013000
C          13.367000    -18.985000      0.646000
H          12.389000    -19.297000      0.260000
C          13.321000    -17.690000      1.475000
H          13.622000    -19.778000      1.360000
H          12.990000    -16.800000      0.925000
H          14.325000    -17.435000      1.836000
H          12.588000    -17.769000      2.288000
$end

--------------------------------------------------------------

             Standard Nuclear Orientation (Angstroms)
    I     Atom           X                Y                Z
 ----------------------------------------------------------------
    1      C       9.5530043503    -0.6317996828     1.8489343023
    2      C       8.9235092050     0.5996747155     1.6867009255
    3      N       8.9504140557    -1.8145165680     1.5491815601
    4      C       7.6178556103     0.6275738981     1.1786533627
    5      C       7.7423602855    -1.7462130864     1.0693787643
    6      C       6.9798694683    -0.5631024048     0.7989645107
    7      C       5.6274245835    -0.6271039361     0.1732316304
    8      C       5.4178197089    -1.5883662479    -0.7937252272
    9      C       4.5121216884     0.2133612253     0.3596364714
   10      N       4.2480161992    -1.7664533583    -1.4994806591
   11      N       4.5350597818     1.2759458797     1.1847896064
   12      C       3.2932875785     0.0903802550    -0.3657738217
   13      C       3.1466895567    -1.0260725843    -1.1983728113
   14      S       3.0086483584     1.9297732059     1.1767899814
   15      N       2.3645726463     1.0071896159    -0.0404967541
   16      C       1.9244813705    -1.2739973633    -1.9800917209
   17      S       0.4696331047    -0.2925234916    -1.8659051939
   18      C       1.7776909958    -2.2736112545    -2.9585592239
   19      C      -0.3489076492    -1.2939870806    -3.1137516244
   20      S       2.9365309687    -3.4147275010    -3.6580366211
   21      C       0.5049597826    -2.2533833976    -3.5657141404
   22      C      -1.6713147119    -1.0492772296    -3.7393766313
   23      C       1.7016043490    -3.6747220763    -4.8929018221
   24      C       0.4945676252    -3.0790602355    -4.6874381539
   25      N      -2.3481116701    -2.0372439817    -4.3040345579
   26      S      -2.6052574321     0.3950392489    -3.5663162219
   27      C      -3.6715105612    -1.7900138810    -4.4405433571
   28      C      -3.9829840348    -0.4690089537    -4.2669367410
   29      C      10.8899715893    -0.7635975752     2.4600716986
   30      H       9.4799105665     1.5225647033     1.8189945208
   31      H       7.2290776325     1.6137622517     0.9420223945
   32      H       7.3071983427    -2.7118694211     0.8136994205
   33      H       6.2333137054    -2.2745661063    -1.0158069601
   34      H       1.9811895881    -4.3756986542    -5.6686562492
   35      H      -0.2562012579    -3.0238354578    -5.4666411494
   36      H      -4.3276619489    -2.5454904596    -4.8523448818
   37      H      -4.8868846670     0.0224895796    -4.6005245689
   38      H      11.1485787749     0.1455064661     3.0184856719
   39      C      11.9810061753    -1.1472457591     1.4334833668
   40      H      10.7529552344    -1.5866284691     3.1708850822
   41      H      12.1332619249    -0.3280770569     0.7184457286
   42      H      11.6443536889    -1.9679576063     0.7882491712
   43      C      13.3584750871    -1.5059157988     2.0208164920
   44      H      13.6832854720    -0.6622692963     2.6430775246
   45      C      14.4013593313    -1.9135833773     1.0349419572
   46      H      13.2311634568    -2.2891633136     2.7771392269
   47      H      15.2958259498    -2.1682826623     1.6165421142
   48      H      14.6312344634    -1.0398568502     0.4113191710
   49      C      14.0182497848    -3.1798461018     0.1032253759
   50      H      13.1663827181    -3.0477016256    -0.5760200423
   51      C      13.6715351173    -4.3623514712     0.9136265053
   52      H      14.9166789004    -3.3890376744    -0.4903814050
   53      H      13.6281205202    -5.2791856383     0.3131364698
   54      H      12.7128438065    -4.2408951621     1.4332536175
   55      H      14.4364829203    -4.6086007980     1.6608360662
   56      C       0.1856921399     4.9424117600     1.0807893000
   57      C      -1.0711715554     5.3254906830     0.6323395366
   58      N       0.3788732140     3.7385575062     1.6256140501
   59      C      -2.1861510202     4.4397855791     0.7417436592
   60      C      -0.6239788667     2.9321038846     1.7730530555
   61      C      -1.9821050698     3.2170151185     1.4190490931
   62      C      -3.0792697570     2.1638101486     1.5562458148
   63      C      -4.1130797751     2.0751542689     0.5687975977
   64      C      -3.2455038081     1.3462230242     2.7035184652
   65      N      -5.0761577207     1.1804403304     0.5886429722
   66      N      -2.5250004702     1.3036474768     3.8363738235
   67      C      -4.3250082811     0.4391085638     2.7083608146
   68      C      -5.2060284900     0.3687379084     1.6436926210
   69      S      -3.2627276511     0.2272577563     4.8326934388
   70      N      -4.5419410220    -0.1710665811     3.9245965971
   71      C      -6.3748245006    -0.5062402700     1.5863073181
   72      S      -7.8050612372    -0.1509717670     0.6015047146
   73      C      -6.4485852662    -1.8473586208     2.0045081294
   74      C      -8.4235762952    -1.7806322652     0.8480017401
   75      S      -5.4103567099    -2.8242043176     3.0266387226
   76      C      -7.6156451776    -2.4780668021     1.6590340303
   77      C      -9.6777341160    -2.1876065391     0.2988413801
   78      C      -6.6699382510    -4.1171570112     3.0664968879
   79      C      -7.7130220924    -3.7428665826     2.2901356480
   80      N     -10.2790196963    -3.2536255540     0.7022123147
   81      S     -10.5625146826    -1.0551348419    -0.7766957898
   82      C     -11.4943006646    -3.3328945653     0.1241235741
   83      C     -11.8177896883    -2.2616072738    -0.6886337026
   84      C       1.4108218694     5.8365404978     1.0163847505
   85      H      -1.1969633411     6.3513699220     0.2978111914
   86      H      -3.1594515813     4.7813303084     0.3995241161
   87      H      -0.2686942019     1.9656570851     2.1267073933
   88      H      -4.1257314206     2.7203610752    -0.3086863696
   89      H      -6.5134787097    -5.0306474775     3.6245655037
   90      H      -8.5680226880    -4.3916231243     2.1407437767
   91      H     -12.1009896124    -4.1968604630     0.3625631851
   92      H     -12.8113061262    -1.9747233595    -1.0062257481
   93      H       0.9551303250     6.8346785460     1.0015978252
   94      C       2.2536618224     5.6002863002    -0.3344264013
   95      H       2.0433220019     5.6826131063     1.8990058133
   96      H       2.9648562505     4.7692966288    -0.2580546033
   97      H       2.8653398250     6.4912348708    -0.5239063891
   98      C       1.3815046774     5.2397223480    -1.5312244422
   99      H       2.0393575821     4.7609898113    -2.2662092815
  100      C       0.8283746214     6.5221330600    -2.2168561997
  101      H       0.5891417559     4.5109426795    -1.3232456082
  102      H       1.6871778654     7.0440306974    -2.6555199026
  103      H       0.3955363095     7.1950513038    -1.4659860159
  104      C      -0.2022876932     6.3672347599    -3.3504106580
  105      H       0.1291271998     5.6521114184    -4.1130290258
  106      C      -0.6455951207     7.7237345860    -3.9246656071
  107      H      -1.1156948884     5.9078083742    -2.9525605707
  108      H       0.1399809266     8.2839451895    -4.4473465362
  109      H      -0.9696462333     8.3902326648    -3.1158806002
  110      H      -1.4148693243     7.5919790169    -4.6962591982
 ----------------------------------------------------------------

   10   -5663.5485102565      7.19E-06 Convergence criterion met
 Total energy in the final basis set = -5663.5485102565

                    Orbital Energies (a.u.)
 --------------------------------------------------------------

 Alpha MOs
 -- Occupied --
-88.993 -88.977 -88.926 -88.924 -88.923 -88.922 -88.906 -88.904
-14.389 -14.380 -14.379 -14.371 -14.345 -14.345 -14.344 -14.333
-14.329 -14.325 -10.268 -10.268 -10.259 -10.257 -10.256 -10.254
-10.248 -10.247 -10.241 -10.240 -10.239 -10.236 -10.236 -10.232
-10.232 -10.231 -10.230 -10.230 -10.229 -10.228 -10.227 -10.226
-10.226 -10.226 -10.225 -10.223 -10.222 -10.222 -10.216 -10.214
-10.213 -10.205 -10.205 -10.201 -10.198 -10.193 -10.193 -10.192
-10.189 -10.186 -10.180 -10.180 -10.178 -10.177 -10.177 -10.176
-10.176 -10.175 -10.170 -10.162  -8.048  -8.031  -7.988  -7.984
 -7.983  -7.981  -7.965  -7.964  -6.013  -6.007  -6.006  -5.997
 -5.991  -5.989  -5.951  -5.948  -5.948  -5.947  -5.945  -5.944
 -5.944  -5.943  -5.942  -5.940  -5.940  -5.937  -5.930  -5.929
 -5.926  -5.925  -5.921  -5.920  -1.037  -1.020  -0.985  -0.968
 -0.967  -0.957  -0.946  -0.942  -0.919  -0.906  -0.902  -0.893
 -0.846  -0.839  -0.830  -0.826  -0.815  -0.810  -0.809  -0.806
 -0.799  -0.797  -0.795  -0.793  -0.785  -0.785  -0.768  -0.767
 -0.750  -0.747  -0.741  -0.740  -0.729  -0.717  -0.711  -0.711
 -0.693  -0.692  -0.676  -0.668  -0.658  -0.650  -0.649  -0.640
 -0.639  -0.633  -0.628  -0.619  -0.617  -0.607  -0.601  -0.595
 -0.594  -0.587  -0.587  -0.585  -0.583  -0.573  -0.568  -0.554
 -0.549  -0.546  -0.543  -0.532  -0.525  -0.517  -0.514  -0.507
 -0.506  -0.504  -0.499  -0.494  -0.488  -0.486  -0.477  -0.472
 -0.472  -0.471  -0.465  -0.464  -0.459  -0.459  -0.453  -0.452
 -0.447  -0.445  -0.441  -0.439  -0.436  -0.435  -0.430  -0.429
 -0.427  -0.427  -0.420  -0.420  -0.419  -0.418  -0.417  -0.411
 -0.408  -0.406  -0.406  -0.402  -0.399  -0.399  -0.398  -0.397
 -0.396  -0.392  -0.391  -0.389  -0.388  -0.382  -0.381  -0.380
 -0.377  -0.376  -0.373  -0.370  -0.368  -0.366  -0.362  -0.355
 -0.354  -0.353  -0.352  -0.348  -0.345  -0.344  -0.343  -0.339
 -0.336  -0.333  -0.330  -0.329  -0.328  -0.328  -0.321  -0.315
 -0.314  -0.311  -0.310  -0.305  -0.304  -0.302  -0.300  -0.297
 -0.296  -0.295  -0.291  -0.290  -0.288  -0.284  -0.282  -0.280
 -0.270  -0.268  -0.266  -0.264  -0.257  -0.254  -0.250  -0.247
 -0.246  -0.241  -0.233  -0.226  -0.195  -0.190

          Ground-State Mulliken Net Atomic Charges

     Atom                 Charge (a.u.)
  ----------------------------------------
      1 C                     0.259921
      2 C                    -0.121605
      3 N                    -0.468181
      4 C                    -0.063510
      5 C                     0.075995
      6 C                     0.033063
      7 C                     0.084886
      8 C                     0.042486
      9 C                     0.187529
     10 N                    -0.532423
     11 N                    -0.571239
     12 C                     0.231600
     13 C                     0.322484
     14 S                     0.619305
     15 N                    -0.586943
     16 C                    -0.245248
     17 S                     0.331397
     18 C                    -0.109797
     19 C                    -0.220666
     20 S                     0.286835
     21 C                     0.161564
     22 C                     0.031348
     23 C                    -0.308679
     24 C                    -0.045616
     25 N                    -0.417874
     26 S                     0.254653
     27 C                     0.127050
     28 C                    -0.307060
     29 C                    -0.222110
     30 H                     0.091787
     31 H                     0.108258
     32 H                     0.093450
     33 H                     0.113250
     34 H                     0.122416
     35 H                     0.118157
     36 H                     0.117772
     37 H                     0.134029
     38 H                     0.091995
     39 C                    -0.174720
     40 H                     0.120970
     41 H                     0.085266
     42 H                     0.114766
     43 C                    -0.176917
     44 H                     0.082748
     45 C                    -0.176268
     46 H                     0.092351
     47 H                     0.091163
     48 H                     0.086797
     49 C                    -0.177035
     50 H                     0.099266
     51 C                    -0.313090
     52 H                     0.090719
     53 H                     0.095694
     54 H                     0.113861
     55 H                     0.094950
     56 C                     0.265229
     57 C                    -0.120480
     58 N                    -0.467274
     59 C                    -0.083740
     60 C                     0.100953
     61 C                     0.026391
     62 C                     0.017965
     63 C                     0.064184
     64 C                     0.268647
     65 N                    -0.497317
     66 N                    -0.565672
     67 C                     0.177853
     68 C                     0.267415
     69 S                     0.622982
     70 N                    -0.526483
     71 C                    -0.218463
     72 S                     0.311112
     73 C                    -0.135739
     74 C                    -0.250861
     75 S                     0.253282
     76 C                     0.194736
     77 C                     0.085937
     78 C                    -0.308013
     79 C                    -0.040552
     80 N                    -0.429478
     81 S                     0.253958
     82 C                     0.125598
     83 C                    -0.310643
     84 C                    -0.216241
     85 H                     0.092073
     86 H                     0.106976
     87 H                     0.109380
     88 H                     0.109297
     89 H                     0.136462
     90 H                     0.122459
     91 H                     0.113218
     92 H                     0.130952
     93 H                     0.095532
     94 C                    -0.184327
     95 H                     0.118902
     96 H                     0.105742
     97 H                     0.098703
     98 C                    -0.188850
     99 H                     0.093014
    100 C                    -0.164412
    101 H                     0.110594
    102 H                     0.091949
    103 H                     0.078815
    104 C                    -0.180089
    105 H                     0.094819
    106 C                    -0.317893
    107 H                     0.090211
    108 H                     0.101068
    109 H                     0.099604
    110 H                     0.099707
  ----------------------------------------
  Sum of atomic charges =     0.000000

                    Cartesian Multipole Moments
 -----------------------------------------------------------------
    Charge (ESU x 10^10)
                 0.0000
    Dipole Moment (Debye)
         X      -3.7278      Y       2.9858      Z      -0.7214
       Tot       4.8304
    Quadrupole Moments (Debye-Ang)
        XX    -400.9812     XY      17.5368     YY    -426.2127
        XZ      10.8054     YZ      -3.2119     ZZ    -436.3719

 Total job time:  92.93s(wall), 1102.84s(cpu)
        *  Thank you very much for using Q-Chem.  Have a nice day.  *
