 Q-Chem 4.4, Q-Chem, Inc., Pleasanton, CA (2016)
 Q-Chem 4.4.2 for Intel X86 Linux

User input:
--------------------------------------------------------------
$comment
SP
$end

$rem
MEM_STATIC 5000
MEM_TOTAL 20000
JOBTYPE SP
EXCHANGE B3LYP
BASIS 6-31g(d,p)
$end

$molecule
0 1
C          26.436000     26.056000     -2.466000
C          26.067000     24.784000     -2.281000
N          25.581000     27.121000     -2.257000
C          24.649000     24.585000     -2.040000
C          24.320000     26.910000     -1.855000
C          23.747000     25.654000     -1.792000
C          22.304000     25.354000     -1.521000
C          21.883000     24.232000     -0.816000
C          21.231000     26.181000     -1.990000
N          20.570000     23.914000     -0.669000
N          21.449000     27.331000     -2.644000
C          19.933000     25.865000     -1.818000
C          19.611000     24.690000     -1.178000
S          19.955000     27.987000     -2.959000
N          19.018000     26.806000     -2.264000
C          18.233000     24.209000     -1.123000
S          16.893000     24.930000     -2.126000
C          17.841000     23.065000     -0.526000
C          15.887000     23.540000     -1.654000
S          18.642000     22.040000      0.627000
C          16.510000     22.732000     -0.804000
C          14.560000     23.329000     -2.131000
C          17.188000     21.121000      0.695000
C          16.099000     21.605000     -0.044000
N          13.677000     23.037000     -1.205000
S          14.007000     23.796000     -3.752000
C          12.391000     23.109000     -1.825000
C          12.396000     23.446000     -3.169000
C          27.785000     26.312000     -3.116000
H          26.713000     23.920000     -2.402000
H          24.260000     23.572000     -2.081000
H          23.626000     27.736000     -1.707000
H          22.525000     23.399000     -0.533000
H          17.190000     20.289000      1.386000
H          15.102000     21.183000      0.015000
H          11.556000     22.943000     -1.157000
H          11.528000     23.552000     -3.807000
H          27.996000     25.513000     -3.837000
C          28.915000     26.349000     -2.171000
H          27.719000     27.196000     -3.762000
H          29.272000     25.320000     -2.042000
H          28.619000     26.678000     -1.167000
C          30.201000     27.085000     -2.536000
H          30.127000     28.172000     -2.406000
C          30.752000     26.780000     -3.954000
H          30.882000     26.898000     -1.696000
H          30.221000     27.481000     -4.609000
H          30.459000     25.751000     -4.196000
C          32.287000     26.897000     -4.009000
H          32.599000     27.948000     -3.977000
C          32.836000     26.477000     -5.415000
H          32.779000     26.370000     -3.182000
H          32.335000     27.041000     -6.211000
H          32.823000     25.385000     -5.521000
H          33.878000     26.820000     -5.427000
C          14.181000      8.749000      3.405000
C          15.355000      8.869000      4.149000
N          13.653000      9.834000      2.788000
C          15.873000     10.150000      4.351000
C          14.183000     11.034000      2.998000
C          15.256000     11.336000      3.835000
C          15.844000     12.748000      3.923000
C          17.207000     12.889000      4.001000
C          15.064000     13.948000      3.709000
N          17.856000     14.122000      4.004000
N          13.723000     13.985000      3.688000
C          15.719000     15.199000      3.668000
C          17.105000     15.267000      3.857000
S          13.344000     15.530000      3.299000
N          14.882000     16.150000      3.333000
C          17.960000     16.455000      3.728000
S          19.656000     16.470000      3.125000
C          17.545000     17.728000      4.066000
C          19.731000     18.210000      3.292000
S          16.142000     18.310000      4.940000
C          18.576000     18.702000      3.944000
C          20.742000     19.106000      2.807000
C          16.908000     19.869000      5.129000
C          18.212000     20.003000      4.475000
N          21.807000     18.507000      2.407000
S          20.852000     20.845000      2.886000
C          22.833000     19.401000      2.228000
C          22.470000     20.688000      2.347000
C          13.524000      7.435000      3.180000
H          15.872000      7.984000      4.508000
H          16.676000     10.372000      5.048000
H          13.770000     11.815000      2.362000
H          17.886000     12.043000      4.100000
H          16.430000     20.603000      5.764000
H          18.874000     20.859000      4.531000
H          23.760000     18.978000      1.863000
H          23.144000     21.529000      2.447000
H          12.627000      7.651000      2.587000
C          13.194000      6.485000      4.357000
H          14.022000      6.814000      2.424000
H          13.830000      6.682000      5.229000
H          13.429000      5.456000      4.058000
C          11.697000      6.380000      4.826000
H          11.621000      5.940000      5.828000
C          10.821000      5.639000      3.765000
H          11.329000      7.413000      4.801000
H          10.982000      4.558000      3.865000
H          11.087000      5.896000      2.732000
C           9.354000      5.810000      4.096000
H           8.846000      4.889000      3.785000
C           8.804000      6.884000      3.284000
H           9.146000      5.913000      5.168000
H           9.155000      7.838000      3.695000
H           7.711000      6.977000      3.285000
H           9.202000      6.823000      2.263000
$end

--------------------------------------------------------------

             Standard Nuclear Orientation (Angstroms)
    I     Atom           X                Y                Z
 ----------------------------------------------------------------
    1      C      10.3701467398     2.3906905454     0.7288620912
    2      C       9.1280491343     2.7640291146     1.0547176592
    3      N      10.6474148222     1.2084095768     0.0698741385
    4      C       8.1086253762     1.7506184768     0.8493397617
    5      C       9.6563712015     0.3728776012    -0.2706619972
    6      C       8.3506227952     0.5375542069     0.1509263266
    7      C       7.2302168153    -0.4386700024    -0.0423784421
    8      C       5.9129645340    -0.0476291971    -0.2547072343
    9      C       7.4133177609    -1.8597664272     0.0042905532
   10      N       4.8897891868    -0.9394603558    -0.3214259963
   11      N       8.6229667953    -2.4196173150     0.1493980891
   12      C       6.3922869643    -2.7336631633    -0.0854011797
   13      C       5.1097053813    -2.2512123784    -0.2124237101
   14      S       8.3916821296    -4.0646435602     0.1047544304
   15      N       6.7441405081    -4.0744287989    -0.0983855571
   16      C       3.9534194842    -3.1399592046    -0.1324111925
   17      S       4.0718302527    -4.8685056895     0.4328815986
   18      C       2.6689773776    -2.7420573886    -0.2358114808
   19      C       2.2942491164    -4.8897599188     0.5145734683
   20      S       1.9692331253    -1.2702684995    -0.8406506721
   21      C       1.7562429645    -3.7518502074     0.0912486886
   22      C       1.5394339717    -6.0084895795     0.9746572039
   23      C       0.4294943954    -2.0013386355    -0.5997313914
   24      C       0.4236390942    -3.3357458719    -0.1688937855
   25      N       0.5342638268    -6.3544532250     0.2050006988
   26      S       2.0936611547    -7.1197012189     2.2433494132
   27      C       0.0644953041    -7.6167683612     0.6838096711
   28      C       0.7440930249    -8.1291950441     1.7771969916
   29      C      11.5219722013     3.2123328825     1.2820699871
   30      H       8.8614402328     3.6963351413     1.5427526643
   31      H       7.1248465727     1.9201614640     1.2766633408
   32      H       9.8585645232    -0.5733266640    -0.7702932105
   33      H       5.5424696593     0.9710161264    -0.1487013255
   34      H      -0.4241895766    -1.4073420117    -0.8965489900
   35      H      -0.4758427674    -3.9370703531    -0.0987849482
   36      H      -0.7367910646    -8.0525387127     0.1015302227
   37      H       0.5393793209    -9.0667530586     2.2779776509
   38      H      11.2489751566     3.5960259564     2.2725321210
   39      C      11.8875717450     4.3758310580     0.4550857254
   40      H      12.3659641690     2.5512193512     1.5138769267
   41      H      11.2550455222     5.2155471630     0.7676852144
   42      H      11.6635951083     4.2284247513    -0.6088592200
   43      C      13.2850076338     4.9812784267     0.5516435873
   44      H      14.0396534684     4.4145841034    -0.0080993968
   45      C      13.7983873440     5.2204107615     1.9961528464
   46      H      13.2602752688     5.8566054504    -0.1098100480
   47      H      14.2448394681     4.2624909479     2.2884833641
   48      H      12.9183215676     5.4251685464     2.6180953507
   49      C      14.7622414350     6.4197826016     2.0698514239
   50      H      15.7350762149     6.1652582954     1.6319257811
   51      C      15.1822964482     6.7174210972     3.5495818425
   52      H      14.3744639871     7.3037986131     1.5484433856
   53      H      15.5838879594     5.8156549761     4.0273423692
   54      H      14.3677895133     7.2207578354     4.0853985844
   55      H      16.0315116384     7.4074320453     3.4703640897
   56      C     -11.6096839352     2.3488547165     1.7638540047
   57      C     -11.0932245609     3.4553801697     1.0892555049
   58      N     -10.8779141814     1.2128240362     1.8670301692
   59      C      -9.8812627047     3.3016303230     0.4127952741
   60      C      -9.7240609398     1.1112740639     1.2164071601
   61      C      -9.1528347976     2.0680240914     0.3788917397
   62      C      -7.7655973923     1.8776502685    -0.2428495158
   63      C      -6.9205954381     2.9571967970    -0.3083093526
   64      C      -7.2111930216     0.5805711382    -0.5659865199
   65      N      -5.6106275530     2.8840511978    -0.7774925379
   66      N      -7.9246706811    -0.5542236452    -0.6232702785
   67      C      -5.8703583252     0.4920289221    -1.0019103584
   68      C      -5.1031677303     1.6556977679    -1.1384182638
   69      S      -6.8266448712    -1.7357110446    -0.9068436299
   70      N      -5.5017584287    -0.7602188391    -1.1168218940
   71      C      -3.6718388370     1.7412221566    -1.4593437660
   72      S      -2.5263631826     2.9821065768    -0.8361733389
   73      C      -3.0290281893     0.8538319688    -2.2997788472
   74      C      -1.1976327124     2.2245665054    -1.6857157908
   75      S      -3.6358261770    -0.3699861724    -3.3975376365
   76      C      -1.6662915676     1.1931377502    -2.5328914517
   77      C       0.2066959855     2.4916220252    -1.5564708387
   78      C      -2.0675143547    -0.4595506336    -4.1626090288
   79      C      -1.0334290073     0.3842861270    -3.5587091897
   80      N       0.4645115368     3.5670772083    -0.9007626028
   81      S       1.5815297002     1.7406966913    -2.3235467149
   82      C       1.7806131028     3.9271043868    -1.0497931327
   83      C       2.5312521835     3.0189157412    -1.6932473692
   84      C     -12.9174725993     2.3978363646     2.4682399843
   85      H     -11.5971056346     4.4160180528     1.1409635429
   86      H      -9.4787949992     4.0379784530    -0.2769243627
   87      H      -9.1560987633     0.2163712255     1.4645882952
   88      H      -7.2232806418     3.9651085100    -0.0271445499
   89      H      -1.9668357562    -1.0545619524    -5.0605457472
   90      H      -0.0227323185     0.5226925256    -3.9240198411
   91      H       2.0859457723     4.8100282436    -0.5032582080
   92      H       3.5234368141     3.1861431810    -2.0921980458
   93      H     -13.0677183475     1.3933882801     2.8822741143
   94      C     -14.1982270196     2.9016595605     1.7593258132
   95      H     -12.8824573165     2.9219087642     3.4322436409
   96      H     -13.9625686633     3.5575491638     0.9119988589
   97      H     -14.7658862200     3.5290324502     2.4576332595
   98      C     -15.2602501767     1.8354471973     1.3040313917
   99      H     -15.9524797486     2.2512317239     0.5615211579
  100      C     -15.9897003778     1.2014288050     2.5320790627
  101      H     -14.6630940728     1.0116712247     0.8942317645
  102      H     -16.7626221250     1.8970184629     2.8831189473
  103      H     -15.3225929082     1.0257683062     3.3853111608
  104      C     -16.7797555287    -0.0127101515     2.0932505623
  105      H     -17.6752919563    -0.0575835510     2.7249363107
  106      C     -16.0081505116    -1.2122061351     2.3781278744
  107      H     -17.1496236932     0.0425701771     1.0621353281
  108      H     -15.2059178986    -1.2877744113     1.6345216142
  109      H     -16.5469570671    -2.1635978258     2.2895821420
  110      H     -15.5157640520    -1.1176510975     3.3544377224
 ----------------------------------------------------------------

   10   -5663.4774466365      4.56E-06 Convergence criterion met
 Total energy in the final basis set = -5663.4774466365

                    Orbital Energies (a.u.)
 --------------------------------------------------------------

 Alpha MOs
 -- Occupied --
-88.991 -88.989 -88.929 -88.929 -88.927 -88.920 -88.919 -88.906
-14.392 -14.385 -14.384 -14.383 -14.351 -14.348 -14.344 -14.333
-14.327 -14.325 -10.266 -10.263 -10.262 -10.261 -10.258 -10.254
-10.252 -10.247 -10.242 -10.242 -10.240 -10.239 -10.238 -10.234
-10.233 -10.233 -10.231 -10.230 -10.230 -10.227 -10.225 -10.225
-10.224 -10.223 -10.221 -10.219 -10.218 -10.218 -10.216 -10.216
-10.216 -10.214 -10.213 -10.211 -10.200 -10.198 -10.196 -10.193
-10.184 -10.184 -10.180 -10.180 -10.179 -10.179 -10.175 -10.174
-10.173 -10.173 -10.168 -10.162  -8.046  -8.045  -7.990  -7.988
 -7.986  -7.979  -7.978  -7.966  -6.011  -6.010  -6.005  -6.004
 -6.004  -6.002  -5.954  -5.952  -5.951  -5.951  -5.949  -5.947
 -5.947  -5.945  -5.944  -5.943  -5.942  -5.940  -5.939  -5.936
 -5.934  -5.930  -5.927  -5.922  -1.041  -1.032  -0.982  -0.964
 -0.959  -0.945  -0.939  -0.931  -0.912  -0.911  -0.904  -0.898
 -0.843  -0.841  -0.828  -0.828  -0.814  -0.813  -0.811  -0.810
 -0.807  -0.806  -0.795  -0.792  -0.791  -0.787  -0.770  -0.765
 -0.752  -0.751  -0.743  -0.742  -0.727  -0.721  -0.709  -0.709
 -0.694  -0.694  -0.677  -0.675  -0.658  -0.657  -0.647  -0.643
 -0.641  -0.636  -0.627  -0.625  -0.612  -0.610  -0.603  -0.597
 -0.594  -0.589  -0.584  -0.583  -0.582  -0.576  -0.563  -0.559
 -0.550  -0.547  -0.540  -0.537  -0.527  -0.520  -0.519  -0.510
 -0.509  -0.508  -0.502  -0.493  -0.486  -0.484  -0.477  -0.475
 -0.474  -0.473  -0.469  -0.468  -0.466  -0.465  -0.450  -0.449
 -0.446  -0.441  -0.440  -0.438  -0.437  -0.435  -0.433  -0.433
 -0.430  -0.426  -0.424  -0.421  -0.418  -0.417  -0.414  -0.412
 -0.411  -0.410  -0.405  -0.402  -0.402  -0.398  -0.398  -0.394
 -0.394  -0.392  -0.391  -0.390  -0.389  -0.385  -0.382  -0.381
 -0.381  -0.378  -0.378  -0.371  -0.368  -0.365  -0.361  -0.358
 -0.354  -0.354  -0.351  -0.350  -0.347  -0.345  -0.344  -0.341
 -0.341  -0.339  -0.338  -0.330  -0.330  -0.326  -0.322  -0.320
 -0.311  -0.307  -0.305  -0.304  -0.300  -0.299  -0.298  -0.295
 -0.294  -0.294  -0.293  -0.290  -0.287  -0.283  -0.281  -0.278
 -0.276  -0.273  -0.270  -0.268  -0.257  -0.252  -0.251  -0.249
 -0.248  -0.246  -0.232  -0.231  -0.192  -0.191

          Ground-State Mulliken Net Atomic Charges

     Atom                 Charge (a.u.)
  ----------------------------------------
      1 C                     0.264853
      2 C                    -0.099461
      3 N                    -0.498521
      4 C                    -0.110119
      5 C                     0.091639
      6 C                     0.064469
      7 C                     0.037971
      8 C                     0.034319
      9 C                     0.254846
     10 N                    -0.542813
     11 N                    -0.568501
     12 C                     0.209434
     13 C                     0.324299
     14 S                     0.604706
     15 N                    -0.574556
     16 C                    -0.235689
     17 S                     0.315711
     18 C                    -0.110662
     19 C                    -0.237873
     20 S                     0.325998
     21 C                     0.187259
     22 C                     0.021956
     23 C                    -0.324900
     24 C                    -0.059993
     25 N                    -0.405526
     26 S                     0.274769
     27 C                     0.104574
     28 C                    -0.301619
     29 C                    -0.219801
     30 H                     0.096190
     31 H                     0.093115
     32 H                     0.117563
     33 H                     0.112554
     34 H                     0.135912
     35 H                     0.119701
     36 H                     0.115932
     37 H                     0.135841
     38 H                     0.101786
     39 C                    -0.179970
     40 H                     0.114487
     41 H                     0.089454
     42 H                     0.101276
     43 C                    -0.187385
     44 H                     0.091874
     45 C                    -0.164022
     46 H                     0.085806
     47 H                     0.101219
     48 H                     0.087495
     49 C                    -0.181804
     50 H                     0.096250
     51 C                    -0.321137
     52 H                     0.096634
     53 H                     0.106093
     54 H                     0.103421
     55 H                     0.096904
     56 C                     0.281474
     57 C                    -0.104872
     58 N                    -0.486129
     59 C                    -0.103997
     60 C                     0.089870
     61 C                     0.051813
     62 C                     0.063320
     63 C                     0.042884
     64 C                     0.190439
     65 N                    -0.521867
     66 N                    -0.536376
     67 C                     0.273613
     68 C                     0.263301
     69 S                     0.598614
     70 N                    -0.575565
     71 C                    -0.210556
     72 S                     0.365538
     73 C                    -0.115254
     74 C                    -0.200370
     75 S                     0.302210
     76 C                     0.092103
     77 C                     0.070836
     78 C                    -0.309931
     79 C                    -0.097905
     80 N                    -0.425852
     81 S                     0.283482
     82 C                     0.110559
     83 C                    -0.309894
     84 C                    -0.256065
     85 H                     0.096573
     86 H                     0.095128
     87 H                     0.101957
     88 H                     0.116680
     89 H                     0.138972
     90 H                     0.125125
     91 H                     0.113095
     92 H                     0.134807
     93 H                     0.122808
     94 C                    -0.188137
     95 H                     0.118497
     96 H                     0.088524
     97 H                     0.092505
     98 C                    -0.178138
     99 H                     0.095546
    100 C                    -0.176480
    101 H                     0.104436
    102 H                     0.084987
    103 H                     0.096351
    104 C                    -0.169375
    105 H                     0.085322
    106 C                    -0.304758
    107 H                     0.093340
    108 H                     0.102322
    109 H                     0.092429
    110 H                     0.100100
  ----------------------------------------
  Sum of atomic charges =     0.000000

                    Cartesian Multipole Moments
 -----------------------------------------------------------------
    Charge (ESU x 10^10)
                 0.0000
    Dipole Moment (Debye)
         X      -0.7012      Y      -0.3392      Z      -0.1402
       Tot       0.7915
    Quadrupole Moments (Debye-Ang)
        XX    -436.9147     XY       1.3499     YY    -405.9622
        XZ       8.7532     YZ      -1.8024     ZZ    -439.1849

 Total job time:  89.44s(wall), 1040.65s(cpu)
        *  Thank you very much for using Q-Chem.  Have a nice day.  *
