 Q-Chem 4.4, Q-Chem, Inc., Pleasanton, CA (2016)
 Q-Chem 4.4.2 for Intel X86 Linux

User input:
--------------------------------------------------------------
$comment
SP
$end

$rem
MEM_STATIC 5000
MEM_TOTAL 20000
JOBTYPE SP
EXCHANGE B3LYP
BASIS 6-31g(d,p)
$end

$molecule
0 1
C          14.826000     19.510000     15.868000
C          13.479000     19.827000     15.432000
N          15.799000     19.362000     14.915000
C          13.128000     19.741000     14.103000
C          15.398000     19.372000     13.617000
C          14.075000     19.570000     13.089000
C          13.729000     19.617000     11.607000
C          12.434000     19.149000     11.173000
C          14.494000     20.247000     10.573000
N          12.044000     19.020000      9.898000
N          15.663000     20.793000     10.741000
C          14.109000     20.064000      9.222000
C          12.888000     19.449000      8.914000
S          16.181000     21.210000      9.244000
N          15.007000     20.548000      8.310000
C          12.400000     19.165000      7.534000
S          12.729000     20.165000      6.182000
C          11.517000     18.189000      7.223000
C          11.784000     19.166000      5.093000
S          10.713000     17.024000      8.193000
C          11.194000     18.154000      5.816000
C          11.835000     19.177000      3.639000
C          10.099000     16.341000      6.649000
C          10.305000     17.131000      5.478000
N          11.530000     18.094000      2.928000
S          12.334000     20.579000      2.636000
C          11.650000     18.297000      1.589000
C          11.928000     19.557000      1.305000
C          15.102000     19.412000     17.398000
H          12.697000     19.942000     16.176000
H          12.051000     19.781000     13.969000
H          16.229000     19.068000     12.982000
H          11.629000     18.787000     11.810000
H           9.486000     15.465000      6.816000
H           9.913000     16.842000      4.510000
H          11.496000     17.464000      0.916000
H          12.027000     20.011000      0.328000
H          15.757000     20.227000     17.729000
C          15.678000     18.022000     17.767000
H          14.126000     19.512000     17.888000
H          16.742000     18.095000     17.507000
H          15.098000     17.344000     17.130000
C          15.583000     17.622000     19.192000
H          15.950000     18.476000     19.775000
C          16.529000     16.346000     19.386000
H          14.528000     17.388000     19.384000
H          17.553000     16.739000     19.378000
H          16.338000     15.591000     18.614000
C          16.287000     15.791000     20.818000
H          17.186000     15.363000     21.277000
C          15.278000     14.671000     20.607000
H          16.004000     16.603000     21.499000
H          15.622000     13.932000     19.873000
H          14.365000     15.115000     20.191000
H          14.951000     14.190000     21.537000
C          14.181000      8.749000      3.405000
C          15.355000      8.869000      4.149000
N          13.653000      9.834000      2.788000
C          15.873000     10.150000      4.351000
C          14.183000     11.034000      2.998000
C          15.256000     11.336000      3.835000
C          15.844000     12.748000      3.923000
C          17.207000     12.889000      4.001000
C          15.064000     13.948000      3.709000
N          17.856000     14.122000      4.004000
N          13.723000     13.985000      3.688000
C          15.719000     15.199000      3.668000
C          17.105000     15.267000      3.857000
S          13.344000     15.530000      3.299000
N          14.882000     16.150000      3.333000
C          17.960000     16.455000      3.728000
S          19.656000     16.470000      3.125000
C          17.545000     17.728000      4.066000
C          19.731000     18.210000      3.292000
S          16.142000     18.310000      4.940000
C          18.576000     18.702000      3.944000
C          20.742000     19.106000      2.807000
C          16.908000     19.869000      5.129000
C          18.212000     20.003000      4.475000
N          21.807000     18.507000      2.407000
S          20.852000     20.845000      2.886000
C          22.833000     19.401000      2.228000
C          22.470000     20.688000      2.347000
C          13.524000      7.435000      3.180000
H          15.872000      7.984000      4.508000
H          16.676000     10.372000      5.048000
H          13.770000     11.815000      2.362000
H          17.886000     12.043000      4.100000
H          16.430000     20.603000      5.764000
H          18.874000     20.859000      4.531000
H          23.760000     18.978000      1.863000
H          23.144000     21.529000      2.447000
H          12.627000      7.651000      2.587000
C          13.194000      6.485000      4.357000
H          14.022000      6.814000      2.424000
H          13.830000      6.682000      5.229000
H          13.429000      5.456000      4.058000
C          11.697000      6.380000      4.826000
H          11.621000      5.940000      5.828000
C          10.821000      5.639000      3.765000
H          11.329000      7.413000      4.801000
H          10.982000      4.558000      3.865000
H          11.087000      5.896000      2.732000
C           9.354000      5.810000      4.096000
H           8.846000      4.889000      3.785000
C           8.804000      6.884000      3.284000
H           9.146000      5.913000      5.168000
H           9.155000      7.838000      3.695000
H           7.711000      6.977000      3.285000
H           9.202000      6.823000      2.263000
$end

--------------------------------------------------------------

             Standard Nuclear Orientation (Angstroms)
    I     Atom           X                Y                Z
 ----------------------------------------------------------------
    1      C      -9.2759879594    -1.5773376709     0.2818055305
    2      C      -8.9705302950    -1.7594052332    -1.1248006752
    3      N      -8.4147438791    -0.8308025480     1.0419278525
    4      C      -7.7390187960    -1.4080645264    -1.6315324933
    5      C      -7.2528559386    -0.4415208039     0.4552583225
    6      C      -6.8118594525    -0.6646962689    -0.8953088958
    7      C      -5.5075391973    -0.1413911633    -1.4810984812
    8      C      -4.8402750191    -0.9085937116    -2.5060686108
    9      C      -4.9271611450     1.1477472701    -1.2518291726
   10      N      -3.6344105520    -0.6319641198    -3.0196179815
   11      N      -5.3895276880     2.0334701722    -0.4183946397
   12      C      -3.6292461879     1.4179415671    -1.7511555248
   13      C      -3.0084243044     0.5159082445    -2.6257103109
   14      S      -4.2883969553     3.2460394210    -0.3981727081
   15      N      -3.0952374966     2.6018152512    -1.3202473933
   16      C      -1.6325583768     0.6732728876    -3.1783669116
   17      S      -0.9218596130     2.1876584659    -3.5494310403
   18      C      -0.8578223776    -0.3521448727    -3.5994233785
   19      C       0.5537719405     1.4548770526    -4.1515023970
   20      S      -1.1301234335    -2.0457264535    -3.6460556018
   21      C       0.4173554979     0.0855149529    -4.1167030543
   22      C       1.8300228958     2.1201066186    -4.3647888792
   23      C       0.5830932593    -2.1837803121    -4.1687894686
   24      C       1.2381644455    -0.9673017741    -4.5277305605
   25      N       2.9785802867     1.4510202677    -4.2971547550
   26      S       2.0363733073     3.8718253561    -4.6957193441
   27      C       4.0602093450     2.2465259335    -4.5111157700
   28      C       3.7090941870     3.4737454780    -4.8519828051
   29      C     -10.5953523186    -2.1931498952     0.8356403364
   30      H      -9.6415085059    -2.3529030165    -1.7378533825
   31      H      -7.5847178979    -1.8124713232    -2.6275904110
   32      H      -6.5924464442    -0.0194459629     1.2115083660
   33      H      -5.1930738304    -1.8355395952    -2.9545575488
   34      H       0.8753796218    -3.2161539157    -4.3095283223
   35      H       2.2476724766    -0.9492555206    -4.9211474741
   36      H       5.0509234147     1.8237785804    -4.4096056351
   37      H       4.3550266673     4.2963833807    -5.1285404154
   38      H     -11.3010760259    -1.4056916053     1.1266291518
   39      C     -10.3019704488    -3.1665746394     2.0045750419
   40      H     -11.0251948608    -2.7765722869     0.0125184124
   41      H     -10.1604018211    -2.5089750620     2.8720692030
   42      H      -9.3937465881    -3.6802347265     1.6682184846
   43      C     -11.3689083494    -4.1406852538     2.3398391577
   44      H     -12.3007482143    -3.5648166313     2.4026388060
   45      C     -10.9929414705    -4.7799439136     3.7578396062
   46      H     -11.3757772998    -4.8892589149     1.5371964655
   47      H     -11.2211582046    -4.0025583441     4.4972162345
   48      H      -9.9493153805    -5.1161092121     3.7759359178
   49      C     -11.9862951117    -5.9445684277     4.0300734848
   50      H     -12.2375555825    -6.0638952755     5.0905900001
   51      C     -11.2262962965    -7.1828597890     3.5761590595
   52      H     -12.9521099642    -5.7419199090     3.5511901498
   53      H     -10.2508287306    -7.2779070436     4.0687461557
   54      H     -11.0197614199    -7.0762866463     2.5038967269
   55      H     -11.8065637909    -8.1104699075     3.6537419388
   56      C       6.7824235886    -4.7805202981     2.1280326596
   57      C       6.0098939943    -4.4733994341     3.2483392251
   58      N       6.8478913869    -3.9133363625     1.0886078238
   59      C       5.2076407694    -3.3315717977     3.1962968196
   60      C       6.0757522861    -2.8322388309     1.0831915257
   61      C       5.1413165334    -2.4709437398     2.0524168252
   62      C       4.3750685866    -1.1458886423     1.9866515391
   63      C       4.1712732927    -0.4457579552     3.1494148422
   64      C       4.0437972603    -0.4806880454     0.7448933202
   65      N       3.5604965077     0.8056239219     3.1993559712
   66      N       4.1131033825    -1.0576719700    -0.4643945744
   67      C       3.4631735925     0.8065536912     0.7847915414
   68      C       3.1942471610     1.4123302650     2.0185071963
   69      S       3.7550807676     0.1348520962    -1.5282052524
   70      N       3.3578048904     1.3054378476    -0.4223567656
   71      C       2.7105778479     2.7807911873     2.2473929753
   72      S       3.1500352744     3.8326092019     3.6405211224
   73      C       1.8392872880     3.4294412600     1.3946891325
   74      C       2.1870324060     5.1421511077     2.9933430383
   75      S       0.8671515342     2.8563793388     0.0539575745
   76      C       1.4403420284     4.7097658601     1.8723214160
   77      C       2.1460402941     6.5109974450     3.4231585240
   78      C      -0.0658915822     4.3329211547     0.1009980750
   79      C       0.3829715719     5.3194215562     1.0866079506
   80      N       2.7246813506     6.7094683237     4.5540032693
   81      S       1.2594378470     7.8741414094     2.7920985957
   82      C       2.4136449508     7.9503560903     5.0514034189
   83      C       1.7265757195     8.7290822446     4.2006270393
   84      C       7.6274328559    -6.0016190601     2.0668186768
   85      H       6.0795117109    -5.0783170262     4.1475739443
   86      H       4.4478500991    -3.0950523395     3.9356740461
   87      H       6.2939838519    -2.1395511312     0.2722755410
   88      H       4.4440752655    -0.8329440394     4.1303450232
   89      H      -0.9448064361     4.4057836484    -0.5256315896
   90      H      -0.0993925628     6.2616331863     1.3182932667
   91      H       2.8862732405     8.2066536818     5.9907739764
   92      H       1.2117458806     9.6460102364     4.4570452423
   93      H       8.0958220664    -5.9872348894     1.0751944319
   94      C       7.0479948556    -7.4015046422     2.3850967957
   95      H       8.5594678583    -5.9250717813     2.6418249971
   96      H       6.1538025346    -7.3371398957     3.0175256632
   97      H       7.7801481932    -7.9606490755     2.9807275479
   98      C       6.7587590494    -8.3734411192     1.1835656338
   99      H       6.0830522399    -9.1855786995     1.4789177259
  100      C       8.0858052847    -8.8869241633     0.5374530639
  101      H       6.3175976579    -7.7310465812     0.4116563877
  102      H       8.4936297926    -9.6940712518     1.1592848324
  103      H       8.8646204706    -8.1159383223     0.4833999504
  104      C       7.7881532662    -9.5711928297    -0.7793881065
  105      H       8.5182091995   -10.3820825561    -0.8912012802
  106      C       8.0320653756    -8.6376789371    -1.8676797473
  107      H       6.8040130581   -10.0536999328    -0.8207637787
  108      H       7.2062724740    -7.9167612079    -1.8917984411
  109      H       8.0432397198    -9.0671671025    -2.8769934001
  110      H       8.9419382710    -8.0577435387    -1.6667512827
 ----------------------------------------------------------------

   10   -5663.4818535631      7.91E-06 Convergence criterion met
 Total energy in the final basis set = -5663.4818535631

                    Orbital Energies (a.u.)
 --------------------------------------------------------------

 Alpha MOs
 -- Occupied --
-88.995 -88.977 -88.926 -88.926 -88.922 -88.921 -88.913 -88.910
-14.400 -14.388 -14.373 -14.372 -14.357 -14.344 -14.343 -14.336
-14.328 -14.321 -10.276 -10.267 -10.265 -10.264 -10.257 -10.255
-10.251 -10.248 -10.247 -10.242 -10.242 -10.240 -10.238 -10.234
-10.233 -10.232 -10.231 -10.231 -10.230 -10.228 -10.228 -10.226
-10.225 -10.224 -10.223 -10.222 -10.219 -10.218 -10.213 -10.213
-10.211 -10.211 -10.209 -10.208 -10.207 -10.205 -10.201 -10.195
-10.193 -10.182 -10.182 -10.181 -10.181 -10.178 -10.177 -10.176
-10.172 -10.172 -10.166 -10.161  -8.051  -8.032  -7.988  -7.986
 -7.984  -7.979  -7.973  -7.970  -6.016  -6.010  -6.009  -5.997
 -5.992  -5.989  -5.951  -5.951  -5.948  -5.948  -5.947  -5.945
 -5.945  -5.943  -5.943  -5.941  -5.939  -5.938  -5.935  -5.934
 -5.934  -5.931  -5.930  -5.926  -1.050  -1.030  -0.977  -0.974
 -0.963  -0.937  -0.934  -0.932  -0.922  -0.916  -0.901  -0.895
 -0.847  -0.834  -0.833  -0.820  -0.815  -0.811  -0.809  -0.808
 -0.807  -0.802  -0.797  -0.789  -0.787  -0.784  -0.772  -0.764
 -0.754  -0.747  -0.746  -0.736  -0.722  -0.719  -0.712  -0.705
 -0.696  -0.688  -0.683  -0.668  -0.656  -0.653  -0.646  -0.640
 -0.639  -0.629  -0.622  -0.619  -0.613  -0.606  -0.599  -0.597
 -0.592  -0.589  -0.585  -0.579  -0.577  -0.571  -0.569  -0.561
 -0.555  -0.547  -0.539  -0.531  -0.528  -0.519  -0.516  -0.513
 -0.511  -0.508  -0.503  -0.495  -0.492  -0.485  -0.481  -0.478
 -0.474  -0.468  -0.465  -0.464  -0.463  -0.461  -0.451  -0.444
 -0.444  -0.442  -0.438  -0.437  -0.434  -0.432  -0.431  -0.430
 -0.427  -0.427  -0.423  -0.422  -0.421  -0.417  -0.415  -0.413
 -0.410  -0.410  -0.405  -0.404  -0.403  -0.397  -0.395  -0.394
 -0.392  -0.391  -0.389  -0.388  -0.386  -0.384  -0.381  -0.378
 -0.376  -0.375  -0.373  -0.371  -0.368  -0.362  -0.360  -0.359
 -0.355  -0.353  -0.352  -0.350  -0.349  -0.346  -0.345  -0.342
 -0.339  -0.337  -0.335  -0.334  -0.332  -0.325  -0.323  -0.322
 -0.318  -0.311  -0.308  -0.303  -0.301  -0.301  -0.298  -0.295
 -0.293  -0.292  -0.291  -0.287  -0.285  -0.284  -0.280  -0.277
 -0.276  -0.271  -0.268  -0.264  -0.259  -0.252  -0.250  -0.246
 -0.244  -0.240  -0.232  -0.225  -0.198  -0.184

          Ground-State Mulliken Net Atomic Charges

     Atom                 Charge (a.u.)
  ----------------------------------------
      1 C                     0.267212
      2 C                    -0.127730
      3 N                    -0.477744
      4 C                    -0.070755
      5 C                     0.069762
      6 C                     0.046200
      7 C                     0.018281
      8 C                     0.058421
      9 C                     0.253708
     10 N                    -0.507916
     11 N                    -0.537056
     12 C                     0.204299
     13 C                     0.279883
     14 S                     0.608080
     15 N                    -0.560680
     16 C                    -0.222563
     17 S                     0.310674
     18 C                    -0.074119
     19 C                    -0.241910
     20 S                     0.282052
     21 C                     0.153300
     22 C                     0.069823
     23 C                    -0.307562
     24 C                    -0.062701
     25 N                    -0.452574
     26 S                     0.263759
     27 C                     0.142487
     28 C                    -0.304713
     29 C                    -0.236163
     30 H                     0.086320
     31 H                     0.097437
     32 H                     0.109931
     33 H                     0.115029
     34 H                     0.125670
     35 H                     0.131823
     36 H                     0.120178
     37 H                     0.127699
     38 H                     0.118089
     39 C                    -0.165424
     40 H                     0.094308
     41 H                     0.114165
     42 H                     0.094945
     43 C                    -0.176448
     44 H                     0.094056
     45 C                    -0.177610
     46 H                     0.092344
     47 H                     0.092954
     48 H                     0.101153
     49 C                    -0.171792
     50 H                     0.088186
     51 C                    -0.317082
     52 H                     0.095581
     53 H                     0.107446
     54 H                     0.099231
     55 H                     0.093029
     56 C                     0.280342
     57 C                    -0.105343
     58 N                    -0.487184
     59 C                    -0.104048
     60 C                     0.089704
     61 C                     0.052432
     62 C                     0.060006
     63 C                     0.042032
     64 C                     0.185225
     65 N                    -0.524019
     66 N                    -0.544500
     67 C                     0.270185
     68 C                     0.262174
     69 S                     0.619891
     70 N                    -0.580408
     71 C                    -0.212091
     72 S                     0.358350
     73 C                    -0.117922
     74 C                    -0.199773
     75 S                     0.318481
     76 C                     0.097774
     77 C                     0.073004
     78 C                    -0.321169
     79 C                    -0.095711
     80 N                    -0.424026
     81 S                     0.262812
     82 C                     0.111353
     83 C                    -0.311187
     84 C                    -0.255147
     85 H                     0.094602
     86 H                     0.094450
     87 H                     0.101295
     88 H                     0.113314
     89 H                     0.144474
     90 H                     0.115644
     91 H                     0.112263
     92 H                     0.132311
     93 H                     0.121609
     94 C                    -0.188257
     95 H                     0.117239
     96 H                     0.088753
     97 H                     0.091736
     98 C                    -0.178056
     99 H                     0.094827
    100 C                    -0.176242
    101 H                     0.104569
    102 H                     0.084576
    103 H                     0.096545
    104 C                    -0.169466
    105 H                     0.084992
    106 C                    -0.305216
    107 H                     0.092972
    108 H                     0.102665
    109 H                     0.091813
    110 H                     0.100380
  ----------------------------------------
  Sum of atomic charges =     0.000000

                    Cartesian Multipole Moments
 -----------------------------------------------------------------
    Charge (ESU x 10^10)
                 0.0000
    Dipole Moment (Debye)
         X      -2.9658      Y       0.2394      Z      -2.1271
       Tot       3.6576
    Quadrupole Moments (Debye-Ang)
        XX    -426.5903     XY       3.9577     YY    -402.9205
        XZ       2.0059     YZ      -7.0820     ZZ    -439.9556

 Total job time:  92.73s(wall), 1098.22s(cpu)
        *  Thank you very much for using Q-Chem.  Have a nice day.  *
