 Q-Chem 4.4, Q-Chem, Inc., Pleasanton, CA (2016)
 Q-Chem 4.4.2 for Intel X86 Linux

User input:
--------------------------------------------------------------
$comment
SP
$end

$rem
MEM_STATIC 5000
MEM_TOTAL 20000
JOBTYPE SP
EXCHANGE B3LYP
BASIS 6-31g(d,p)
$end

$molecule
0 1
C          10.961000     -2.468000      3.883000
C          12.320000     -2.636000      4.230000
N          10.331000     -1.268000      3.625000
C          13.101000     -1.459000      4.315000
C          11.172000     -0.200000      3.679000
C          12.572000     -0.225000      3.915000
C          13.451000      1.037000      3.955000
C          14.681000      1.130000      4.711000
C          13.340000      2.132000      2.994000
N          15.541000      2.179000      4.653000
N          12.350000      2.200000      2.143000
C          14.304000      3.155000      2.888000
C          15.376000      3.271000      3.805000
S          12.526000      3.553000      1.311000
N          13.931000      4.109000      1.910000
C          16.317000      4.373000      3.814000
S          16.538000      5.525000      2.501000
C          17.166000      4.685000      4.851000
C          17.749000      6.419000      3.385000
S          17.359000      3.877000      6.391000
C          17.976000      5.766000      4.538000
C          18.231000      7.732000      2.943000
C          18.544000      5.113000      6.729000
C          18.683000      6.086000      5.727000
N          17.983000      8.063000      1.686000
S          19.181000      8.783000      3.943000
C          18.544000      9.315000      1.495000
C          19.163000      9.856000      2.571000
C           9.969000     -3.641000      3.837000
H          12.755000     -3.605000      4.459000
H          14.116000     -1.656000      4.648000
H          10.678000      0.754000      3.502000
H          14.844000      0.301000      5.398000
H          19.105000      4.984000      7.645000
H          19.468000      6.834000      5.725000
H          18.238000      9.733000      0.545000
H          19.450000     10.890000      2.713000
H           9.279000     -3.344000      3.037000
C           9.296000     -4.062000      5.137000
H          10.485000     -4.422000      3.266000
H           8.763000     -3.187000      5.530000
H          10.019000     -4.236000      5.943000
C           8.306000     -5.288000      5.010000
H           8.787000     -6.078000      4.421000
C           6.922000     -4.993000      4.418000
H           8.078000     -5.683000      6.007000
H           6.999000     -4.481000      3.451000
H           6.438000     -4.341000      5.154000
C           6.109000     -6.255000      4.222000
H           6.749000     -7.000000      3.735000
C           4.790000     -6.204000      3.412000
H           5.895000     -6.612000      5.237000
H           5.090000     -5.656000      2.510000
H           4.010000     -5.593000      3.883000
H           4.299000     -7.157000      3.179000
C          14.181000      8.749000      3.405000
C          15.355000      8.869000      4.149000
N          13.653000      9.834000      2.788000
C          15.873000     10.150000      4.351000
C          14.183000     11.034000      2.998000
C          15.256000     11.336000      3.835000
C          15.844000     12.748000      3.923000
C          17.207000     12.889000      4.001000
C          15.064000     13.948000      3.709000
N          17.856000     14.122000      4.004000
N          13.723000     13.985000      3.688000
C          15.719000     15.199000      3.668000
C          17.105000     15.267000      3.857000
S          13.344000     15.530000      3.299000
N          14.882000     16.150000      3.333000
C          17.960000     16.455000      3.728000
S          19.656000     16.470000      3.125000
C          17.545000     17.728000      4.066000
C          19.731000     18.210000      3.292000
S          16.142000     18.310000      4.940000
C          18.576000     18.702000      3.944000
C          20.742000     19.106000      2.807000
C          16.908000     19.869000      5.129000
C          18.212000     20.003000      4.475000
N          21.807000     18.507000      2.407000
S          20.852000     20.845000      2.886000
C          22.833000     19.401000      2.228000
C          22.470000     20.688000      2.347000
C          13.524000      7.435000      3.180000
H          15.872000      7.984000      4.508000
H          16.676000     10.372000      5.048000
H          13.770000     11.815000      2.362000
H          17.886000     12.043000      4.100000
H          16.430000     20.603000      5.764000
H          18.874000     20.859000      4.531000
H          23.760000     18.978000      1.863000
H          23.144000     21.529000      2.447000
H          12.627000      7.651000      2.587000
C          13.194000      6.485000      4.357000
H          14.022000      6.814000      2.424000
H          13.830000      6.682000      5.229000
H          13.429000      5.456000      4.058000
C          11.697000      6.380000      4.826000
H          11.621000      5.940000      5.828000
C          10.821000      5.639000      3.765000
H          11.329000      7.413000      4.801000
H          10.982000      4.558000      3.865000
H          11.087000      5.896000      2.732000
C           9.354000      5.810000      4.096000
H           8.846000      4.889000      3.785000
C           8.804000      6.884000      3.284000
H           9.146000      5.913000      5.168000
H           9.155000      7.838000      3.695000
H           7.711000      6.977000      3.285000
H           9.202000      6.823000      2.263000
$end

--------------------------------------------------------------

             Standard Nuclear Orientation (Angstroms)
    I     Atom           X                Y                Z
 ----------------------------------------------------------------
    1      C      11.4671387560     0.3619095906    -0.1168783219
    2      C      11.0963206006     1.6899759494     0.1901194667
    3      N      10.6050915980    -0.6970279669    -0.3143370434
    4      C       9.7096336331     1.9499462103     0.2997995361
    5      C       9.2942725389    -0.3403474879    -0.2411699060
    6      C       8.7731491011     0.9652461208    -0.0407286640
    7      C       7.2687156362     1.2803267257     0.0247630321
    8      C       6.7187392280     2.4027764912     0.7532666177
    9      C       6.2819592119     0.7134555194    -0.8916625211
   10      N       5.4151565881     2.7801960474     0.7133695039
   11      N       6.5873090205    -0.2549846882    -1.7149547285
   12      C       4.9602400071     1.1948805086    -0.9830371534
   13      C       4.4551611528     2.1690676786    -0.0889545460
   14      S       5.2538262698    -0.6543016301    -2.4999252588
   15      N       4.2055996408     0.4417672324    -1.9152749506
   16      C       3.0726936332     2.6026794761    -0.0619292589
   17      S       1.8944294583     2.3055680563    -1.3360298587
   18      C       2.4779955336     3.2995395141     0.9648298452
   19      C       0.6187290967     3.1014780465    -0.4492779909
   20      S       3.1830084786     3.8509097637     2.4683791776
   21      C       1.1583372106     3.6089580771     0.6726106408
   22      C      -0.7885484902     3.0136637191    -0.8536484117
   23      C       1.5896375615     4.4685807234     2.8230856845
   24      C       0.6158186825     4.1778061120     1.8550046361
   25      N      -1.0264660402     2.6091680298    -2.0909408092
   26      S      -2.1031878800     3.5124451717     0.1612611100
   27      C      -2.4024989342     2.6272276796    -2.2487803595
   28      C      -3.1164039567     3.0243786051    -1.1688596396
   29      C      12.9339950637    -0.0921456387    -0.1822650293
   30      H      11.8218941359     2.4780630367     0.3720227040
   31      H       9.5002559472     2.9726174727     0.6001784196
   32      H       8.6069486690    -1.1748586358    -0.3702359434
   33      H       7.4337706558     2.9030227538     1.4046211556
   34      H       1.5104858149     5.0689667218     3.7195730820
   35      H      -0.3802143046     4.6063000659     1.8616544553
   36      H      -2.6900279146     2.1467609016    -3.1747062532
   37      H      -4.1761761987     2.8883712945    -0.9954416289
   38      H      12.9122445761    -0.8726236733    -0.9534264610
   39      C      13.6174895477    -0.4974523332     1.1172470998
   40      H      13.4351632060     0.6669443409    -0.7945320428
   41      H      13.0321892016    -1.3156308547     1.5556195577
   42      H      13.5133531334     0.2653929737     1.8981847701
   43      C      15.1302815979    -0.9319201244     0.9689131814
   44      H      15.6530270724    -0.2021495097     0.3391878295
   45      C      15.3881185121    -2.3418548124     0.4225165294
   46      H      15.6075890077    -0.9496157794     1.9557680341
   47      H      14.8633099880    -2.5076966101    -0.5262903588
   48      H      14.9970443422    -3.0148377124     1.1940157258
   49      C      16.8627729291    -2.6020730285     0.1995595146
   50      H      17.2842131429    -1.7399672605    -0.3304931159
   51      C      17.3139982089    -3.8647720162    -0.5753269371
   52      H      17.3000927012    -2.6211169690     1.2054714120
   53      H      16.6701041335    -3.8372959325    -1.4633322775
   54      H      17.0703408084    -4.8036717685    -0.0628229603
   55      H      18.3771937112    -3.9514264850    -0.8316184254
   56      C      -0.1211671301    -1.0907287828    -0.2546514911
   57      C      -0.6742633113    -0.0307852207     0.4642478478
   58      N      -0.9264309997    -2.0242126586    -0.8175510860
   59      C      -2.0503567495    -0.0489788153     0.7011546700
   60      C      -2.2325782709    -1.9993400281    -0.5759715794
   61      C      -2.9110135645    -1.1000904373     0.2451116843
   62      C      -4.4378464595    -1.1095073466     0.3713045237
   63      C      -5.1009405352     0.0911464393     0.4210109935
   64      C      -5.2398850846    -2.3046996228     0.2214864111
   65      N      -6.4892821257     0.2047744124     0.4541064886
   66      N      -4.7476579924    -3.5527482844     0.2348291261
   67      C      -6.6482176063    -2.1942474628     0.2111506170
   68      C      -7.2504964197    -0.9397131072     0.3684553586
   69      S      -6.0286908320    -4.5209983778    -0.0867818506
   70      N      -7.2019523913    -3.3487853569    -0.0674441404
   71      C      -8.6816498054    -0.6239964914     0.2629423018
   72      S      -9.3765418306     0.9067830148    -0.3805553103
   73      C      -9.6805368529    -1.4916883694     0.6583325785
   74      C     -11.0014375241     0.3001982089    -0.1505925771
   75      S      -9.6428587607    -2.9769326593     1.5876542455
   76      C     -10.9839245402    -0.9300680876     0.5474984879
   77      C     -12.2342314314     0.8604726294    -0.6264851657
   78      C     -11.3722523438    -2.8765499172     1.8158627905
   79      C     -12.0238174907    -1.7546578088     1.1354886607
   80      N     -12.1118027497     2.0593132851    -1.0746127146
   81      S     -13.8741300041     0.2831769230    -0.4853315663
   82      C     -13.3410914072     2.6455588539    -1.2452542381
   83      C     -14.3786844050     1.8120272467    -1.0693996654
   84      C       1.3392953659    -1.1882435963    -0.5123531773
   85      H      -0.0549091454     0.8046139187     0.7771435097
   86      H      -2.5526483875     0.6281922556     1.3860228698
   87      H      -2.8040213608    -2.7087024228    -1.1720284459
   88      H      -4.5874964942     1.0505053794     0.4716434036
   89      H     -11.8435598591    -3.5799077596     2.4893774314
   90      H     -13.0693850530    -1.4793918827     1.2071346132
   91      H     -13.3253848297     3.6498822009    -1.6484550789
   92      H     -15.4140894954     2.1058407913    -0.9546525528
   93      H       1.4784323567    -2.1195676355    -1.0746613062
   94      C       2.3713203891    -1.0755467033     0.6361035096
   95      H       1.6958782306    -0.5152817582    -1.3030187356
   96      H       1.9619332292    -0.5355834063     1.4989654865
   97      H       3.2175706553    -0.4674765555     0.2932067582
   98      C       3.0674688258    -2.3931155798     1.1374862075
   99      H       3.5265604173    -2.2532612161     2.1239220481
  100      C       4.0665542765    -2.9476032702     0.0713953749
  101      H       2.2617817882    -3.1370873324     1.1601230984
  102      H       4.9995316317    -2.3723241580     0.1269759253
  103      H       3.7002924406    -2.8422455097    -0.9575098733
  104      C       4.4937861671    -4.3508737634     0.4444849548
  105      H       5.5323154948    -4.4685995658     0.1118838861
  106      C       3.7024593926    -5.3075356485    -0.3130901066
  107      H       4.5072848765    -4.5425121122     1.5243689893
  108      H       2.6977351063    -5.3433434484     0.1244997811
  109      H       4.0463327217    -6.3487220847    -0.2817701654
  110      H       3.5769763392    -4.9557883797    -1.3451239541
 ----------------------------------------------------------------

    9   -5663.4798520979      8.22E-06 Convergence criterion met
 Total energy in the final basis set = -5663.4798520979

                    Orbital Energies (a.u.)
 --------------------------------------------------------------

 Alpha MOs
 -- Occupied --
-88.991 -88.988 -88.934 -88.928 -88.927 -88.924 -88.918 -88.917
-14.390 -14.384 -14.382 -14.378 -14.356 -14.351 -14.345 -14.338
-14.333 -14.319 -10.272 -10.269 -10.262 -10.262 -10.259 -10.259
-10.258 -10.256 -10.248 -10.241 -10.240 -10.240 -10.238 -10.238
-10.237 -10.236 -10.235 -10.232 -10.232 -10.230 -10.230 -10.229
-10.229 -10.229 -10.227 -10.224 -10.224 -10.223 -10.219 -10.217
-10.214 -10.214 -10.211 -10.207 -10.207 -10.207 -10.206 -10.192
-10.188 -10.183 -10.182 -10.176 -10.176 -10.176 -10.175 -10.173
-10.173 -10.172 -10.166 -10.160  -8.046  -8.043  -7.996  -7.989
 -7.986  -7.982  -7.978  -7.977  -6.011  -6.009  -6.006  -6.005
 -6.003  -6.001  -5.959  -5.956  -5.953  -5.952  -5.950  -5.950
 -5.947  -5.946  -5.946  -5.943  -5.943  -5.942  -5.942  -5.939
 -5.939  -5.938  -5.934  -5.934  -1.044  -1.040  -0.982  -0.975
 -0.947  -0.944  -0.933  -0.933  -0.922  -0.909  -0.904  -0.903
 -0.852  -0.842  -0.827  -0.825  -0.817  -0.814  -0.810  -0.807
 -0.805  -0.805  -0.800  -0.792  -0.786  -0.784  -0.767  -0.767
 -0.754  -0.749  -0.743  -0.741  -0.726  -0.726  -0.712  -0.706
 -0.698  -0.692  -0.676  -0.675  -0.657  -0.653  -0.645  -0.642
 -0.637  -0.634  -0.624  -0.620  -0.610  -0.609  -0.605  -0.601
 -0.598  -0.595  -0.586  -0.582  -0.580  -0.574  -0.566  -0.560
 -0.551  -0.546  -0.543  -0.537  -0.527  -0.526  -0.524  -0.519
 -0.506  -0.506  -0.503  -0.499  -0.486  -0.481  -0.477  -0.475
 -0.473  -0.473  -0.472  -0.465  -0.464  -0.460  -0.450  -0.447
 -0.444  -0.441  -0.440  -0.439  -0.436  -0.434  -0.433  -0.432
 -0.428  -0.428  -0.426  -0.425  -0.421  -0.417  -0.414  -0.413
 -0.412  -0.409  -0.406  -0.403  -0.401  -0.400  -0.399  -0.396
 -0.394  -0.393  -0.392  -0.390  -0.388  -0.386  -0.385  -0.383
 -0.377  -0.375  -0.375  -0.367  -0.365  -0.364  -0.363  -0.360
 -0.353  -0.351  -0.349  -0.348  -0.346  -0.344  -0.342  -0.340
 -0.339  -0.337  -0.335  -0.334  -0.328  -0.323  -0.319  -0.316
 -0.314  -0.312  -0.309  -0.307  -0.304  -0.303  -0.297  -0.295
 -0.295  -0.294  -0.293  -0.291  -0.290  -0.289  -0.282  -0.279
 -0.277  -0.277  -0.270  -0.267  -0.263  -0.259  -0.256  -0.249
 -0.247  -0.245  -0.235  -0.228  -0.199  -0.190

          Ground-State Mulliken Net Atomic Charges

     Atom                 Charge (a.u.)
  ----------------------------------------
      1 C                     0.224706
      2 C                    -0.102950
      3 N                    -0.459644
      4 C                    -0.093426
      5 C                     0.082303
      6 C                     0.057629
      7 C                     0.025657
      8 C                     0.073000
      9 C                     0.223040
     10 N                    -0.538710
     11 N                    -0.537629
     12 C                     0.165376
     13 C                     0.291593
     14 S                     0.626076
     15 N                    -0.553974
     16 C                    -0.219948
     17 S                     0.358653
     18 C                    -0.109888
     19 C                    -0.228727
     20 S                     0.303675
     21 C                     0.146263
     22 C                     0.067871
     23 C                    -0.295297
     24 C                    -0.110606
     25 N                    -0.423974
     26 S                     0.279435
     27 C                     0.129734
     28 C                    -0.322117
     29 C                    -0.219569
     30 H                     0.100943
     31 H                     0.101821
     32 H                     0.116326
     33 H                     0.109556
     34 H                     0.130541
     35 H                     0.106922
     36 H                     0.121092
     37 H                     0.143232
     38 H                     0.121123
     39 C                    -0.178432
     40 H                     0.090016
     41 H                     0.109089
     42 H                     0.091431
     43 C                    -0.179083
     44 H                     0.090447
     45 C                    -0.169264
     46 H                     0.091027
     47 H                     0.092098
     48 H                     0.094653
     49 C                    -0.172332
     50 H                     0.091286
     51 C                    -0.321571
     52 H                     0.087838
     53 H                     0.101765
     54 H                     0.101468
     55 H                     0.105158
     56 C                     0.280007
     57 C                    -0.100472
     58 N                    -0.488128
     59 C                    -0.098471
     60 C                     0.090288
     61 C                     0.044400
     62 C                     0.062068
     63 C                     0.043600
     64 C                     0.189970
     65 N                    -0.526627
     66 N                    -0.534917
     67 C                     0.272380
     68 C                     0.263219
     69 S                     0.598756
     70 N                    -0.574388
     71 C                    -0.211902
     72 S                     0.357977
     73 C                    -0.111392
     74 C                    -0.199561
     75 S                     0.302153
     76 C                     0.099659
     77 C                     0.072362
     78 C                    -0.312706
     79 C                    -0.091178
     80 N                    -0.424552
     81 S                     0.267884
     82 C                     0.111413
     83 C                    -0.309934
     84 C                    -0.260722
     85 H                     0.101273
     86 H                     0.095225
     87 H                     0.098845
     88 H                     0.104753
     89 H                     0.136139
     90 H                     0.119965
     91 H                     0.113971
     92 H                     0.134699
     93 H                     0.110942
     94 C                    -0.191662
     95 H                     0.148937
     96 H                     0.089092
     97 H                     0.094116
     98 C                    -0.179650
     99 H                     0.094921
    100 C                    -0.185131
    101 H                     0.103608
    102 H                     0.086003
    103 H                     0.096553
    104 C                    -0.169904
    105 H                     0.085810
    106 C                    -0.305318
    107 H                     0.094473
    108 H                     0.103745
    109 H                     0.092933
    110 H                     0.098778
  ----------------------------------------
  Sum of atomic charges =     0.000000

                    Cartesian Multipole Moments
 -----------------------------------------------------------------
    Charge (ESU x 10^10)
                 0.0000
    Dipole Moment (Debye)
         X      -1.9204      Y       1.5933      Z       2.7583
       Tot       3.7195
    Quadrupole Moments (Debye-Ang)
        XX    -359.9615     XY      19.4328     YY    -436.6560
        XZ      -0.3157     YZ       3.7461     ZZ    -443.9966

 Total job time:  89.32s(wall), 1074.34s(cpu)
        *  Thank you very much for using Q-Chem.  Have a nice day.  *
