 Q-Chem 4.4, Q-Chem, Inc., Pleasanton, CA (2016)
 Q-Chem 4.4.2 for Intel X86 Linux

User input:
--------------------------------------------------------------
$comment
SP
$end

$rem
MEM_STATIC 5000
MEM_TOTAL 20000
JOBTYPE SP
EXCHANGE B3LYP
BASIS 6-31g(d,p)
$end

$molecule
0 1
C          10.309000     11.800000      8.060000
C          11.325000     11.210000      7.278000
N           9.310000     12.515000      7.580000
C          11.335000     11.524000      5.905000
C           9.247000     12.660000      6.276000
C          10.203000     12.181000      5.359000
C          10.039000     12.448000      3.896000
C           9.885000     13.751000      3.433000
C          10.290000     11.475000      2.948000
N           9.753000     14.122000      2.180000
N          10.559000     10.207000      3.227000
C          10.228000     11.856000      1.626000
C           9.861000     13.222000      1.227000
S          10.657000      9.623000      1.753000
N          10.404000     10.852000      0.745000
C           9.781000     13.676000     -0.166000
S          10.060000     12.778000     -1.611000
C           9.482000     14.974000     -0.528000
C           9.816000     14.167000     -2.758000
S           9.156000     16.287000      0.514000
C           9.607000     15.292000     -1.890000
C           9.928000     14.324000     -4.204000
C           9.171000     17.353000     -0.871000
C           9.451000     16.678000     -2.075000
N           9.388000     15.362000     -4.813000
S          10.486000     12.979000     -5.130000
C           9.291000     15.058000     -6.132000
C           9.855000     13.899000     -6.480000
C          10.365000     11.506000      9.541000
H          12.091000     10.649000      7.805000
H          12.103000     11.114000      5.256000
H           8.324000     13.179000      6.024000
H           9.770000     14.587000      4.121000
H           9.147000     18.411000     -0.644000
H           9.505000     17.154000     -3.048000
H           8.893000     15.735000     -6.878000
H           9.852000     13.486000     -7.480000
H           9.423000     11.688000     10.073000
C          11.491000     12.239000     10.307000
H          10.472000     10.421000      9.666000
H          12.405000     12.344000      9.709000
H          11.504000     11.781000     11.304000
C          10.921000     13.622000     10.656000
H          10.877000     14.319000      9.810000
C          11.779000     14.289000     11.809000
H           9.899000     13.595000     11.054000
H          12.781000     14.418000     11.381000
H          11.879000     13.585000     12.645000
C          11.084000     15.535000     12.413000
H          10.859000     16.159000     11.539000
C          11.870000     16.466000     13.293000
H          10.151000     15.170000     12.859000
H          11.330000     17.399000     13.501000
H          12.852000     16.750000     12.895000
H          12.084000     16.068000     14.293000
C          14.181000      8.749000      3.405000
C          15.355000      8.869000      4.149000
N          13.653000      9.834000      2.788000
C          15.873000     10.150000      4.351000
C          14.183000     11.034000      2.998000
C          15.256000     11.336000      3.835000
C          15.844000     12.748000      3.923000
C          17.207000     12.889000      4.001000
C          15.064000     13.948000      3.709000
N          17.856000     14.122000      4.004000
N          13.723000     13.985000      3.688000
C          15.719000     15.199000      3.668000
C          17.105000     15.267000      3.857000
S          13.344000     15.530000      3.299000
N          14.882000     16.150000      3.333000
C          17.960000     16.455000      3.728000
S          19.656000     16.470000      3.125000
C          17.545000     17.728000      4.066000
C          19.731000     18.210000      3.292000
S          16.142000     18.310000      4.940000
C          18.576000     18.702000      3.944000
C          20.742000     19.106000      2.807000
C          16.908000     19.869000      5.129000
C          18.212000     20.003000      4.475000
N          21.807000     18.507000      2.407000
S          20.852000     20.845000      2.886000
C          22.833000     19.401000      2.228000
C          22.470000     20.688000      2.347000
C          13.524000      7.435000      3.180000
H          15.872000      7.984000      4.508000
H          16.676000     10.372000      5.048000
H          13.770000     11.815000      2.362000
H          17.886000     12.043000      4.100000
H          16.430000     20.603000      5.764000
H          18.874000     20.859000      4.531000
H          23.760000     18.978000      1.863000
H          23.144000     21.529000      2.447000
H          12.627000      7.651000      2.587000
C          13.194000      6.485000      4.357000
H          14.022000      6.814000      2.424000
H          13.830000      6.682000      5.229000
H          13.429000      5.456000      4.058000
C          11.697000      6.380000      4.826000
H          11.621000      5.940000      5.828000
C          10.821000      5.639000      3.765000
H          11.329000      7.413000      4.801000
H          10.982000      4.558000      3.865000
H          11.087000      5.896000      2.732000
C           9.354000      5.810000      4.096000
H           8.846000      4.889000      3.785000
C           8.804000      6.884000      3.284000
H           9.146000      5.913000      5.168000
H           9.155000      7.838000      3.695000
H           7.711000      6.977000      3.285000
H           9.202000      6.823000      2.263000
$end

--------------------------------------------------------------

             Standard Nuclear Orientation (Angstroms)
    I     Atom           X                Y                Z
 ----------------------------------------------------------------
    1      C      -2.4925725861     5.2916643845    -1.6984775164
    2      C      -2.2649692001     4.7382545336    -0.4202700858
    3      N      -2.8623354072     4.6033556927    -2.7610840292
    4      C      -2.3112425249     3.3343347054    -0.3168636281
    5      C      -3.0587747520     3.3141751797    -2.6034921863
    6      C      -2.8293257363     2.5978563776    -1.4124814714
    7      C      -3.0517161506     1.1188569896    -1.3717713493
    8      C      -2.4127296992     0.2873112249    -2.2861683945
    9      C      -3.6692255058     0.5070028377    -0.2981090686
   10      N      -2.5052223023    -1.0214844330    -2.3459433406
   11      N      -4.2346749157     1.1545315489     0.7113459987
   12      C      -3.7162223442    -0.8693928332    -0.3020147597
   13      C      -3.1826906049    -1.6623274866    -1.4184575566
   14      S      -4.8131016147    -0.0777169421     1.5300780735
   15      N      -4.3968393078    -1.4094125961     0.7276901517
   16      C      -3.2092415630    -3.1284996878    -1.4694391498
   17      S      -3.8503288380    -4.2366365565    -0.3147488077
   18      C      -2.6621892874    -3.8647131661    -2.5009295871
   19      C      -3.3502191525    -5.7483744992    -1.1916779355
   20      S      -1.8637144572    -3.2653622545    -3.8862907062
   21      C      -2.6185403474    -5.2572687201    -2.3257816521
   22      C      -3.4356082163    -7.1735760206    -0.8923147262
   23      C      -1.4239961458    -4.9038511955    -4.3067758984
   24      C      -1.8757249725    -5.8480591662    -3.3644100590
   25      N      -3.2808774750    -8.0727413128    -1.8449348893
   26      S      -4.0610007054    -7.6485419412     0.6442908214
   27      C      -3.7946259324    -9.2435815916    -1.3902024801
   28      C      -4.1879554952    -9.2217899451    -0.1145465785
   29      C      -2.3643245347     6.7939391884    -1.7967417046
   30      H      -1.9600324210     5.4215771952     0.3666795319
   31      H      -2.1268032736     2.8500647568     0.6373846517
   32      H      -3.4559421498     2.9030830000    -3.5298049184
   33      H      -1.8310997045     0.6940112295    -3.1118600171
   34      H      -0.7177919055    -5.0015706951    -5.1211440401
   35      H      -1.7104037584    -6.9173700465    -3.4383298631
   36      H      -3.7927157121   -10.1638719765    -1.9614388223
   37      H      -4.6427357971   -10.0540313392     0.4061521241
   38      H      -2.8465351737     7.2310733476    -2.6798603979
   39      C      -0.9140811836     7.3277944952    -1.7358012918
   40      H      -2.9607327771     7.2372305981    -0.9892214667
   41      H      -0.2800270471     6.7419621866    -1.0584528894
   42      H      -1.0136368613     8.4158710766    -1.6352029813
   43      C      -0.3806899831     7.2403653212    -3.1735912510
   44      H      -0.1219818854     6.2249691796    -3.4984016507
   45      C       0.9004150664     8.1585310592    -3.3354662942
   46      H      -1.0818812860     7.6101680755    -3.9320064933
   47      H       1.6468985219     7.7294542410    -2.6554041391
   48      H       0.6768667263     9.1674549585    -2.9658574400
   49      C       1.3003711336     8.3530040563    -4.8195728934
   50      H       1.3725785263     7.3293164488    -5.2078083562
   51      C       2.6472700517     8.9308768208    -5.1525644438
   52      H       0.4563632692     8.8705432737    -5.2912018612
   53      H       2.8866824171     8.8429239574    -6.2204122855
   54      H       3.4843813853     8.4840812430    -4.6021079724
   55      H       2.7360114124    10.0075904904    -4.9601777378
   56      C      -2.4544982464     1.8217651643     4.1263280380
   57      C      -1.3677175943     2.5174151709     4.6566023846
   58      N      -2.2620763618     0.9012254620     3.1504804705
   59      C      -0.1204993337     2.3392950406     4.0542662414
   60      C      -1.0566552733     0.7549989001     2.6114277904
   61      C       0.0898196490     1.4836235807     2.9241630256
   62      C       1.4521046156     1.1590247866     2.3028359840
   63      C       2.5684152917     1.2159322650     3.0992944031
   64      C       1.6068584803     0.5846343546     0.9836230092
   65      N       3.8447630757     0.8643938213     2.6647186825
   66      N       0.6321799543     0.5297086366     0.0632557257
   67      C       2.8910499159     0.1858503444     0.5505748939
   68      C       3.9980813655     0.3708142572     1.3881969569
   69      S       1.2740073849    -0.3070210769    -1.1897119258
   70      N       2.8205334653    -0.4311772784    -0.6033312300
   71      C       5.3736106498    -0.0897269839     1.1540368550
   72      S       6.5287439801    -0.6396867979     2.4203153363
   73      C       5.9490383080    -0.1522478076    -0.0997462829
   74      C       7.7366069247    -0.9953528370     1.2055384944
   75      S       5.4464014391     0.4844799346    -1.6531113270
   76      C       7.3185275003    -0.5394524416    -0.0666868883
   77      C       8.9733229101    -1.7063443111     1.3642416624
   78      C       7.0542521933     0.2158534671    -2.2820896838
   79      C       7.9858077678    -0.4251045513    -1.3507116562
   80      N       9.3026961654    -1.8914875194     2.5931685321
   81      S      10.1900925135    -2.1451097134     0.1940200364
   82      C      10.6063042092    -2.3094583712     2.6924632203
   83      C      11.1884861828    -2.5843027233     1.5144039129
   84      C      -3.8303617004     1.9852436339     4.6640496628
   85      H      -1.4875416664     3.1320661630     5.5438686071
   86      H       0.7480715539     2.9531858630     4.2747762671
   87      H      -0.9783520819    -0.0914022262     1.9313544534
   88      H       2.5453941777     1.5736538490     4.1279164409
   89      H       7.2910480707     0.5957574027    -3.2670088237
   90      H       9.0387749811    -0.6139112460    -1.5231299841
   91      H      10.9532490388    -2.5158819850     3.6967050124
   92      H      12.2488930406    -2.7264335617     1.3504126917
   93      H      -4.4670522925     1.3389713794     4.0477126908
   94      C      -4.4677542958     3.3850978153     4.8397424349
   95      H      -4.0020779846     1.4566293313     5.6107605145
   96      H      -3.7065231844     4.1705181378     4.9253643475
   97      H      -5.0122023774     3.4092259051     5.7918249532
   98      C      -5.5582647693     3.8373770072     3.8013660870
   99      H      -5.7113007531     4.9232990863     3.8284442303
  100      C      -6.8832451798     3.0286933491     3.9820194925
  101      H      -5.1702954042     3.5003463165     2.8323314719
  102      H      -7.4416864674     3.4478904176     4.8287184627
  103      H      -6.7129773848     1.9708749475     4.2185001624
  104      C      -7.7994065002     3.2678292602     2.8011920491
  105      H      -8.8275801522     3.2352060743     3.1817451585
  106      C      -7.6667479500     2.1639822512     1.8635122052
  107      H      -7.6874332974     4.2570656132     2.3408330155
  108      H      -6.7151114175     2.2794903685     1.3312681025
  109      H      -8.4173047274     2.1178589311     1.0648657483
  110      H      -7.6012303795     1.2143585457     2.4098530019
 ----------------------------------------------------------------

    9   -5663.4831741070      7.50E-06 Convergence criterion met
 Total energy in the final basis set = -5663.4831741070

                    Orbital Energies (a.u.)
 --------------------------------------------------------------

 Alpha MOs
 -- Occupied --
-88.989 -88.978 -88.929 -88.928 -88.923 -88.923 -88.919 -88.900
-14.385 -14.384 -14.384 -14.377 -14.352 -14.340 -14.339 -14.337
-14.334 -14.318 -10.268 -10.265 -10.263 -10.262 -10.259 -10.258
-10.246 -10.243 -10.242 -10.242 -10.241 -10.240 -10.239 -10.238
-10.235 -10.233 -10.232 -10.227 -10.227 -10.225 -10.224 -10.223
-10.222 -10.220 -10.219 -10.219 -10.217 -10.217 -10.216 -10.215
-10.215 -10.210 -10.209 -10.207 -10.207 -10.203 -10.194 -10.191
-10.189 -10.189 -10.183 -10.183 -10.176 -10.176 -10.175 -10.172
-10.172 -10.169 -10.168 -10.162  -8.044  -8.034  -7.990  -7.986
 -7.985  -7.982  -7.979  -7.961  -6.009  -6.004  -6.001  -5.999
 -5.993  -5.992  -5.954  -5.951  -5.950  -5.949  -5.947  -5.947
 -5.946  -5.946  -5.943  -5.943  -5.942  -5.942  -5.940  -5.939
 -5.935  -5.925  -5.921  -5.917  -1.056  -1.041  -0.983  -0.976
 -0.969  -0.950  -0.946  -0.945  -0.921  -0.911  -0.906  -0.904
 -0.843  -0.840  -0.833  -0.831  -0.815  -0.814  -0.808  -0.808
 -0.806  -0.800  -0.799  -0.796  -0.793  -0.780  -0.772  -0.765
 -0.755  -0.748  -0.744  -0.737  -0.727  -0.714  -0.712  -0.704
 -0.696  -0.689  -0.677  -0.669  -0.661  -0.650  -0.649  -0.642
 -0.638  -0.632  -0.630  -0.623  -0.615  -0.606  -0.604  -0.597
 -0.594  -0.587  -0.586  -0.578  -0.576  -0.572  -0.567  -0.566
 -0.548  -0.547  -0.538  -0.537  -0.528  -0.521  -0.521  -0.514
 -0.506  -0.505  -0.504  -0.495  -0.489  -0.486  -0.480  -0.477
 -0.476  -0.476  -0.472  -0.468  -0.467  -0.459  -0.453  -0.448
 -0.447  -0.441  -0.440  -0.440  -0.437  -0.434  -0.432  -0.430
 -0.429  -0.428  -0.423  -0.422  -0.418  -0.417  -0.414  -0.412
 -0.411  -0.410  -0.408  -0.403  -0.402  -0.401  -0.399  -0.398
 -0.394  -0.392  -0.390  -0.386  -0.386  -0.382  -0.381  -0.378
 -0.377  -0.374  -0.372  -0.371  -0.367  -0.364  -0.362  -0.357
 -0.355  -0.353  -0.349  -0.347  -0.346  -0.345  -0.345  -0.344
 -0.341  -0.339  -0.337  -0.332  -0.331  -0.323  -0.323  -0.320
 -0.318  -0.311  -0.305  -0.303  -0.303  -0.301  -0.296  -0.295
 -0.295  -0.293  -0.292  -0.291  -0.289  -0.285  -0.282  -0.282
 -0.279  -0.274  -0.266  -0.260  -0.257  -0.256  -0.248  -0.247
 -0.246  -0.240  -0.235  -0.227  -0.192  -0.188

          Ground-State Mulliken Net Atomic Charges

     Atom                 Charge (a.u.)
  ----------------------------------------
      1 C                     0.281710
      2 C                    -0.113749
      3 N                    -0.463269
      4 C                    -0.060303
      5 C                     0.058411
      6 C                     0.017654
      7 C                     0.010795
      8 C                     0.059188
      9 C                     0.247176
     10 N                    -0.523763
     11 N                    -0.539214
     12 C                     0.139224
     13 C                     0.340525
     14 S                     0.636341
     15 N                    -0.531862
     16 C                    -0.208236
     17 S                     0.324293
     18 C                    -0.134234
     19 C                    -0.237952
     20 S                     0.292716
     21 C                     0.154289
     22 C                     0.061816
     23 C                    -0.316338
     24 C                    -0.074344
     25 N                    -0.433764
     26 S                     0.270007
     27 C                     0.136647
     28 C                    -0.303228
     29 C                    -0.243936
     30 H                     0.092415
     31 H                     0.119136
     32 H                     0.097466
     33 H                     0.105539
     34 H                     0.126998
     35 H                     0.120848
     36 H                     0.114662
     37 H                     0.121283
     38 H                     0.110011
     39 C                    -0.173426
     40 H                     0.093981
     41 H                     0.100658
     42 H                     0.100298
     43 C                    -0.180720
     44 H                     0.101914
     45 C                    -0.179358
     46 H                     0.094365
     47 H                     0.084798
     48 H                     0.082901
     49 C                    -0.169155
     50 H                     0.094509
     51 C                    -0.320441
     52 H                     0.094553
     53 H                     0.100313
     54 H                     0.102525
     55 H                     0.095651
     56 C                     0.294390
     57 C                    -0.107792
     58 N                    -0.498370
     59 C                    -0.104335
     60 C                     0.085220
     61 C                     0.050893
     62 C                     0.061538
     63 C                     0.044520
     64 C                     0.192696
     65 N                    -0.523039
     66 N                    -0.546698
     67 C                     0.271125
     68 C                     0.264596
     69 S                     0.614412
     70 N                    -0.574023
     71 C                    -0.212520
     72 S                     0.364537
     73 C                    -0.111102
     74 C                    -0.197957
     75 S                     0.303034
     76 C                     0.098606
     77 C                     0.072572
     78 C                    -0.312608
     79 C                    -0.090213
     80 N                    -0.423290
     81 S                     0.269034
     82 C                     0.111713
     83 C                    -0.309736
     84 C                    -0.258414
     85 H                     0.101087
     86 H                     0.098425
     87 H                     0.106898
     88 H                     0.115725
     89 H                     0.137005
     90 H                     0.120236
     91 H                     0.114592
     92 H                     0.135228
     93 H                     0.118703
     94 C                    -0.188780
     95 H                     0.121858
     96 H                     0.088451
     97 H                     0.094403
     98 C                    -0.186369
     99 H                     0.096570
    100 C                    -0.177335
    101 H                     0.115033
    102 H                     0.086319
    103 H                     0.092501
    104 C                    -0.169775
    105 H                     0.085612
    106 C                    -0.321255
    107 H                     0.095961
    108 H                     0.119085
    109 H                     0.094200
    110 H                     0.098509
  ----------------------------------------
  Sum of atomic charges =     0.000000

                    Cartesian Multipole Moments
 -----------------------------------------------------------------
    Charge (ESU x 10^10)
                 0.0000
    Dipole Moment (Debye)
         X       2.3670      Y       0.1966      Z       2.3036
       Tot       3.3088
    Quadrupole Moments (Debye-Ang)
        XX    -407.3029     XY      -2.3515     YY    -419.1137
        XZ     -29.0559     YZ       8.5959     ZZ    -436.0795

 Total job time:  88.59s(wall), 1059.41s(cpu)
        *  Thank you very much for using Q-Chem.  Have a nice day.  *
