 Q-Chem 4.4, Q-Chem, Inc., Pleasanton, CA (2016)
 Q-Chem 4.4.2 for Intel X86 Linux

User input:
--------------------------------------------------------------
$comment
SP
$end

$rem
MEM_STATIC 5000
MEM_TOTAL 20000
JOBTYPE SP
EXCHANGE B3LYP
BASIS 6-31g(d,p)
$end

$molecule
0 1
C         -21.666000      0.133000    -13.272000
C         -20.822000     -0.810000    -13.846000
N         -21.145000      1.159000    -12.560000
C         -19.404000     -0.751000    -13.655000
C         -19.810000      1.243000    -12.463000
C         -18.901000      0.299000    -12.924000
C         -17.420000      0.339000    -12.667000
C         -16.544000     -0.412000    -13.466000
C         -16.846000      0.907000    -11.581000
N         -15.235000     -0.648000    -13.155000
N         -17.505000      1.691000    -10.687000
C         -15.519000      0.640000    -11.161000
C         -14.668000     -0.175000    -12.000000
S         -16.409000      2.176000     -9.587000
N         -15.194000      1.130000    -10.011000
C         -13.378000     -0.694000    -11.617000
S         -12.688000     -0.784000    -10.072000
C         -12.594000     -1.419000    -12.490000
C         -11.156000     -1.243000    -10.741000
S         -12.853000     -1.851000    -14.159000
C         -11.324000     -1.690000    -12.001000
C          -9.935000     -1.317000     -9.988000
C         -11.227000     -2.477000    -14.210000
C         -10.540000     -2.409000    -13.011000
N          -8.843000     -1.771000    -10.626000
S          -9.711000     -0.754000     -8.369000
C          -7.796000     -1.700000     -9.693000
C          -8.054000     -1.285000     -8.418000
C         -23.193000     -0.027000    -13.374000
H         -21.295000     -1.668000    -14.315000
H         -18.831000     -1.643000    -13.891000
H         -19.431000      2.212000    -12.143000
H         -16.854000     -0.832000    -14.422000
H         -10.927000     -2.770000    -15.208000
H          -9.512000     -2.731000    -12.881000
H          -6.823000     -2.085000     -9.967000
H          -7.458000     -1.287000     -7.515000
H         -23.380000     -0.702000    -14.218000
C         -23.828000      1.404000    -13.617000
H         -23.621000     -0.528000    -12.497000
H         -23.728000      1.754000    -14.652000
H         -23.439000      2.108000    -12.871000
C         -25.355000      1.335000    -13.324000
H         -25.769000      0.495000    -13.895000
C         -26.188000      2.644000    -13.635000
H         -25.510000      1.111000    -12.261000
H         -26.168000      2.963000    -14.685000
H         -25.730000      3.490000    -13.107000
C         -27.677000      2.436000    -13.225000
H         -28.003000      1.442000    -13.554000
C         -28.478000      3.663000    -13.705000
H         -27.885000      2.327000    -12.153000
H         -29.303000      3.977000    -13.055000
H         -28.821000      3.498000    -14.734000
H         -27.807000      4.508000    -13.902000
C         -15.833000      5.821000     -9.151000
C         -15.112000      5.166000     -8.141000
N         -15.587000      5.703000    -10.484000
C         -14.120000      4.247000     -8.584000
C         -14.606000      4.903000    -10.885000
C         -13.806000      4.216000    -10.004000
C         -12.756000      3.373000    -10.490000
C         -11.582000      3.161000     -9.694000
C         -12.600000      2.863000    -11.802000
N         -10.464000      2.510000    -10.047000
N         -13.478000      2.845000    -12.800000
C         -11.480000      2.151000    -12.137000
C         -10.387000      2.026000    -11.274000
S         -12.821000      2.001000    -14.028000
N         -11.373000      1.721000    -13.416000
C          -9.056000      1.462000    -11.683000
S          -8.698000      0.356000    -13.037000
C          -7.858000      1.848000    -11.116000
C          -6.971000      0.300000    -12.694000
S          -7.560000      3.038000     -9.925000
C          -6.741000      1.131000    -11.663000
C          -6.061000     -0.734000    -13.068000
C          -5.818000      2.651000    -10.112000
C          -5.595000      1.672000    -11.066000
N          -6.315000     -1.359000    -14.200000
S          -4.670000     -1.243000    -12.103000
C          -5.357000     -2.310000    -14.450000
C          -4.302000     -2.332000    -13.450000
C         -16.673000      7.051000     -8.741000
H         -15.156000      5.445000     -7.093000
H         -13.533000      3.601000     -7.939000
H         -14.628000      5.006000    -11.969000
H         -11.481000      3.627000     -8.715000
H          -5.235000      3.172000     -9.364000
H          -4.619000      1.283000    -11.333000
H          -5.478000     -2.909000    -15.343000
H          -3.367000     -2.866000    -13.350000
H         -17.189000      6.693000     -7.841000
C         -17.696000      7.573000     -9.750000
H         -15.949000      7.856000     -8.561000
H         -17.153000      7.865000    -10.657000
H         -18.170000      8.493000     -9.388000
C         -18.873000      6.684000    -10.060000
H         -19.429000      7.126000    -10.897000
C         -19.821000      6.582000     -8.865000
H         -18.599000      5.675000    -10.394000
H         -20.347000      7.536000     -8.733000
H         -19.367000      6.174000     -7.954000
C         -20.974000      5.527000     -9.093000
H         -20.585000      4.540000     -9.372000
C         -22.156000      6.052000     -9.982000
H         -21.402000      5.398000     -8.091000
H         -23.141000      5.640000     -9.728000
H         -21.931000      5.715000    -11.001000
H         -22.377000      7.126000     -9.979000
$end

--------------------------------------------------------------

             Standard Nuclear Orientation (Angstroms)
    I     Atom           X                Y                Z
 ----------------------------------------------------------------
    1      C       7.3652270951     3.1531169379     0.2941363696
    2      C       6.3627314469     4.1120177770     0.2130644509
    3      N       7.0451580524     1.8388390561     0.2582134349
    4      C       4.9819241430     3.7384791366     0.1457883506
    5      C       5.7532968031     1.5101404230     0.1107626932
    6      C       4.6838412038     2.3968105655     0.1150962275
    7      C       3.2356649358     1.9922393481     0.1042506318
    8      C       2.2473566879     2.9150682397    -0.2717967643
    9      C       2.7597378928     0.8347775612     0.6192959322
   10      N       0.9095950551     2.7320473630    -0.0649268234
   11      N       3.5398000485    -0.2014413665     1.0266365355
   12      C       1.3949894092     0.6134806935     0.9309163309
   13      C       0.4191854709     1.6146731892     0.5597462074
   14      S       2.5357426086    -1.3796006983     1.5268867192
   15      N       1.1449924389    -0.4776107114     1.5753122193
   16      C      -0.9598062265     1.6252544998     0.9821440464
   17      S      -1.6964662500     0.7306069690     2.2183328690
   18      C      -1.8507154394     2.5823447170     0.5432031725
   19      C      -3.2706539709     1.2415127348     1.7024120244
   20      S      -1.6389734751     3.9053487831    -0.5721853614
   21      C      -3.1624306568     2.3346338687     0.9220230824
   22      C      -4.5015420949     0.6934782239     2.2003061910
   23      C      -3.3564973860     4.1933378048    -0.4978419755
   24      C      -4.0482923421     3.3632249993     0.3661756568
   25      N      -5.6450272594     1.2509469041     1.7675310195
   26      S      -4.6508796456    -0.7030863505     3.2080818037
   27      C      -6.6810537503     0.5111385179     2.3600440250
   28      C      -6.3793859806    -0.4984814209     3.2284207497
   29      C       8.8295765765     3.5762311558     0.5048208612
   30      H       6.6633732755     5.1463599462     0.3530814783
   31      H       4.2455953043     4.5091437342     0.3545583662
   32      H       5.5714676778     0.4828632479    -0.2001099088
   33      H       2.4915641634     3.8385719775    -0.7951891172
   34      H      -3.6820669777     4.9425071840    -1.2081958889
   35      H      -5.1236111567     3.3946576077     0.5078423011
   36      H      -7.7041542823     0.8277259090     2.2081633974
   37      H      -6.9881789905    -1.0923959396     3.8971999477
   38      H       8.8982092673     4.6262729802     0.1955770727
   39      C       9.7500464203     2.6426259785    -0.3846461924
   40      H       9.1215673050     3.5618902448     1.5621050013
   41      H       9.7525683558     2.9188656022    -1.4464419874
   42      H       9.4924121916     1.5923938285    -0.2000113219
   43      C      11.2219669670     2.7712578421     0.1044782783
   44      H      11.4713991041     3.8386882901     0.1420661434
   45      C      12.3131563839     2.0056429958    -0.7482998661
   46      H      11.2982223597     2.3851286473     1.1288118959
   47      H      12.3880449358     2.3278813578    -1.7948251371
   48      H      12.0230949236     0.9505040086    -0.8308229967
   49      C      13.7162336216     2.1765362624    -0.0920569564
   50      H      13.8413454225     3.2210401805     0.2176390273
   51      C      14.7640735461     1.5670999250    -1.0450253941
   52      H      13.8675921876     1.6997753266     0.8847329875
   53      H      15.6173606596     1.0759057593    -0.5629980156
   54      H      15.0947016389     2.3284239865    -1.7625110996
   55      H      14.2856093152     0.8841714307    -1.7575951461
   56      C       2.7045829299    -4.6845505268    -0.1632897736
   57      C       1.8370912810    -4.8248343832     0.9306684883
   58      N       2.4769486127    -3.8829722865    -1.2389216541
   59      C       0.6910241125    -3.9814053275     0.9250583866
   60      C       1.3647836218    -3.1583230031    -1.2726032368
   61      C       0.4170508547    -3.2127697662    -0.2791405288
   62      C      -0.7690447203    -2.4163033500    -0.3694928111
   63      C      -1.9833338925    -2.8685055172     0.2452030538
   64      C      -0.9892792391    -1.2928214537    -1.2031985059
   65      N      -3.2004554551    -2.3132983720     0.1519607471
   66      N      -0.1059810305    -0.5860851232    -1.9014248546
   67      C      -2.2213214832    -0.6982080369    -1.2487593800
   68      C      -3.3404471381    -1.2462244170    -0.6145048446
   69      S      -0.8870260005     0.6856258707    -2.5531064509
   70      N      -2.3781864478     0.3491879932    -2.0916976572
   71      C      -4.7466568762    -0.7636314600    -0.8304127192
   72      S      -5.2851346360     0.8381900590    -1.4039330094
   73      C      -5.8558783480    -1.5795781354    -0.7327001337
   74      C      -6.9960358681     0.4259842291    -1.3250829758
   75      S      -5.9375981609    -3.2602916451    -0.4295352107
   76      C      -7.0800924550    -0.8622070918    -0.9510246768
   77      C      -8.0872828150     1.3373916427    -1.1999885017
   78      C      -7.7160110784    -3.1093048335    -0.6132536842
   79      C      -8.1076036026    -1.8132744500    -0.9052237853
   80      N      -7.9348412062     2.5175922986    -1.7660741557
   81      S      -9.5792971906     0.9996868727    -0.3139661593
   82      C      -9.0595601105     3.2847482780    -1.5895972743
   83      C     -10.1242824768     2.5821958274    -0.8922484829
   84      C       3.7663699600    -5.7866988233    -0.3741865142
   85      H       1.9079065953    -5.6299877991     1.6550952742
   86      H      -0.0333259729    -3.9048097175     1.7296452783
   87      H       1.4375921774    -2.6344694344    -2.2246669704
   88      H      -2.0142764667    -3.8100872486     0.7913389345
   89      H      -8.2009172641    -4.0413451831    -0.3544085996
   90      H      -9.1346520985    -1.4977911281    -1.0495417009
   91      H      -9.0386165553     4.2899381684    -1.9896543348
   92      H     -11.1510715396     2.8176240951    -0.6479970726
   93      H       4.1730413243    -5.9169120203     0.6367946552
   94      C       4.9021745688    -5.4918734645    -1.3540435948
   95      H       3.2173560933    -6.6554095315    -0.7595778471
   96      H       4.4557956609    -5.3080948312    -2.3387939614
   97      H       5.5438356759    -6.3709195314    -1.4869685203
   98      C       5.8809214223    -4.4122259389    -0.9691204631
   99      H       6.5386191060    -4.2201587395    -1.8267992770
  100      C       6.7543786803    -4.8490425604     0.2070583743
  101      H       5.4160003404    -3.4453279148    -0.7374534641
  102      H       7.4602844185    -5.6195379540    -0.1279788433
  103      H       6.2013707991    -5.0943579713     1.1216640995
  104      C       7.6734420315    -3.6834339447     0.7465925359
  105      H       7.0989519230    -2.7829024566     0.9962626266
  106      C       8.9620955711    -3.4334239111    -0.1136033942
  107      H       8.0379405541    -4.0708852643     1.7062025097
  108      H       9.8346792861    -3.0869642080     0.4547700169
  109      H       8.7015116732    -2.6250790029    -0.8073104949
  110      H       9.3976678122    -4.2769450459    -0.6623063355
 ----------------------------------------------------------------

   10   -5663.4741881066      3.20E-06 Convergence criterion met
 Total energy in the final basis set = -5663.4741881066

                    Orbital Energies (a.u.)
 --------------------------------------------------------------

 Alpha MOs
 -- Occupied --
-88.986 -88.976 -88.930 -88.923 -88.920 -88.911 -88.904 -88.904
-14.381 -14.372 -14.371 -14.369 -14.347 -14.345 -14.342 -14.341
-14.328 -14.324 -10.264 -10.264 -10.259 -10.256 -10.249 -10.246
-10.243 -10.243 -10.238 -10.238 -10.237 -10.237 -10.234 -10.233
-10.233 -10.232 -10.226 -10.226 -10.225 -10.225 -10.225 -10.224
-10.222 -10.222 -10.222 -10.221 -10.217 -10.217 -10.216 -10.215
-10.210 -10.208 -10.207 -10.204 -10.200 -10.198 -10.196 -10.195
-10.190 -10.185 -10.176 -10.175 -10.175 -10.172 -10.172 -10.171
-10.168 -10.168 -10.165 -10.165  -8.041  -8.031  -7.990  -7.984
 -7.982  -7.969  -7.965  -7.964  -6.006  -6.000  -5.999  -5.997
 -5.991  -5.989  -5.954  -5.951  -5.948  -5.947  -5.946  -5.944
 -5.942  -5.940  -5.939  -5.934  -5.930  -5.929  -5.929  -5.926
 -5.926  -5.925  -5.921  -5.921  -1.047  -1.032  -0.965  -0.963
 -0.961  -0.947  -0.944  -0.935  -0.921  -0.910  -0.904  -0.901
 -0.849  -0.838  -0.837  -0.834  -0.810  -0.807  -0.805  -0.805
 -0.800  -0.796  -0.794  -0.793  -0.784  -0.776  -0.762  -0.761
 -0.745  -0.743  -0.738  -0.738  -0.725  -0.712  -0.705  -0.703
 -0.691  -0.688  -0.671  -0.671  -0.657  -0.650  -0.647  -0.642
 -0.636  -0.630  -0.624  -0.620  -0.614  -0.604  -0.604  -0.593
 -0.589  -0.585  -0.583  -0.579  -0.578  -0.577  -0.568  -0.551
 -0.546  -0.541  -0.540  -0.537  -0.522  -0.521  -0.515  -0.510
 -0.506  -0.504  -0.497  -0.496  -0.485  -0.481  -0.480  -0.472
 -0.471  -0.467  -0.466  -0.463  -0.461  -0.458  -0.450  -0.445
 -0.443  -0.440  -0.436  -0.435  -0.434  -0.433  -0.431  -0.428
 -0.428  -0.426  -0.422  -0.420  -0.418  -0.415  -0.414  -0.412
 -0.409  -0.407  -0.403  -0.399  -0.398  -0.396  -0.393  -0.392
 -0.389  -0.388  -0.386  -0.384  -0.382  -0.381  -0.379  -0.377
 -0.376  -0.372  -0.370  -0.363  -0.360  -0.358  -0.356  -0.353
 -0.352  -0.351  -0.350  -0.347  -0.345  -0.344  -0.340  -0.338
 -0.335  -0.330  -0.328  -0.326  -0.323  -0.322  -0.316  -0.314
 -0.310  -0.308  -0.303  -0.300  -0.297  -0.295  -0.294  -0.293
 -0.292  -0.291  -0.289  -0.289  -0.286  -0.285  -0.279  -0.278
 -0.276  -0.273  -0.267  -0.260  -0.252  -0.250  -0.248  -0.247
 -0.242  -0.234  -0.229  -0.223  -0.192  -0.190

          Ground-State Mulliken Net Atomic Charges

     Atom                 Charge (a.u.)
  ----------------------------------------
      1 C                     0.289766
      2 C                    -0.137943
      3 N                    -0.493492
      4 C                    -0.091849
      5 C                     0.084093
      6 C                     0.061890
      7 C                     0.054699
      8 C                     0.035120
      9 C                     0.222660
     10 N                    -0.542503
     11 N                    -0.558717
     12 C                     0.234639
     13 C                     0.306440
     14 S                     0.594310
     15 N                    -0.603550
     16 C                    -0.200090
     17 S                     0.309595
     18 C                    -0.127993
     19 C                    -0.262503
     20 S                     0.279593
     21 C                     0.186113
     22 C                     0.070649
     23 C                    -0.308304
     24 C                    -0.045111
     25 N                    -0.441058
     26 S                     0.280168
     27 C                     0.112690
     28 C                    -0.297657
     29 C                    -0.235036
     30 H                     0.082180
     31 H                     0.107492
     32 H                     0.121108
     33 H                     0.115005
     34 H                     0.134254
     35 H                     0.135335
     36 H                     0.111121
     37 H                     0.140742
     38 H                     0.099064
     39 C                    -0.176791
     40 H                     0.120030
     41 H                     0.095859
     42 H                     0.133324
     43 C                    -0.191878
     44 H                     0.083509
     45 C                    -0.185262
     46 H                     0.093595
     47 H                     0.090789
     48 H                     0.097253
     49 C                    -0.166996
     50 H                     0.093110
     51 C                    -0.332080
     52 H                     0.092202
     53 H                     0.100890
     54 H                     0.103269
     55 H                     0.105899
     56 C                     0.246923
     57 C                    -0.107237
     58 N                    -0.466006
     59 C                    -0.113424
     60 C                     0.071629
     61 C                     0.033990
     62 C                     0.096068
     63 C                     0.035302
     64 C                     0.264582
     65 N                    -0.513623
     66 N                    -0.580969
     67 C                     0.173436
     68 C                     0.276464
     69 S                     0.631189
     70 N                    -0.536233
     71 C                    -0.216422
     72 S                     0.371701
     73 C                    -0.113988
     74 C                    -0.194170
     75 S                     0.270365
     76 C                     0.131203
     77 C                     0.058363
     78 C                    -0.311841
     79 C                    -0.084846
     80 N                    -0.423311
     81 S                     0.261178
     82 C                     0.118748
     83 C                    -0.322297
     84 C                    -0.227119
     85 H                     0.104814
     86 H                     0.113459
     87 H                     0.132586
     88 H                     0.105114
     89 H                     0.131220
     90 H                     0.102381
     91 H                     0.118048
     92 H                     0.134966
     93 H                     0.097270
     94 C                    -0.163390
     95 H                     0.118603
     96 H                     0.104443
     97 H                     0.081211
     98 C                    -0.171468
     99 H                     0.092962
    100 C                    -0.171080
    101 H                     0.098765
    102 H                     0.091299
    103 H                     0.087923
    104 C                    -0.191522
    105 H                     0.103912
    106 C                    -0.324958
    107 H                     0.085391
    108 H                     0.099626
    109 H                     0.111419
    110 H                     0.097712
  ----------------------------------------
  Sum of atomic charges =     0.000000

                    Cartesian Multipole Moments
 -----------------------------------------------------------------
    Charge (ESU x 10^10)
                 0.0000
    Dipole Moment (Debye)
         X      -3.6868      Y      -0.4703      Z       2.1054
       Tot       4.2716
    Quadrupole Moments (Debye-Ang)
        XX    -409.4941     XY       7.9564     YY    -415.6976
        XZ     -10.1964     YZ     -13.4093     ZZ    -445.2691

 Total job time:  114.52s(wall), 1339.34s(cpu)
        *  Thank you very much for using Q-Chem.  Have a nice day.  *
