 Q-Chem 4.4, Q-Chem, Inc., Pleasanton, CA (2016)
 Q-Chem 4.4.2 for Intel X86 Linux

User input:
--------------------------------------------------------------
$comment
SP
$end

$rem
MEM_STATIC 5000
MEM_TOTAL 20000
JOBTYPE SP
EXCHANGE B3LYP
BASIS 6-31g(d,p)
$end

$molecule
0 1
C          -3.038000     -9.574000      0.606000
C          -2.540000     -9.281000     -0.673000
N          -3.943000     -8.802000      1.235000
C          -2.972000     -8.093000     -1.304000
C          -4.388000     -7.719000      0.578000
C          -3.915000     -7.279000     -0.675000
C          -4.503000     -6.090000     -1.274000
C          -5.886000     -5.839000     -1.307000
C          -3.743000     -5.083000     -1.970000
N          -6.510000     -4.800000     -1.967000
N          -2.399000     -5.118000     -2.185000
C          -4.278000     -3.960000     -2.512000
C          -5.717000     -3.839000     -2.513000
S          -1.927000     -3.711000     -2.870000
N          -3.343000     -3.128000     -3.096000
C          -6.380000     -2.746000     -3.292000
S          -5.512000     -1.432000     -4.050000
C          -7.723000     -2.508000     -3.400000
C          -6.988000     -0.607000     -4.626000
S          -9.110000     -3.354000     -2.689000
C          -8.051000     -1.367000     -4.137000
C          -7.170000      0.649000     -5.306000
C         -10.161000     -2.107000     -3.409000
C          -9.513000     -1.140000     -4.087000
N          -8.387000      0.859000     -5.937000
S          -6.149000      2.091000     -5.169000
C          -8.543000      2.164000     -6.305000
C          -7.459000      2.953000     -6.005000
C          -2.573000    -10.759000      1.467000
H          -1.806000     -9.907000     -1.173000
H          -2.642000     -7.848000     -2.310000
H          -5.214000     -7.170000      1.028000
H          -6.522000     -6.522000     -0.746000
H         -11.231000     -2.201000     -3.281000
H         -10.086000     -0.371000     -4.593000
H          -9.441000      2.530000     -6.785000
H          -7.316000      4.011000     -6.180000
H          -1.540000    -10.925000      1.137000
C          -3.392000    -12.050000      1.311000
H          -2.538000    -10.475000      2.526000
H          -2.700000    -12.850000      1.600000
H          -3.532000    -12.253000      0.242000
C          -4.708000    -12.076000      2.242000
H          -4.394000    -11.922000      3.282000
C          -5.525000    -13.467000      2.299000
H          -5.217000    -11.138000      1.988000
H          -4.959000    -14.265000      2.795000
H          -5.755000    -13.800000      1.279000
C          -6.762000    -13.255000      3.135000
H          -7.141000    -14.262000      3.348000
C          -7.832000    -12.280000      2.599000
H          -6.567000    -12.957000      4.173000
H          -8.591000    -12.140000      3.380000
H          -8.346000    -12.760000      1.758000
H          -7.518000    -11.307000      2.201000
C         -15.833000      5.821000     -9.151000
C         -15.112000      5.166000     -8.141000
N         -15.587000      5.703000    -10.484000
C         -14.120000      4.247000     -8.584000
C         -14.606000      4.903000    -10.885000
C         -13.806000      4.216000    -10.004000
C         -12.756000      3.373000    -10.490000
C         -11.582000      3.161000     -9.694000
C         -12.600000      2.863000    -11.802000
N         -10.464000      2.510000    -10.047000
N         -13.478000      2.845000    -12.800000
C         -11.480000      2.151000    -12.137000
C         -10.387000      2.026000    -11.274000
S         -12.821000      2.001000    -14.028000
N         -11.373000      1.721000    -13.416000
C          -9.056000      1.462000    -11.683000
S          -8.698000      0.356000    -13.037000
C          -7.858000      1.848000    -11.116000
C          -6.971000      0.300000    -12.694000
S          -7.560000      3.038000     -9.925000
C          -6.741000      1.131000    -11.663000
C          -6.061000     -0.734000    -13.068000
C          -5.818000      2.651000    -10.112000
C          -5.595000      1.672000    -11.066000
N          -6.315000     -1.359000    -14.200000
S          -4.670000     -1.243000    -12.103000
C          -5.357000     -2.310000    -14.450000
C          -4.302000     -2.332000    -13.450000
C         -16.673000      7.051000     -8.741000
H         -15.156000      5.445000     -7.093000
H         -13.533000      3.601000     -7.939000
H         -14.628000      5.006000    -11.969000
H         -11.481000      3.627000     -8.715000
H          -5.235000      3.172000     -9.364000
H          -4.619000      1.283000    -11.333000
H          -5.478000     -2.909000    -15.343000
H          -3.367000     -2.866000    -13.350000
H         -17.189000      6.693000     -7.841000
C         -17.696000      7.573000     -9.750000
H         -15.949000      7.856000     -8.561000
H         -17.153000      7.865000    -10.657000
H         -18.170000      8.493000     -9.388000
C         -18.873000      6.684000    -10.060000
H         -19.429000      7.126000    -10.897000
C         -19.821000      6.582000     -8.865000
H         -18.599000      5.675000    -10.394000
H         -20.347000      7.536000     -8.733000
H         -19.367000      6.174000     -7.954000
C         -20.974000      5.527000     -9.093000
H         -20.585000      4.540000     -9.372000
C         -22.156000      6.052000     -9.982000
H         -21.402000      5.398000     -8.091000
H         -23.141000      5.640000     -9.728000
H         -21.931000      5.715000    -11.001000
H         -22.377000      7.126000     -9.979000
$end

--------------------------------------------------------------

             Standard Nuclear Orientation (Angstroms)
    I     Atom           X                Y                Z
 ----------------------------------------------------------------
    1      C      12.4267606874    -0.7401297372    -0.4635537818
    2      C      11.7697259713     0.4834495910    -0.6656750558
    3      N      11.8151900013    -1.8254833856     0.0450116062
    4      C      10.4184505584     0.5918322475    -0.2676336532
    5      C      10.5116372401    -1.7108777027     0.3453093519
    6      C       9.7601140575    -0.5214901189     0.2563819572
    7      C       8.3472166611    -0.5511651519     0.6043853190
    8      C       7.4646337777    -1.5624903086     0.1859980807
    9      C       7.6810950785     0.4911736598     1.3432201035
   10      N       6.0977278165    -1.5805347979     0.3750469888
   11      N       8.2633082451     1.6400875396     1.7845937836
   12      C       6.3702328269     0.4626730607     1.6924275967
   13      C       5.5625241865    -0.6133525059     1.1678909133
   14      S       7.1953401325     2.4641445366     2.7076496736
   15      N       5.9701609821     1.5598678742     2.4297274408
   16      C       4.0737905402    -0.5811687139     1.3218238009
   17      S       3.2261918132     0.5868111376     2.3077160184
   18      C       3.1779357466    -1.5130145624     0.8734216338
   19      C       1.6158100803    -0.1277545686     2.0126846202
   20      S       3.4297556146    -3.0331264417    -0.0045605007
   21      C       1.8506850540    -1.2570799993     1.2277337820
   22      C       0.3189156952     0.2011947695     2.5445843166
   23      C       1.6768445760    -3.3288719883     0.1290338947
   24      C       0.9904001379    -2.3828439323     0.7987367771
   25      N      -0.7879290154    -0.2902481499     1.8687672973
   26      S      -0.0337121388     0.8926582669     4.1377277007
   27      C      -1.9289724158    -0.1478427180     2.6039717935
   28      C      -1.7301050264     0.4750801146     3.8122746968
   29      C      13.9216465206    -0.9760601923    -0.7308067818
   30      H      12.2713427286     1.3570053228    -1.0729992661
   31      H       9.8609151418     1.5081854358    -0.4420242884
   32      H       9.9859743581    -2.6211715658     0.6303016629
   33      H       7.9053124450    -2.4186561415    -0.3224194434
   34      H       1.2690645833    -4.2164275366    -0.3358108389
   35      H      -0.0873254253    -2.4678839907     0.8824135299
   36      H      -2.8921797011    -0.4984128825     2.2574284552
   37      H      -2.4497702106     0.7107461931     4.5849204902
   38      H      14.3680450937     0.0144338948    -0.5785084647
   39      C      14.2667523575    -1.5017943835    -2.1330491010
   40      H      14.3465232826    -1.6477234221     0.0253084494
   41      H      15.3033924485    -1.1842677148    -2.2971805618
   42      H      13.7300407794    -0.9012098418    -2.8779040467
   43      C      14.1399431815    -3.1046003248    -2.2523199997
   44      H      14.7805438166    -3.5562012520    -1.4844662188
   45      C      14.6710101178    -3.7710813059    -3.6232284616
   46      H      13.1249587940    -3.3065475402    -1.8883625634
   47      H      15.7586120811    -3.6850102059    -3.7367614311
   48      H      14.2015034949    -3.2719283427    -4.4803158844
   49      C      14.3748199293    -5.2489451930    -3.5763381263
   50      H      14.9629707033    -5.6859827626    -4.3925095727
   51      C      12.8938094260    -5.6840221537    -3.5646365362
   52      H      14.8596677101    -5.7866589214    -2.7516808789
   53      H      12.8557742287    -6.7681956742    -3.3950396576
   54      H      12.4773903040    -5.5179404956    -4.5650809363
   55      H      12.1914134766    -5.1735817273    -2.8939506921
   56      C      -9.6093576590    -3.6813476293     0.8309826346
   57      C      -8.2491173127    -3.8178136508     1.1473514464
   58      N     -10.1545372885    -2.6157239229     0.1840249174
   59      C      -7.3928999860    -2.7922046420     0.6575636856
   60      C      -9.3583970263    -1.6247473942    -0.1997565339
   61      C      -8.0095029380    -1.6169820941     0.0620724912
   62      C      -7.1978949936    -0.5185350968    -0.3669400244
   63      C      -6.0190229943    -0.1685971672     0.3710574382
   64      C      -7.5197196621     0.4610686256    -1.3378084140
   65      N      -5.2244216380     0.8950172157     0.1822000077
   66      N      -8.5112318677     0.4639192739    -2.2233068159
   67      C      -6.6740111817     1.5135328979    -1.5628975557
   68      C      -5.5556216047     1.7594551207    -0.7605447565
   69      S      -8.3135351750     1.7592682329    -3.1902380918
   70      N      -7.0545958438     2.4355275517    -2.4779227867
   71      C      -4.7417367016     3.0207773599    -0.8205078566
   72      S      -4.5940293474     4.1724163856    -2.1757296437
   73      C      -4.0712707487     3.5474871176     0.2651906453
   74      C      -3.4916435633     5.2385196457    -1.3088482090
   75      S      -4.0336367820     2.9962827124     1.8832581310
   76      C      -3.3426012787     4.7380322560    -0.0704134024
   77      C      -2.5628057671     6.1556259045    -1.8861769354
   78      C      -3.0035709770     4.4206403903     2.2430798131
   79      C      -2.7832847901     5.2077679644     1.1249607775
   80      N      -2.9156963220     6.7074762020    -3.0296341954
   81      S      -0.9846829157     6.5526837432    -1.1954813885
   82      C      -1.9475327440     7.5794229637    -3.4621074673
   83      C      -0.8391452664     7.7073826556    -2.5301136278
   84      C     -10.6111711727    -4.5675060060     1.6040887173
   85      H      -7.8670802911    -4.5414410219     1.8604377961
   86      H      -6.3108739192    -2.7872529303     0.7418552702
   87      H     -10.0445342936    -0.9221653354    -0.6706525960
   88      H      -5.7249670518    -0.7356604501     1.2529691888
   89      H      -2.6312612067     4.3683304643     3.2577142825
   90      H      -2.1841489705     6.1111728227     1.1159091649
   91      H      -2.1162788230     8.0729627825    -4.4101761399
   92      H       0.0400175979     8.3353062876    -2.4835779383
   93      H     -10.1329929246    -5.5543708032     1.5609211929
   94      C     -12.0363581275    -4.6595568823     1.0586872319
   95      H     -10.6721169154    -4.1346476138     2.6108261353
   96      H     -12.4615154501    -3.6486161106     1.0601039610
   97      H     -12.6766393528    -5.2434169620     1.7304515952
   98      C     -12.2222768371    -5.3467302174    -0.2698371528
   99      H     -13.2624182224    -5.2037491807    -0.5903544249
  100      C     -11.9651788622    -6.8495528521    -0.1577757409
  101      H     -11.6090832512    -4.9323201284    -1.0803745698
  102      H     -12.7829475051    -7.3196583318     0.4030016522
  103      H     -10.9574564790    -7.1175519819     0.1815958325
  104      C     -11.9841317980    -7.5750292257    -1.5605383073
  105      H     -11.2963842907    -7.1106170104    -2.2779333592
  106      C     -13.4244560936    -7.8656359472    -2.1119761160
  107      H     -11.5544844122    -8.5607716230    -1.3424923259
  108      H     -13.5100683405    -8.7767450803    -2.7178108218
  109      H     -13.6606586239    -7.0262960342    -2.7770113595
  110      H     -14.2389633928    -8.0203694423    -1.3943680021
 ----------------------------------------------------------------

    9   -5663.4874506601      7.15E-06 Convergence criterion met
 Total energy in the final basis set = -5663.4874506601

                    Orbital Energies (a.u.)
 --------------------------------------------------------------

 Alpha MOs
 -- Occupied --
-88.997 -88.991 -88.931 -88.929 -88.922 -88.917 -88.907 -88.903
-14.386 -14.382 -14.377 -14.371 -14.357 -14.350 -14.344 -14.342
-14.330 -14.326 -10.276 -10.271 -10.265 -10.260 -10.255 -10.254
-10.253 -10.249 -10.243 -10.243 -10.243 -10.240 -10.238 -10.238
-10.237 -10.231 -10.230 -10.230 -10.230 -10.230 -10.228 -10.227
-10.227 -10.226 -10.226 -10.225 -10.224 -10.221 -10.217 -10.215
-10.212 -10.212 -10.211 -10.208 -10.203 -10.202 -10.202 -10.192
-10.185 -10.183 -10.182 -10.180 -10.179 -10.177 -10.174 -10.174
-10.170 -10.170 -10.168 -10.167  -8.053  -8.047  -7.991  -7.990
 -7.981  -7.976  -7.968  -7.963  -6.018  -6.012  -6.012  -6.011
 -6.006  -6.005  -5.955  -5.954  -5.952  -5.950  -5.948  -5.947
 -5.946  -5.942  -5.940  -5.938  -5.936  -5.932  -5.932  -5.928
 -5.927  -5.924  -5.924  -5.919  -1.053  -1.049  -0.969  -0.964
 -0.953  -0.951  -0.942  -0.941  -0.914  -0.909  -0.908  -0.895
 -0.842  -0.840  -0.838  -0.835  -0.815  -0.814  -0.806  -0.805
 -0.797  -0.796  -0.795  -0.794  -0.785  -0.783  -0.769  -0.763
 -0.745  -0.743  -0.741  -0.731  -0.722  -0.716  -0.708  -0.704
 -0.691  -0.691  -0.675  -0.675  -0.660  -0.654  -0.650  -0.649
 -0.638  -0.635  -0.627  -0.626  -0.616  -0.615  -0.605  -0.596
 -0.596  -0.585  -0.582  -0.579  -0.577  -0.572  -0.563  -0.554
 -0.547  -0.545  -0.543  -0.540  -0.524  -0.523  -0.517  -0.508
 -0.507  -0.507  -0.500  -0.498  -0.489  -0.486  -0.481  -0.479
 -0.473  -0.472  -0.469  -0.468  -0.465  -0.452  -0.451  -0.447
 -0.444  -0.438  -0.437  -0.437  -0.433  -0.432  -0.431  -0.430
 -0.428  -0.424  -0.423  -0.421  -0.419  -0.418  -0.413  -0.412
 -0.412  -0.409  -0.407  -0.403  -0.401  -0.397  -0.397  -0.396
 -0.395  -0.395  -0.391  -0.388  -0.386  -0.385  -0.383  -0.381
 -0.381  -0.379  -0.374  -0.372  -0.363  -0.361  -0.358  -0.354
 -0.353  -0.351  -0.349  -0.346  -0.345  -0.343  -0.338  -0.333
 -0.333  -0.332  -0.331  -0.329  -0.327  -0.324  -0.321  -0.316
 -0.311  -0.307  -0.303  -0.302  -0.300  -0.299  -0.298  -0.294
 -0.293  -0.292  -0.289  -0.289  -0.288  -0.286  -0.284  -0.280
 -0.279  -0.277  -0.276  -0.271  -0.253  -0.252  -0.250  -0.247
 -0.244  -0.239  -0.235  -0.229  -0.196  -0.192

          Ground-State Mulliken Net Atomic Charges

     Atom                 Charge (a.u.)
  ----------------------------------------
      1 C                     0.268836
      2 C                    -0.125454
      3 N                    -0.475489
      4 C                    -0.049400
      5 C                     0.069092
      6 C                     0.050194
      7 C                     0.038567
      8 C                     0.055869
      9 C                     0.229927
     10 N                    -0.525314
     11 N                    -0.579386
     12 C                     0.190624
     13 C                     0.311765
     14 S                     0.620724
     15 N                    -0.539104
     16 C                    -0.237225
     17 S                     0.324558
     18 C                    -0.105398
     19 C                    -0.225850
     20 S                     0.271718
     21 C                     0.134159
     22 C                     0.024773
     23 C                    -0.301873
     24 C                    -0.038284
     25 N                    -0.431567
     26 S                     0.269856
     27 C                     0.157529
     28 C                    -0.313480
     29 C                    -0.224100
     30 H                     0.095044
     31 H                     0.109699
     32 H                     0.098431
     33 H                     0.114492
     34 H                     0.124493
     35 H                     0.121115
     36 H                     0.126567
     37 H                     0.126775
     38 H                     0.088239
     39 C                    -0.185320
     40 H                     0.117901
     41 H                     0.090521
     42 H                     0.089196
     43 C                    -0.179777
     44 H                     0.093222
     45 C                    -0.176375
     46 H                     0.122086
     47 H                     0.092327
     48 H                     0.093278
     49 C                    -0.175953
     50 H                     0.084516
     51 C                    -0.316841
     52 H                     0.092297
     53 H                     0.099082
     54 H                     0.099313
     55 H                     0.112644
     56 C                     0.253310
     57 C                    -0.116005
     58 N                    -0.473415
     59 C                    -0.086989
     60 C                     0.080842
     61 C                     0.040352
     62 C                     0.059728
     63 C                     0.035058
     64 C                     0.265288
     65 N                    -0.514460
     66 N                    -0.564738
     67 C                     0.163311
     68 C                     0.280434
     69 S                     0.612039
     70 N                    -0.528002
     71 C                    -0.214269
     72 S                     0.340467
     73 C                    -0.109999
     74 C                    -0.195338
     75 S                     0.271914
     76 C                     0.133245
     77 C                     0.054529
     78 C                    -0.308961
     79 C                    -0.081931
     80 N                    -0.420700
     81 S                     0.277548
     82 C                     0.118873
     83 C                    -0.321364
     84 C                    -0.228154
     85 H                     0.101988
     86 H                     0.104096
     87 H                     0.129143
     88 H                     0.101105
     89 H                     0.133329
     90 H                     0.104481
     91 H                     0.119456
     92 H                     0.136329
     93 H                     0.096955
     94 C                    -0.162927
     95 H                     0.118103
     96 H                     0.104692
     97 H                     0.080555
     98 C                    -0.170162
     99 H                     0.091691
    100 C                    -0.170088
    101 H                     0.098216
    102 H                     0.091754
    103 H                     0.089738
    104 C                    -0.189339
    105 H                     0.095542
    106 C                    -0.325113
    107 H                     0.086998
    108 H                     0.099587
    109 H                     0.107120
    110 H                     0.100895
  ----------------------------------------
  Sum of atomic charges =     0.000000

                    Cartesian Multipole Moments
 -----------------------------------------------------------------
    Charge (ESU x 10^10)
                 0.0000
    Dipole Moment (Debye)
         X       0.9700      Y       1.9769      Z       2.2847
       Tot       3.1732
    Quadrupole Moments (Debye-Ang)
        XX    -453.2503     XY      34.6204     YY    -423.9714
        XZ     -17.0601     YZ       0.1787     ZZ    -430.6931

 Total job time:  80.08s(wall), 929.55s(cpu)
        *  Thank you very much for using Q-Chem.  Have a nice day.  *
