 Q-Chem 4.4, Q-Chem, Inc., Pleasanton, CA (2016)
 Q-Chem 4.4.2 for Intel X86 Linux

User input:
--------------------------------------------------------------
$comment
SP
$end

$rem
MEM_STATIC 5000
MEM_TOTAL 20000
JOBTYPE SP
EXCHANGE B3LYP
BASIS 6-31g(d,p)
$end

$molecule
0 1
C         -27.641000     -0.932000     -5.170000
C         -26.987000     -2.158000     -5.042000
N         -27.030000      0.219000     -5.416000
C         -25.568000     -2.070000     -5.103000
C         -25.697000      0.244000     -5.644000
C         -24.898000     -0.900000     -5.480000
C         -23.369000     -0.801000     -5.616000
C         -22.797000      0.453000     -5.267000
C         -22.441000     -1.850000     -5.798000
N         -21.464000      0.706000     -5.462000
N         -22.813000     -3.138000     -6.115000
C         -21.014000     -1.553000     -5.888000
C         -20.589000     -0.223000     -5.827000
S         -21.366000     -3.807000     -6.673000
N         -20.330000     -2.654000     -6.288000
C         -19.145000      0.086000     -6.115000
S         -17.876000     -1.086000     -6.348000
C         -18.599000      1.327000     -6.088000
C         -16.605000      0.182000     -6.378000
S         -19.334000      2.896000     -5.853000
C         -17.168000      1.388000     -6.263000
C         -15.245000     -0.063000     -6.457000
C         -17.705000      3.693000     -6.194000
C         -16.756000      2.750000     -6.438000
N         -14.318000      0.864000     -6.539000
S         -14.618000     -1.707000     -6.516000
C         -13.035000      0.315000     -6.463000
C         -13.052000     -1.021000     -6.109000
C         -29.207000     -0.734000     -5.132000
H         -27.473000     -3.045000     -4.647000
H         -25.059000     -3.014000     -4.934000
H         -25.321000      1.203000     -5.997000
H         -23.457000      1.248000     -4.925000
H         -17.620000      4.772000     -6.215000
H         -15.720000      3.069000     -6.458000
H         -12.145000      0.868000     -6.735000
H         -12.202000     -1.685000     -6.020000
H         -29.411000      0.253000     -4.699000
C         -29.906000     -1.751000     -4.185000
H         -29.632000     -0.887000     -6.132000
H         -29.306000     -1.836000     -3.271000
H         -29.926000     -2.738000     -4.665000
C         -31.373000     -1.494000     -3.916000
H         -31.446000     -0.415000     -3.732000
C         -31.866000     -2.335000     -2.632000
H         -32.019000     -1.759000     -4.762000
H         -32.447000     -1.673000     -1.978000
H         -30.984000     -2.424000     -1.985000
C         -32.456000     -3.724000     -2.954000
H         -32.821000     -4.194000     -2.033000
C         -31.376000     -4.777000     -3.433000
H         -33.224000     -3.768000     -3.736000
H         -31.320000     -4.720000     -4.528000
H         -31.667000     -5.801000     -3.168000
H         -30.404000     -4.543000     -2.983000
C         -15.833000      5.821000     -9.151000
C         -15.112000      5.166000     -8.141000
N         -15.587000      5.703000    -10.484000
C         -14.120000      4.247000     -8.584000
C         -14.606000      4.903000    -10.885000
C         -13.806000      4.216000    -10.004000
C         -12.756000      3.373000    -10.490000
C         -11.582000      3.161000     -9.694000
C         -12.600000      2.863000    -11.802000
N         -10.464000      2.510000    -10.047000
N         -13.478000      2.845000    -12.800000
C         -11.480000      2.151000    -12.137000
C         -10.387000      2.026000    -11.274000
S         -12.821000      2.001000    -14.028000
N         -11.373000      1.721000    -13.416000
C          -9.056000      1.462000    -11.683000
S          -8.698000      0.356000    -13.037000
C          -7.858000      1.848000    -11.116000
C          -6.971000      0.300000    -12.694000
S          -7.560000      3.038000     -9.925000
C          -6.741000      1.131000    -11.663000
C          -6.061000     -0.734000    -13.068000
C          -5.818000      2.651000    -10.112000
C          -5.595000      1.672000    -11.066000
N          -6.315000     -1.359000    -14.200000
S          -4.670000     -1.243000    -12.103000
C          -5.357000     -2.310000    -14.450000
C          -4.302000     -2.332000    -13.450000
C         -16.673000      7.051000     -8.741000
H         -15.156000      5.445000     -7.093000
H         -13.533000      3.601000     -7.939000
H         -14.628000      5.006000    -11.969000
H         -11.481000      3.627000     -8.715000
H          -5.235000      3.172000     -9.364000
H          -4.619000      1.283000    -11.333000
H          -5.478000     -2.909000    -15.343000
H          -3.367000     -2.866000    -13.350000
H         -17.189000      6.693000     -7.841000
C         -17.696000      7.573000     -9.750000
H         -15.949000      7.856000     -8.561000
H         -17.153000      7.865000    -10.657000
H         -18.170000      8.493000     -9.388000
C         -18.873000      6.684000    -10.060000
H         -19.429000      7.126000    -10.897000
C         -19.821000      6.582000     -8.865000
H         -18.599000      5.675000    -10.394000
H         -20.347000      7.536000     -8.733000
H         -19.367000      6.174000     -7.954000
C         -20.974000      5.527000     -9.093000
H         -20.585000      4.540000     -9.372000
C         -22.156000      6.052000     -9.982000
H         -21.402000      5.398000     -8.091000
H         -23.141000      5.640000     -9.728000
H         -21.931000      5.715000    -11.001000
H         -22.377000      7.126000     -9.979000
$end

--------------------------------------------------------------

             Standard Nuclear Orientation (Angstroms)
    I     Atom           X                Y                Z
 ----------------------------------------------------------------
    1      C      11.5045253767     0.3486150434    -0.8824316276
    2      C      11.0873094639     1.6781776010    -0.8091493819
    3      N      10.7131564131    -0.6955170480    -0.6770993623
    4      C       9.7357935512     1.8422211746    -0.3949991151
    5      C       9.3911629864    -0.5117531727    -0.4578683929
    6      C       8.8417799831     0.7701944948    -0.2880994517
    7      C       7.3605902418     0.9320563474     0.0940205438
    8      C       6.7998233910    -0.1274154001     0.8585865352
    9      C       6.5596970641     2.0919138704     0.0045239286
   10      N       5.4620254075    -0.1599565282     1.1555050936
   11      N       6.9496242671     3.2258288109    -0.6737169462
   12      C       5.1656751257     2.0499967992     0.4376333772
   13      C       4.6325204602     0.8454745289     0.9046646428
   14      S       5.4899822240     4.0533808658    -0.8669440210
   15      N       4.5222317367     3.1821972044     0.0579494985
   16      C       3.1524857210     0.7644606271     1.1625307294
   17      S       2.0314262353     2.0981050983     1.1091261060
   18      C       2.5056242048    -0.3368076080     1.6182767697
   19      C       0.6872196801     1.0941060709     1.7488601834
   20      S       3.0832312146    -1.9582129000     1.9258901979
   21      C       1.1065833326    -0.1619437939     1.9252202242
   22      C      -0.5758499147     1.5679625332     2.0586685947
   23      C       1.3543636354    -2.4875140901     2.2946559010
   24      C       0.4997295014    -1.4363196805     2.1764323404
   25      N      -1.5773843087     0.8242993561     2.4701001646
   26      S      -0.9829121202     3.2696423417     1.8639067138
   27      C      -2.6786503014     1.6032137987     2.8358480348
   28      C      -2.3801264309     2.9520279378     2.8815089250
   29      C      12.9505759202    -0.1235139581    -1.3055581236
   30      H      11.7825939541     2.5117501792    -0.7822006420
   31      H       9.4339578560     2.8778208650    -0.2716844993
   32      H       8.8041656756    -1.4288309806    -0.4661419249
   33      H       7.4373941283    -0.9670479443     1.1289746742
   34      H       1.1389789063    -3.5229920618     2.5255277022
   35      H      -0.5089443645    -1.5601407555     2.5541920175
   36      H      -3.6670337132     1.1866549399     2.9823743073
   37      H      -3.0603933472     3.7656134488     3.0974546100
   38      H      13.1726668351    -1.0523463406    -0.7659100617
   39      C      14.0512287508     0.8825890278    -0.8628176486
   40      H      13.0168598481    -0.2067630105    -2.3976707717
   41      H      13.8207712679     1.2156067741     0.1563042917
   42      H      14.0211561622     1.7633003626    -1.5173496830
   43      C      15.4783713344     0.4068693035    -1.0285095009
   44      H      15.4811390978    -0.6258106708    -0.6583873452
   45      C      16.4834185319     1.3316462565    -0.1719736184
   46      H      15.8170849590     0.4158115010    -2.0717976287
   47      H      17.1717753242     0.6837087858     0.3846797393
   48      H      15.8984221141     1.6788097559     0.6892526561
   49      C      17.0864484107     2.5230889332    -0.9452292769
   50      H      17.8020056669     3.0549649138    -0.3069098001
   51      C      16.0415097228     3.6687446956    -1.2618141987
   52      H      17.5344327582     2.3050461965    -1.9224965839
   53      H      15.6023103853     3.4546836952    -2.2450190756
   54      H      16.5266591940     4.6508724980    -1.3212866318
   55      H      15.2657595627     3.6882929871    -0.4873017370
   56      C      -1.6682326293    -4.6685059166     0.5964793868
   57      C      -1.9097266788    -3.7451106313     1.6250647120
   58      N      -2.3458810394    -4.7146861790    -0.5824985670
   59      C      -2.8763384549    -2.7400758871     1.3414437724
   60      C      -3.3019057184    -3.8207321554    -0.8061612970
   61      C      -3.6578528140    -2.8717509908     0.1216675743
   62      C      -4.7024327679    -1.9365662262    -0.1675160630
   63      C      -5.4925600303    -1.3937014222     0.8991763547
   64      C      -5.2422014604    -1.6152819957    -1.4368490381
   65      N      -6.5771556375    -0.6120300156     0.7944090844
   66      N      -4.7700333360    -1.9119649185    -2.6436002576
   67      C      -6.3151110558    -0.7712356041    -1.5369474344
   68      C      -7.0170351310    -0.3172934894    -0.4161075042
   69      S      -5.7066651475    -1.1619853849    -3.7446091353
   70      N      -6.8074108712    -0.5314835184    -2.7748286198
   71      C      -8.3295942548     0.4101217064    -0.4867734746
   72      S      -9.0005560014     1.3405195943    -1.8538455667
   73      C      -9.2930887280     0.3413577528     0.4994511037
   74      C     -10.4810105567     1.7629152674    -0.9976036588
   75      S      -9.2989259530    -0.5760624101     1.9422578029
   76      C     -10.4362384876     1.1570059587     0.2012672148
   77      C     -11.3336380958     2.8753025282    -1.2673310429
   78      C     -10.9378199882     0.0887177818     2.2445749178
   79      C     -11.3594846459     0.9328720294     1.2307265452
   80      N     -11.4158002131     3.2612180033    -2.5246629929
   81      S     -12.2313849552     3.7722300208    -0.0365757263
   82      C     -12.2799323501     4.3208971592    -2.6472221063
   83      C     -12.9112495000     4.6890247869    -1.3904684686
   84      C      -0.8916477381    -5.9528902984     0.9623655254
   85      H      -1.5381926247    -3.8623788480     2.6381252294
   86      H      -3.1210417035    -1.9061788975     1.9915561711
   87      H      -3.6702381441    -4.0919953511    -1.7945420449
   88      H      -5.3022164709    -1.6767419505     1.9333211167
   89      H     -11.2825872828    -0.1954229819     3.2300867336
   90      H     -12.3134699411     1.4474909518     1.2144347916
   91      H     -12.4059009426     4.7427037734    -3.6357068528
   92      H     -13.6823004353     5.3935815058    -1.1103590525
   93      H      -0.0563329165    -5.5605608948     1.5562904263
   94      C      -0.3530123429    -6.8020854005    -0.1890829491
   95      H      -1.5987895136    -6.5747061178     1.5261887211
   96      H      -1.2079782264    -7.1264800767    -0.7945277709
   97      H       0.1035582987    -7.7260750217     0.1849577294
   98      C       0.7403588476    -6.2014108467    -1.0349431742
   99      H       0.9139423158    -6.8611810306    -1.8949670599
  100      C       2.0493159320    -6.0909768440    -0.2529146056
  101      H       0.4901751374    -5.2231706730    -1.4652538453
  102      H       2.4703058191    -7.0929523028    -0.1011625211
  103      H       1.9922368530    -5.4714161480     0.6500735021
  104      C       3.1686949656    -5.3120810630    -1.0496140103
  105      H       2.8280209802    -4.3257361548    -1.3878387251
  106      C       3.8965333783    -6.1746869816    -2.1401332784
  107      H       3.9302011137    -5.1103266766    -0.2859173728
  108      H       4.9501628764    -5.9151543530    -2.3044278172
  109      H       3.3736596584    -5.9636002152    -3.0806652822
  110      H       3.9746913740    -7.2574388118    -1.9856476737
 ----------------------------------------------------------------

    9   -5663.4635696346      8.52E-06 Convergence criterion met
 Total energy in the final basis set = -5663.4635696346

                    Orbital Energies (a.u.)
 --------------------------------------------------------------

 Alpha MOs
 -- Occupied --
-88.992 -88.990 -88.930 -88.925 -88.919 -88.918 -88.908 -88.907
-14.393 -14.388 -14.386 -14.376 -14.355 -14.349 -14.344 -14.342
-14.326 -14.324 -10.270 -10.267 -10.266 -10.264 -10.262 -10.259
-10.253 -10.249 -10.248 -10.243 -10.240 -10.239 -10.239 -10.238
-10.236 -10.236 -10.232 -10.231 -10.231 -10.230 -10.230 -10.230
-10.229 -10.229 -10.229 -10.226 -10.225 -10.221 -10.220 -10.218
-10.214 -10.211 -10.211 -10.206 -10.203 -10.203 -10.202 -10.198
-10.185 -10.185 -10.184 -10.183 -10.180 -10.175 -10.175 -10.173
-10.171 -10.168 -10.167 -10.164  -8.047  -8.046  -7.991  -7.984
 -7.981  -7.976  -7.969  -7.966  -6.013  -6.011  -6.007  -6.005
 -6.005  -6.004  -5.955  -5.951  -5.949  -5.948  -5.945  -5.945
 -5.942  -5.941  -5.940  -5.938  -5.937  -5.933  -5.933  -5.930
 -5.929  -5.927  -5.925  -5.922  -1.052  -1.033  -0.970  -0.968
 -0.965  -0.959  -0.941  -0.939  -0.915  -0.914  -0.909  -0.903
 -0.842  -0.841  -0.838  -0.828  -0.813  -0.812  -0.806  -0.803
 -0.802  -0.800  -0.797  -0.795  -0.783  -0.783  -0.769  -0.762
 -0.749  -0.744  -0.742  -0.740  -0.726  -0.716  -0.707  -0.705
 -0.694  -0.690  -0.677  -0.675  -0.658  -0.653  -0.652  -0.648
 -0.637  -0.637  -0.629  -0.624  -0.615  -0.611  -0.605  -0.598
 -0.596  -0.594  -0.584  -0.582  -0.577  -0.576  -0.568  -0.551
 -0.548  -0.544  -0.543  -0.540  -0.524  -0.524  -0.517  -0.510
 -0.505  -0.502  -0.501  -0.500  -0.486  -0.485  -0.480  -0.478
 -0.474  -0.472  -0.469  -0.467  -0.466  -0.463  -0.457  -0.452
 -0.448  -0.446  -0.442  -0.439  -0.438  -0.436  -0.435  -0.435
 -0.431  -0.428  -0.428  -0.427  -0.426  -0.416  -0.413  -0.412
 -0.411  -0.409  -0.406  -0.405  -0.402  -0.396  -0.396  -0.396
 -0.394  -0.393  -0.389  -0.387  -0.386  -0.384  -0.383  -0.382
 -0.380  -0.377  -0.374  -0.373  -0.362  -0.358  -0.356  -0.354
 -0.353  -0.352  -0.350  -0.349  -0.344  -0.343  -0.342  -0.338
 -0.336  -0.334  -0.333  -0.333  -0.331  -0.325  -0.322  -0.315
 -0.313  -0.309  -0.306  -0.303  -0.302  -0.299  -0.298  -0.295
 -0.293  -0.293  -0.290  -0.288  -0.286  -0.286  -0.282  -0.281
 -0.278  -0.275  -0.273  -0.268  -0.251  -0.251  -0.248  -0.248
 -0.245  -0.239  -0.237  -0.228  -0.199  -0.193

          Ground-State Mulliken Net Atomic Charges

     Atom                 Charge (a.u.)
  ----------------------------------------
      1 C                     0.253064
      2 C                    -0.110892
      3 N                    -0.476036
      4 C                    -0.096592
      5 C                     0.049696
      6 C                     0.058974
      7 C                     0.041348
      8 C                     0.063107
      9 C                     0.184394
     10 N                    -0.541630
     11 N                    -0.560663
     12 C                     0.200682
     13 C                     0.359787
     14 S                     0.610319
     15 N                    -0.545182
     16 C                    -0.214102
     17 S                     0.332693
     18 C                    -0.127352
     19 C                    -0.244260
     20 S                     0.258327
     21 C                     0.170851
     22 C                     0.088527
     23 C                    -0.303167
     24 C                    -0.037163
     25 N                    -0.465498
     26 S                     0.244173
     27 C                     0.108000
     28 C                    -0.294181
     29 C                    -0.212232
     30 H                     0.105048
     31 H                     0.118558
     32 H                     0.110929
     33 H                     0.126653
     34 H                     0.130403
     35 H                     0.120544
     36 H                     0.125912
     37 H                     0.130186
     38 H                     0.116822
     39 C                    -0.188249
     40 H                     0.116634
     41 H                     0.093812
     42 H                     0.096370
     43 C                    -0.183938
     44 H                     0.088231
     45 C                    -0.184372
     46 H                     0.093701
     47 H                     0.091915
     48 H                     0.090925
     49 C                    -0.176978
     50 H                     0.097447
     51 C                    -0.324051
     52 H                     0.099081
     53 H                     0.103146
     54 H                     0.101000
     55 H                     0.104442
     56 C                     0.253906
     57 C                    -0.118982
     58 N                    -0.474213
     59 C                    -0.081038
     60 C                     0.081925
     61 C                     0.036818
     62 C                     0.066262
     63 C                     0.030000
     64 C                     0.264183
     65 N                    -0.512509
     66 N                    -0.560632
     67 C                     0.164135
     68 C                     0.275912
     69 S                     0.611916
     70 N                    -0.531211
     71 C                    -0.217910
     72 S                     0.338922
     73 C                    -0.110433
     74 C                    -0.193102
     75 S                     0.272973
     76 C                     0.131468
     77 C                     0.054415
     78 C                    -0.310455
     79 C                    -0.081686
     80 N                    -0.420237
     81 S                     0.273789
     82 C                     0.118535
     83 C                    -0.321590
     84 C                    -0.228714
     85 H                     0.101002
     86 H                     0.117411
     87 H                     0.128147
     88 H                     0.106592
     89 H                     0.134573
     90 H                     0.104672
     91 H                     0.119570
     92 H                     0.136423
     93 H                     0.089877
     94 C                    -0.162810
     95 H                     0.118918
     96 H                     0.105093
     97 H                     0.080210
     98 C                    -0.170464
     99 H                     0.091595
    100 C                    -0.172044
    101 H                     0.100897
    102 H                     0.091002
    103 H                     0.085180
    104 C                    -0.189439
    105 H                     0.101943
    106 C                    -0.326211
    107 H                     0.090840
    108 H                     0.099692
    109 H                     0.106258
    110 H                     0.099465
  ----------------------------------------
  Sum of atomic charges =     0.000000

                    Cartesian Multipole Moments
 -----------------------------------------------------------------
    Charge (ESU x 10^10)
                 0.0000
    Dipole Moment (Debye)
         X      -1.4127      Y       3.4591      Z       1.7521
       Tot       4.1269
    Quadrupole Moments (Debye-Ang)
        XX    -397.3541     XY      -1.8784     YY    -429.9490
        XZ     -19.8323     YZ      -9.8120     ZZ    -439.6383

 Total job time:  83.65s(wall), 986.16s(cpu)
        *  Thank you very much for using Q-Chem.  Have a nice day.  *
