 Q-Chem 4.4, Q-Chem, Inc., Pleasanton, CA (2016)
 Q-Chem 4.4.2 for Intel X86 Linux

User input:
--------------------------------------------------------------
$comment
SP
$end

$rem
MEM_STATIC 5000
MEM_TOTAL 20000
JOBTYPE SP
EXCHANGE B3LYP
BASIS 6-31g(d,p)
$end

$molecule
0 1
C          -0.289000    -18.867000     -6.135000
C           0.213000    -18.196000     -4.960000
N          -1.017000    -20.026000     -5.984000
C          -0.030000    -18.645000     -3.711000
C          -1.214000    -20.508000     -4.727000
C          -0.844000    -19.812000     -3.568000
C          -1.356000    -20.308000     -2.258000
C          -2.766000    -20.425000     -2.037000
C          -0.562000    -20.584000     -1.112000
N          -3.295000    -20.571000     -0.813000
N           0.744000    -20.313000     -1.116000
C          -1.091000    -20.780000      0.173000
C          -2.536000    -20.863000      0.273000
S           1.302000    -20.674000      0.375000
N          -0.144000    -20.871000      1.077000
C          -3.332000    -21.050000      1.526000
S          -5.015000    -20.426000      1.644000
C          -3.023000    -21.762000      2.612000
C          -5.217000    -21.129000      3.246000
S          -1.638000    -22.756000      2.977000
C          -4.086000    -21.786000      3.555000
C          -6.474000    -21.107000      4.000000
C          -2.469000    -23.194000      4.506000
C          -3.670000    -22.566000      4.642000
N          -7.523000    -21.099000      3.245000
S          -6.641000    -21.334000      5.761000
C          -8.556000    -21.221000      4.048000
C          -8.349000    -21.332000      5.398000
C          -0.158000    -18.269000     -7.498000
H           0.846000    -17.328000     -5.113000
H           0.295000    -18.016000     -2.888000
H          -1.590000    -21.527000     -4.645000
H          -3.435000    -20.054000     -2.812000
H          -2.033000    -23.984000      5.103000
H          -4.308000    -22.780000      5.492000
H          -9.508000    -21.296000      3.538000
H          -9.003000    -21.354000      6.259000
H           0.646000    -17.523000     -7.485000
C          -1.491000    -17.623000     -8.069000
H           0.234000    -19.047000     -8.164000
H          -1.687000    -16.709000     -7.495000
H          -2.317000    -18.320000     -7.879000
C          -1.288000    -17.264000     -9.559000
H          -0.295000    -16.797000     -9.564000
C          -2.406000    -16.382000    -10.140000
H          -1.212000    -18.187000    -10.147000
H          -2.223000    -15.366000     -9.770000
H          -3.410000    -16.739000     -9.883000
C          -2.554000    -16.418000    -11.665000
H          -2.889000    -17.435000    -11.904000
C          -1.332000    -16.118000    -12.505000
H          -3.371000    -15.755000    -11.974000
H          -1.108000    -15.075000    -12.250000
H          -1.288000    -16.263000    -13.592000
H          -0.581000    -16.792000    -12.077000
C          10.750000    -15.784000    -10.305000
C          11.325000    -16.931000     -9.711000
N           9.511000    -15.371000    -10.071000
C          10.460000    -17.662000     -8.910000
C           8.662000    -16.220000     -9.408000
C           9.100000    -17.352000     -8.722000
C           8.234000    -18.203000     -7.768000
C           8.529000    -19.600000     -7.583000
C           7.143000    -17.691000     -6.978000
N           7.814000    -20.416000     -6.790000
N           6.817000    -16.392000     -6.969000
C           6.465000    -18.519000     -6.170000
C           6.727000    -19.913000     -6.138000
S           5.405000    -16.410000     -5.958000
N           5.499000    -17.947000     -5.452000
C           6.043000    -20.960000     -5.386000
S           6.900000    -22.306000     -4.644000
C           4.722000    -21.132000     -5.221000
C           5.370000    -22.870000     -3.837000
S           3.341000    -20.215000     -5.886000
C           4.365000    -22.186000     -4.377000
C           5.313000    -23.737000     -2.738000
C           2.232000    -21.367000     -5.068000
C           2.939000    -22.282000     -4.337000
N           4.213000    -23.830000     -1.944000
S           6.768000    -24.253000     -2.045000
C           4.569000    -24.669000     -0.937000
C           5.870000    -25.078000     -0.881000
C          11.613000    -14.866000    -11.196000
H          12.370000    -17.209000     -9.812000
H          10.806000    -18.569000     -8.423000
H           7.633000    -15.886000     -9.284000
H           9.369000    -20.089000     -8.072000
H           1.157000    -21.306000     -5.175000
H           2.469000    -23.061000     -3.747000
H           3.790000    -24.853000     -0.209000
H           6.422000    -25.711000     -0.199000
H          12.343000    -15.448000    -11.772000
C          12.254000    -13.779000    -10.364000
H          11.008000    -14.526000    -12.047000
H          12.890000    -14.249000     -9.603000
H          11.459000    -13.131000     -9.975000
C          13.195000    -12.859000    -11.210000
H          12.715000    -12.393000    -12.079000
C          14.504000    -13.437000    -11.660000
H          13.417000    -12.038000    -10.518000
H          14.279000    -14.185000    -12.430000
H          14.973000    -13.897000    -10.781000
C          15.432000    -12.351000    -12.290000
H          14.945000    -11.826000    -13.121000
C          16.753000    -13.015000    -12.764000
H          15.687000    -11.614000    -11.520000
H          17.249000    -13.465000    -11.895000
H          17.393000    -12.266000    -13.246000
H          16.493000    -13.803000    -13.482000
$end

--------------------------------------------------------------

             Standard Nuclear Orientation (Angstroms)
    I     Atom           X                Y                Z
 ----------------------------------------------------------------
    1      C      -0.5798494639     3.4810187649    -1.0933011478
    2      C      -0.7459677561     2.8205313354     0.1791103691
    3      N      -1.5327606653     3.2999504946    -2.0706652170
    4      C      -1.8192415842     2.0530056472     0.4613135015
    5      C      -2.5862663308     2.4811815097    -1.8043474328
    6      C      -2.8328419253     1.9291831221    -0.5397940507
    7      C      -4.1550346648     1.2812647885    -0.3025848763
    8      C      -5.3628948557     2.0281872277    -0.4864615444
    9      C      -4.3523615760    -0.0259754115     0.2190597821
   10      N      -6.5470058860     1.6139146448    -0.0114959720
   11      N      -3.3117606310    -0.7502219416     0.6334383976
   12      C      -5.5879771081    -0.4995076407     0.6865033451
   13      C      -6.7376562379     0.3556527274     0.4587915896
   14      S      -3.9191211364    -2.1387210129     1.2400268459
   15      N      -5.4719428340    -1.6791780844     1.2497259400
   16      C      -8.1478385484     0.0807035500     0.8763832574
   17      S      -9.2867125222     1.4339576141     1.2041919051
   18      C      -8.7873389387    -1.0895333888     0.9347421284
   19      C     -10.6179572734     0.3140309357     1.4779959361
   20      S      -8.2686757742    -2.7026379281     0.5244151039
   21      C     -10.1579759478    -0.9325369477     1.2760635412
   22      C     -12.0023856770     0.7284348745     1.7243216774
   23      C      -9.9446019513    -3.2349426622     0.8824222533
   24      C     -10.7382091425    -2.2076826394     1.2949819117
   25      N     -12.3084798072     1.8500588256     1.1597367894
   26      S     -13.2728871960    -0.2677453222     2.4819428928
   27      C     -13.5981696783     2.0175601701     1.3479529840
   28      C     -14.3076518306     1.0642820820     2.0302769263
   29      C       0.5226387500     4.4607506976    -1.3324226198
   30      H       0.0569556165     2.9207700488     0.9021513486
   31      H      -1.9108356425     1.6869476545     1.4792560708
   32      H      -3.1982112647     2.1765021431    -2.6523774331
   33      H      -5.2753225435     3.0909032384    -0.7073524017
   34      H     -10.2112399268    -4.2518027380     0.6264832443
   35      H     -11.7913924055    -2.3728722880     1.4921047019
   36      H     -14.0067596868     2.8957585794     0.8643718027
   37      H     -15.3258203962     0.9988430771     2.3888456209
   38      H       1.3153534678     4.2939588204    -0.5929059899
   39      C       0.0720031052     5.9828617773    -1.3136775751
   40      H       1.0044292428     4.1914114261    -2.2799659053
   41      H      -0.1707496171     6.2424432496    -0.2759027560
   42      H      -0.8482194491     6.0739825447    -1.9045011159
   43      C       1.2390428540     6.8680060333    -1.8083773536
   44      H       2.1042745346     6.4481070343    -1.2799627725
   45      C       1.0188737081     8.3712598157    -1.5692903129
   46      H       1.3994631868     6.6909777157    -2.8790665202
   47      H       1.2094885926     8.5467068754    -0.5036781437
   48      H       0.0210988044     8.7109015036    -1.8702932451
   49      C       1.8385483601     9.3113178856    -2.4599357474
   50      H       1.4549871332     9.1616953455    -3.4768570230
   51      C       3.3399790733     9.1285153330    -2.4941854234
   52      H       1.6116576855    10.3538183239    -2.2064550620
   53      H       3.6391396182     9.3552232148    -1.4635756501
   54      H       4.0011054207     9.6407015848    -3.2048943625
   55      H       3.4419016597     8.0569327028    -2.7010270367
   56      C      10.9832243257     0.0865454165     0.7845128001
   57      C      10.7212533563    -1.1976735213     0.2542082357
   58      N      10.0412856821     0.9767387016     1.0686844152
   59      C       9.3866662746    -1.4424382394    -0.0341570781
   60      C       8.7705155371     0.7406438798     0.6098015613
   61      C       8.3551265480    -0.4976883215     0.1221035534
   62      C       6.8921286821    -0.8877403105    -0.1808315721
   63      C       6.6058178018    -1.8808116552    -1.1831760160
   64      C       5.7446158288    -0.3596207411     0.5125867518
   65      N       5.3629852134    -2.2622088665    -1.5235189672
   66      N       5.8613055037     0.4957461335     1.5365442848
   67      C       4.5164693458    -0.7798408488     0.1761298042
   68      C       4.3008621819    -1.6633437901    -0.9128330527
   69      S       4.1932706125     0.8474881558     1.8683968900
   70      N       3.5221475056    -0.2637106272     0.8977929337
   71      C       3.0416548472    -2.1568368548    -1.4609484450
   72      S       2.8408753888    -3.8093856691    -2.0314736640
   73      C       1.9185130583    -1.4643367277    -1.7076184592
   74      C       1.0590951389    -3.5360565896    -2.2780408059
   75      S       1.5659918988     0.2771188922    -1.5250365429
   76      C       0.8417140621    -2.2288326157    -2.1623172155
   77      C       0.0985985670    -4.5493111344    -2.3942327281
   78      C      -0.0763686345    -0.0255432398    -2.1862146676
   79      C      -0.2606536353    -1.3588103765    -2.4309038184
   80      N      -1.2268369649    -4.3181427359    -2.1970860259
   81      S       0.6003208431    -6.1560985353    -2.2209150832
   82      C      -1.8185056880    -5.5379090139    -2.2795745055
   83      C      -1.0082822611    -6.6306057712    -2.3916896024
   84      C      12.4239247467     0.4763257707     1.1767213828
   85      H      11.4760119365    -1.9678967700     0.1253453912
   86      H       9.0887659465    -2.3960327415    -0.4601229453
   87      H       8.0290169753     1.5151678117     0.7997109129
   88      H       7.3894664756    -2.4018098087    -1.7293423644
   89      H      -0.7857460552     0.7739798570    -2.3545639852
   90      H      -1.1876299798    -1.7688467108    -2.8161648485
   91      H      -2.8921299362    -5.5263887100    -2.1458611690
   92      H      -1.1979437909    -7.6938950873    -2.4546287346
   93      H      13.1541095687     0.0307309242     0.4899351289
   94      C      12.6874870346     0.1244062111     2.6228754355
   95      H      12.5967999515     1.5243134008     0.8980421934
   96      H      12.5565860637    -0.9578453663     2.7498142361
   97      H      12.0429329928     0.7511568812     3.2513527101
   98      C      14.1585289770     0.4383602752     3.0530677756
   99      H      14.4697701147     1.4766893567     2.8865785189
  100      C      15.2389838560    -0.4581197631     2.5248577839
  101      H      14.1252468176     0.3095318888     4.1414080462
  102      H      15.3384430261    -0.2470338217     1.4531397245
  103      H      14.9151540592    -1.4918557788     2.7001464388
  104      C      16.6137973133    -0.1749673463     3.2083727191
  105      H      16.9129506951     0.8758566162     3.1102337667
  106      C      17.6938720266    -1.1085540818     2.5980716286
  107      H      16.5333783962    -0.4113010110     4.2755058863
  108      H      17.3988876582    -2.1494829057     2.7800837325
  109      H      18.6712806551    -0.8864516920     3.0433444677
  110      H      17.7243628491    -0.9236024983     1.5169004018
 ----------------------------------------------------------------

    9   -5663.4868864792      9.94E-06 Convergence criterion met
 Total energy in the final basis set = -5663.4868864792

                    Orbital Energies (a.u.)
 --------------------------------------------------------------

 Alpha MOs
 -- Occupied --
-88.988 -88.987 -88.933 -88.922 -88.918 -88.914 -88.907 -88.903
-14.392 -14.388 -14.378 -14.374 -14.350 -14.348 -14.343 -14.342
-14.337 -14.327 -10.271 -10.268 -10.263 -10.260 -10.257 -10.255
-10.255 -10.250 -10.242 -10.239 -10.238 -10.236 -10.234 -10.234
-10.233 -10.232 -10.230 -10.229 -10.228 -10.227 -10.225 -10.225
-10.225 -10.224 -10.223 -10.223 -10.221 -10.221 -10.219 -10.216
-10.212 -10.208 -10.202 -10.201 -10.200 -10.200 -10.198 -10.192
-10.190 -10.189 -10.182 -10.181 -10.180 -10.180 -10.179 -10.176
-10.175 -10.173 -10.171 -10.168  -8.044  -8.043  -7.993  -7.986
 -7.977  -7.973  -7.968  -7.963  -6.009  -6.008  -6.004  -6.003
 -6.002  -6.001  -5.957  -5.954  -5.951  -5.949  -5.946  -5.943
 -5.942  -5.938  -5.937  -5.933  -5.933  -5.932  -5.929  -5.929
 -5.928  -5.924  -5.924  -5.919  -1.044  -1.041  -0.996  -0.974
 -0.956  -0.952  -0.936  -0.933  -0.915  -0.914  -0.906  -0.904
 -0.842  -0.838  -0.829  -0.825  -0.819  -0.817  -0.814  -0.809
 -0.807  -0.807  -0.800  -0.800  -0.790  -0.782  -0.770  -0.766
 -0.749  -0.749  -0.743  -0.737  -0.720  -0.720  -0.713  -0.709
 -0.693  -0.692  -0.676  -0.675  -0.660  -0.655  -0.645  -0.641
 -0.635  -0.634  -0.625  -0.622  -0.616  -0.608  -0.607  -0.597
 -0.594  -0.593  -0.587  -0.584  -0.581  -0.575  -0.563  -0.558
 -0.556  -0.546  -0.544  -0.542  -0.530  -0.524  -0.522  -0.513
 -0.510  -0.507  -0.498  -0.498  -0.493  -0.482  -0.476  -0.475
 -0.473  -0.473  -0.470  -0.467  -0.466  -0.463  -0.448  -0.447
 -0.446  -0.445  -0.442  -0.441  -0.440  -0.439  -0.437  -0.434
 -0.428  -0.427  -0.426  -0.424  -0.419  -0.416  -0.415  -0.414
 -0.413  -0.410  -0.408  -0.408  -0.400  -0.400  -0.397  -0.397
 -0.395  -0.393  -0.391  -0.386  -0.385  -0.383  -0.380  -0.380
 -0.379  -0.374  -0.372  -0.372  -0.364  -0.363  -0.358  -0.354
 -0.352  -0.352  -0.350  -0.346  -0.344  -0.341  -0.340  -0.338
 -0.336  -0.334  -0.334  -0.333  -0.330  -0.328  -0.326  -0.317
 -0.313  -0.311  -0.310  -0.310  -0.307  -0.305  -0.304  -0.302
 -0.301  -0.300  -0.298  -0.296  -0.295  -0.288  -0.287  -0.283
 -0.279  -0.271  -0.266  -0.263  -0.257  -0.253  -0.249  -0.245
 -0.243  -0.240  -0.234  -0.230  -0.195  -0.191

          Ground-State Mulliken Net Atomic Charges

     Atom                 Charge (a.u.)
  ----------------------------------------
      1 C                     0.247618
      2 C                    -0.106487
      3 N                    -0.476155
      4 C                    -0.031000
      5 C                     0.034322
      6 C                     0.037443
      7 C                    -0.019399
      8 C                     0.068411
      9 C                     0.206368
     10 N                    -0.487021
     11 N                    -0.526450
     12 C                     0.252002
     13 C                     0.270260
     14 S                     0.608483
     15 N                    -0.562568
     16 C                    -0.240207
     17 S                     0.329895
     18 C                    -0.094957
     19 C                    -0.223957
     20 S                     0.265431
     21 C                     0.159807
     22 C                     0.036810
     23 C                    -0.302605
     24 C                    -0.081590
     25 N                    -0.384978
     26 S                     0.272812
     27 C                     0.134528
     28 C                    -0.314249
     29 C                    -0.233523
     30 H                     0.089100
     31 H                     0.110191
     32 H                     0.112761
     33 H                     0.117760
     34 H                     0.129822
     35 H                     0.100911
     36 H                     0.105848
     37 H                     0.138399
     38 H                     0.095966
     39 C                    -0.177927
     40 H                     0.124183
     41 H                     0.096177
     42 H                     0.118873
     43 C                    -0.176669
     44 H                     0.097792
     45 C                    -0.170904
     46 H                     0.098855
     47 H                     0.090537
     48 H                     0.101586
     49 C                    -0.191017
     50 H                     0.089758
     51 C                    -0.310774
     52 H                     0.089402
     53 H                     0.097867
     54 H                     0.103477
     55 H                     0.102819
     56 C                     0.249287
     57 C                    -0.103128
     58 N                    -0.470570
     59 C                    -0.088052
     60 C                     0.057009
     61 C                     0.066605
     62 C                     0.014729
     63 C                     0.064159
     64 C                     0.276030
     65 N                    -0.505114
     66 N                    -0.578323
     67 C                     0.225474
     68 C                     0.257479
     69 S                     0.578763
     70 N                    -0.527138
     71 C                    -0.221170
     72 S                     0.295415
     73 C                    -0.105584
     74 C                    -0.260684
     75 S                     0.234423
     76 C                     0.200844
     77 C                     0.055547
     78 C                    -0.290718
     79 C                    -0.050332
     80 N                    -0.438652
     81 S                     0.291380
     82 C                     0.120910
     83 C                    -0.310905
     84 C                    -0.216779
     85 H                     0.097817
     86 H                     0.086044
     87 H                     0.116538
     88 H                     0.114266
     89 H                     0.142709
     90 H                     0.116113
     91 H                     0.104028
     92 H                     0.135814
     93 H                     0.091363
     94 C                    -0.169834
     95 H                     0.110269
     96 H                     0.091531
     97 H                     0.116828
     98 C                    -0.183660
     99 H                     0.088557
    100 C                    -0.161421
    101 H                     0.084717
    102 H                     0.090144
    103 H                     0.085490
    104 C                    -0.180436
    105 H                     0.094244
    106 C                    -0.313238
    107 H                     0.094621
    108 H                     0.102959
    109 H                     0.098241
    110 H                     0.101554
  ----------------------------------------
  Sum of atomic charges =     0.000000

                    Cartesian Multipole Moments
 -----------------------------------------------------------------
    Charge (ESU x 10^10)
                 0.0000
    Dipole Moment (Debye)
         X      -1.8683      Y      -3.2794      Z       1.9514
       Tot       4.2489
    Quadrupole Moments (Debye-Ang)
        XX    -381.2618     XY      11.4226     YY    -418.5378
        XZ     -11.8052     YZ       4.0440     ZZ    -453.4779

 Total job time:  82.87s(wall), 979.03s(cpu)
        *  Thank you very much for using Q-Chem.  Have a nice day.  *
