 Q-Chem 4.4, Q-Chem, Inc., Pleasanton, CA (2016)
 Q-Chem 4.4.2 for Intel X86 Linux

User input:
--------------------------------------------------------------
$comment
SP
$end

$rem
MEM_STATIC 5000
MEM_TOTAL 20000
JOBTYPE SP
EXCHANGE B3LYP
BASIS 6-31g(d,p)
$end

$molecule
0 1
C          15.355000    -24.362000    -11.115000
C          15.660000    -23.364000    -10.193000
N          14.691000    -25.501000    -10.778000
C          15.254000    -23.529000     -8.862000
C          14.321000    -25.612000     -9.535000
C          14.514000    -24.659000     -8.482000
C          13.968000    -24.882000     -7.112000
C          12.738000    -25.498000     -7.009000
C          14.486000    -24.483000     -5.864000
N          12.069000    -25.749000     -5.831000
N          15.627000    -23.780000     -5.744000
C          13.820000    -24.691000     -4.623000
C          12.659000    -25.474000     -4.636000
S          15.917000    -23.599000     -4.119000
N          14.486000    -24.217000     -3.555000
C          11.897000    -25.778000     -3.414000
S          12.412000    -25.320000     -1.796000
C          10.640000    -26.408000     -3.379000
C          10.933000    -26.047000     -1.079000
S           9.535000    -26.902000     -4.671000
C          10.137000    -26.539000     -2.068000
C          10.493000    -25.982000      0.336000
C           8.345000    -27.074000     -3.378000
C           8.800000    -26.928000     -2.103000
N           9.652000    -26.879000      0.827000
S          11.200000    -24.982000      1.556000
C           9.671000    -26.970000      2.177000
C          10.307000    -25.913000      2.769000
C          15.820000    -24.316000    -12.515000
H          16.079000    -22.419000    -10.525000
H          15.393000    -22.664000     -8.220000
H          13.766000    -26.523000     -9.313000
H          12.254000    -25.827000     -7.927000
H           7.362000    -27.383000     -3.709000
H           8.124000    -26.830000     -1.262000
H           9.053000    -27.700000      2.683000
H          10.207000    -25.605000      3.801000
H          16.647000    -23.602000    -12.622000
C          14.675000    -24.036000    -13.516000
H          16.206000    -25.329000    -12.677000
H          14.283000    -23.021000    -13.369000
H          13.801000    -24.663000    -13.301000
C          15.037000    -24.177000    -15.006000
H          15.898000    -23.525000    -15.201000
C          13.924000    -23.945000    -15.972000
H          15.479000    -25.166000    -15.174000
H          14.339000    -24.121000    -16.972000
H          13.633000    -22.889000    -15.899000
C          12.629000    -24.896000    -15.780000
H          12.078000    -24.788000    -14.837000
C          12.993000    -26.324000    -15.840000
H          11.959000    -24.650000    -16.613000
H          12.114000    -26.973000    -15.936000
H          13.566000    -26.642000    -14.960000
H          13.572000    -26.581000    -16.736000
C          10.750000    -15.784000    -10.305000
C          11.325000    -16.931000     -9.711000
N           9.511000    -15.371000    -10.071000
C          10.460000    -17.662000     -8.910000
C           8.662000    -16.220000     -9.408000
C           9.100000    -17.352000     -8.722000
C           8.234000    -18.203000     -7.768000
C           8.529000    -19.600000     -7.583000
C           7.143000    -17.691000     -6.978000
N           7.814000    -20.416000     -6.790000
N           6.817000    -16.392000     -6.969000
C           6.465000    -18.519000     -6.170000
C           6.727000    -19.913000     -6.138000
S           5.405000    -16.410000     -5.958000
N           5.499000    -17.947000     -5.452000
C           6.043000    -20.960000     -5.386000
S           6.900000    -22.306000     -4.644000
C           4.722000    -21.132000     -5.221000
C           5.370000    -22.870000     -3.837000
S           3.341000    -20.215000     -5.886000
C           4.365000    -22.186000     -4.377000
C           5.313000    -23.737000     -2.738000
C           2.232000    -21.367000     -5.068000
C           2.939000    -22.282000     -4.337000
N           4.213000    -23.830000     -1.944000
S           6.768000    -24.253000     -2.045000
C           4.569000    -24.669000     -0.937000
C           5.870000    -25.078000     -0.881000
C          11.613000    -14.866000    -11.196000
H          12.370000    -17.209000     -9.812000
H          10.806000    -18.569000     -8.423000
H           7.633000    -15.886000     -9.284000
H           9.369000    -20.089000     -8.072000
H           1.157000    -21.306000     -5.175000
H           2.469000    -23.061000     -3.747000
H           3.790000    -24.853000     -0.209000
H           6.422000    -25.711000     -0.199000
H          12.343000    -15.448000    -11.772000
C          12.254000    -13.779000    -10.364000
H          11.008000    -14.526000    -12.047000
H          12.890000    -14.249000     -9.603000
H          11.459000    -13.131000     -9.975000
C          13.195000    -12.859000    -11.210000
H          12.715000    -12.393000    -12.079000
C          14.504000    -13.437000    -11.660000
H          13.417000    -12.038000    -10.518000
H          14.279000    -14.185000    -12.430000
H          14.973000    -13.897000    -10.781000
C          15.432000    -12.351000    -12.290000
H          14.945000    -11.826000    -13.121000
C          16.753000    -13.015000    -12.764000
H          15.687000    -11.614000    -11.520000
H          17.249000    -13.465000    -11.895000
H          17.393000    -12.266000    -13.246000
H          16.493000    -13.803000    -13.482000
$end

--------------------------------------------------------------

             Standard Nuclear Orientation (Angstroms)
    I     Atom           X                Y                Z
 ----------------------------------------------------------------
    1      C      -4.4513315868     5.7184909355    -1.1540914682
    2      C      -4.3572124487     5.1475110850     0.1124931512
    3      N      -3.3626052975     5.9970476323    -1.9214683208
    4      C      -3.0886814762     4.8304992946     0.6164323305
    5      C      -2.2032401562     5.6777064734    -1.4233080120
    6      C      -1.9425788967     5.0440038575    -0.1644419737
    7      C      -0.5617177764     4.6630511254     0.2513014354
    8      C       0.2933242577     4.2004054647    -0.7273849866
    9      C       0.0087864689     4.6241047027     1.5389493229
   10      N       1.5857822326     3.7714203094    -0.5181718905
   11      N      -0.6839625406     4.9393091309     2.6485596051
   12      C       1.3271633203     4.1608062440     1.8112322934
   13      C       2.1509750707     3.8753312921     0.7153229670
   14      S       0.3752116097     4.8484427617     3.9242474283
   15      N       1.6643712828     4.1947224262     3.1127684944
   16      C       3.5394202621     3.4119657846     0.8697779984
   17      S       4.3680447468     3.2907379273     2.4162573128
   18      C       4.3589914518     2.9469586571    -0.1743701886
   19      C       5.8491777937     2.6619447993     1.6156805836
   20      S       4.0234112401     2.6372847923    -1.8848709980
   21      C       5.6312713136     2.5392911519     0.2772957926
   22      C       7.0790098563     2.1525411452     2.2699519457
   23      C       5.5610210313     1.7694701781    -1.8711989284
   24      C       6.3044579180     1.8577979925    -0.7338925524
   25      N       8.2310389818     2.1208791855     1.6181870998
   26      S       7.2519324747     1.8355037581     3.9604649043
   27      C       9.3168645574     2.0540295603     2.4229578417
   28      C       9.0006287868     1.7135608647     3.7099252090
   29      C      -5.7352247336     6.1673183993    -1.7272522618
   30      H      -5.2515021045     4.8278012468     0.6386505715
   31      H      -3.0817804060     4.2628145729     1.5423893662
   32      H      -1.3603157850     5.8884791608    -2.0807906191
   33      H      -0.0695768055     4.1801192448    -1.7535975804
   34      H       5.8309144770     1.3167605351    -2.8164727019
   35      H       7.1612592454     1.2180481810    -0.5593283405
   36      H      10.3119347247     2.0643792289     1.9980010832
   37      H       9.6823191561     1.3193653661     4.4514076089
   38      H      -6.4914254741     6.2748621987    -0.9387291034
   39      C      -6.2225832888     5.2624454579    -2.8827229877
   40      H      -5.4924133875     7.1612449911    -2.1203954676
   41      H      -6.4757826238     4.2644445784    -2.5014326240
   42      H      -5.4090673097     5.0496590837    -3.5870976826
   43      C      -7.4426855327     5.7767371775    -3.6687761294
   44      H      -8.2484783820     5.9608145849    -2.9467904011
   45      C      -7.8906048751     4.9242144724    -4.8082155969
   46      H      -7.2377677811     6.7946666826    -4.0202547742
   47      H      -8.7329409532     5.4485187266    -5.2759505438
   48      H      -8.2599795359     3.9777976186    -4.3922787042
   49      C      -6.7722205088     4.6375867490    -5.9419487918
   50      H      -5.8884298509     4.0693160426    -5.6249369981
   51      C      -6.2315995134     5.8922202903    -6.4977397744
   52      H      -7.2907943367     4.0774964582    -6.7297844670
   53      H      -5.6462051733     5.7241271912    -7.4099437958
   54      H      -5.6035725953     6.4279070992    -5.7749155684
   55      H      -7.0139257238     6.5786193519    -6.8454868504
   56      C      -6.4402354133    -3.5923431099     1.0360774632
   57      C      -5.6143653914    -2.4510470094     1.1562935939
   58      N      -6.0020100755    -4.7875631025     0.6621072471
   59      C      -4.2970976287    -2.6476699006     0.7685667829
   60      C      -4.7379366304    -4.8764301193     0.1373292190
   61      C      -3.7967842592    -3.8530908881     0.2416030507
   62      C      -2.2996499373    -3.9836202856    -0.1131135951
   63      C      -1.5588054226    -2.8257261558    -0.5412369290
   64      C      -1.5361743021    -5.2007691661    -0.0027570951
   65      N      -0.2610798568    -2.8555830596    -0.8890111680
   66      N      -2.0652272721    -6.3335689664     0.4774778134
   67      C      -0.2346543228    -5.1974997884    -0.3255063086
   68      C       0.3984450712    -4.0489882755    -0.8668107164
   69      S      -0.7408470130    -7.4365038368     0.2636072898
   70      N       0.3955318648    -6.3592949619    -0.1553259816
   71      C       1.7698489259    -3.8924703627    -1.3404377958
   72      S       2.7052832277    -2.4278399565    -1.0637621006
   73      C       2.4820650342    -4.7339849140    -2.1062389938
   74      C       4.1927408367    -3.2154234702    -1.7547230766
   75      S       2.0210412315    -6.2839319004    -2.8647878669
   76      C       3.8053177445    -4.3489545267    -2.3330756434
   77      C       5.5060234230    -2.7727490350    -1.5496201929
   78      C       3.6567814871    -6.3651480397    -3.6022610902
   79      C       4.4215754266    -5.3047533025    -3.1996592629
   80      N       6.5827700991    -3.5779899996    -1.7528161189
   81      S       5.7575765497    -1.4505057108    -0.5239869173
   82      C       7.6551154387    -2.8500898891    -1.3466844879
   83      C       7.4164077504    -1.6441822542    -0.7535374440
   84      C      -7.9213631391    -3.5170221925     1.4626468235
   85      H      -5.9449178644    -1.5018897300     1.5678097195
   86      H      -3.5897318073    -1.8246060370     0.8102017591
   87      H      -4.4239660189    -5.8553694292    -0.2216600322
   88      H      -2.0060957026    -1.8356545794    -0.6006648603
   89      H       3.9473687948    -7.1634285131    -4.2724120452
   90      H       5.4509406469    -5.1637556814    -3.5100910814
   91      H       8.6060452993    -3.3561769820    -1.4481204516
   92      H       8.0585311319    -0.8844240794    -0.3281410657
   93      H      -8.3475677779    -2.5318653975     1.2363379746
   94      C      -8.0685894340    -3.9001796722     2.9173594288
   95      H      -8.5260176919    -4.0938612642     0.7502736368
   96      H      -7.4794676575    -3.2016692102     3.5252538825
   97      H      -7.7963998860    -4.9575579664     3.0227823527
   98      C      -9.5451860206    -3.7753401947     3.4190312590
   99      H     -10.2747240255    -4.3482442277     2.8339908601
  100      C     -10.0935750703    -2.3929977029     3.6151528683
  101      H      -9.5084323693    -4.2586286193     4.4025303529
  102      H     -10.2267002305    -1.9540933832     2.6188247648
  103      H      -9.3551862714    -1.8331615772     4.2030027590
  104      C     -11.4819624086    -2.4152815456     4.3288503035
  105      H     -12.2093178546    -3.0380567413     3.7936306189
  106      C     -12.0098682094    -0.9622972250     4.4729510657
  107      H     -11.3545474747    -2.8251555930     5.3372464062
  108      H     -11.2944637895    -0.3890456465     5.0756584108
  109      H     -13.0042404986    -0.9726418692     4.9355975169
  110      H     -12.0692183966    -0.5262159128     3.4677751386
 ----------------------------------------------------------------

   10   -5663.5174780355      4.14E-06 Convergence criterion met
 Total energy in the final basis set = -5663.5174780355

                    Orbital Energies (a.u.)
 --------------------------------------------------------------

 Alpha MOs
 -- Occupied --
-88.989 -88.987 -88.930 -88.930 -88.919 -88.918 -88.914 -88.906
-14.391 -14.390 -14.386 -14.383 -14.352 -14.349 -14.342 -14.340
-14.331 -14.327 -10.276 -10.265 -10.262 -10.258 -10.258 -10.257
-10.255 -10.254 -10.247 -10.244 -10.241 -10.239 -10.236 -10.235
-10.234 -10.234 -10.234 -10.233 -10.229 -10.228 -10.227 -10.227
-10.226 -10.224 -10.223 -10.223 -10.222 -10.220 -10.219 -10.215
-10.211 -10.208 -10.206 -10.201 -10.200 -10.198 -10.195 -10.194
-10.184 -10.182 -10.181 -10.180 -10.179 -10.179 -10.178 -10.176
-10.173 -10.173 -10.172 -10.164  -8.044  -8.043  -7.991  -7.988
 -7.983  -7.977  -7.973  -7.966  -6.009  -6.008  -6.004  -6.003
 -6.002  -6.000  -5.955  -5.953  -5.951  -5.949  -5.948  -5.947
 -5.945  -5.943  -5.942  -5.940  -5.938  -5.937  -5.934  -5.933
 -5.931  -5.929  -5.927  -5.921  -1.040  -1.031  -0.976  -0.973
 -0.955  -0.952  -0.949  -0.936  -0.915  -0.914  -0.906  -0.904
 -0.846  -0.840  -0.833  -0.824  -0.817  -0.813  -0.810  -0.807
 -0.806  -0.803  -0.800  -0.800  -0.790  -0.782  -0.774  -0.766
 -0.753  -0.749  -0.745  -0.738  -0.725  -0.722  -0.717  -0.710
 -0.699  -0.693  -0.677  -0.676  -0.655  -0.655  -0.648  -0.645
 -0.636  -0.634  -0.626  -0.625  -0.612  -0.608  -0.601  -0.595
 -0.594  -0.593  -0.590  -0.586  -0.582  -0.581  -0.563  -0.555
 -0.555  -0.552  -0.542  -0.540  -0.528  -0.523  -0.513  -0.513
 -0.507  -0.506  -0.502  -0.498  -0.495  -0.482  -0.480  -0.474
 -0.473  -0.472  -0.470  -0.466  -0.463  -0.463  -0.456  -0.450
 -0.448  -0.446  -0.444  -0.441  -0.438  -0.436  -0.433  -0.429
 -0.427  -0.426  -0.424  -0.424  -0.421  -0.418  -0.415  -0.414
 -0.411  -0.410  -0.408  -0.406  -0.403  -0.400  -0.399  -0.398
 -0.396  -0.392  -0.390  -0.388  -0.385  -0.384  -0.383  -0.381
 -0.380  -0.374  -0.373  -0.371  -0.370  -0.364  -0.361  -0.359
 -0.354  -0.353  -0.353  -0.350  -0.346  -0.342  -0.340  -0.338
 -0.338  -0.336  -0.336  -0.334  -0.333  -0.330  -0.326  -0.318
 -0.313  -0.313  -0.311  -0.310  -0.307  -0.305  -0.303  -0.300
 -0.299  -0.296  -0.294  -0.294  -0.289  -0.288  -0.281  -0.278
 -0.278  -0.274  -0.272  -0.265  -0.260  -0.254  -0.250  -0.248
 -0.245  -0.244  -0.233  -0.231  -0.198  -0.191

          Ground-State Mulliken Net Atomic Charges

     Atom                 Charge (a.u.)
  ----------------------------------------
      1 C                     0.260712
      2 C                    -0.120978
      3 N                    -0.466434
      4 C                    -0.064981
      5 C                     0.076620
      6 C                     0.032736
      7 C                     0.086055
      8 C                     0.044755
      9 C                     0.193760
     10 N                    -0.530272
     11 N                    -0.564609
     12 C                     0.236880
     13 C                     0.324411
     14 S                     0.594823
     15 N                    -0.577272
     16 C                    -0.244454
     17 S                     0.337367
     18 C                    -0.109647
     19 C                    -0.220774
     20 S                     0.296981
     21 C                     0.164508
     22 C                     0.027131
     23 C                    -0.298940
     24 C                    -0.047302
     25 N                    -0.423595
     26 S                     0.264504
     27 C                     0.125304
     28 C                    -0.311126
     29 C                    -0.222555
     30 H                     0.092561
     31 H                     0.107510
     32 H                     0.094802
     33 H                     0.117347
     34 H                     0.129422
     35 H                     0.105336
     36 H                     0.118961
     37 H                     0.136519
     38 H                     0.092615
     39 C                    -0.175462
     40 H                     0.122098
     41 H                     0.085084
     42 H                     0.115246
     43 C                    -0.175240
     44 H                     0.082721
     45 C                    -0.177144
     46 H                     0.092608
     47 H                     0.091924
     48 H                     0.086990
     49 C                    -0.177515
     50 H                     0.099176
     51 C                    -0.312790
     52 H                     0.091726
     53 H                     0.096365
     54 H                     0.112980
     55 H                     0.095295
     56 C                     0.249265
     57 C                    -0.103520
     58 N                    -0.470850
     59 C                    -0.087085
     60 C                     0.057211
     61 C                     0.066284
     62 C                     0.014746
     63 C                     0.063741
     64 C                     0.276071
     65 N                    -0.504139
     66 N                    -0.578726
     67 C                     0.224903
     68 C                     0.257287
     69 S                     0.585689
     70 N                    -0.528498
     71 C                    -0.218758
     72 S                     0.305618
     73 C                    -0.106076
     74 C                    -0.262180
     75 S                     0.240310
     76 C                     0.201913
     77 C                     0.047701
     78 C                    -0.300713
     79 C                    -0.048854
     80 N                    -0.438484
     81 S                     0.308937
     82 C                     0.119444
     83 C                    -0.324006
     84 C                    -0.216078
     85 H                     0.095970
     86 H                     0.085498
     87 H                     0.117448
     88 H                     0.114181
     89 H                     0.134766
     90 H                     0.119112
     91 H                     0.104910
     92 H                     0.143324
     93 H                     0.090525
     94 C                    -0.169302
     95 H                     0.110310
     96 H                     0.091092
     97 H                     0.117090
     98 C                    -0.184148
     99 H                     0.088745
    100 C                    -0.161340
    101 H                     0.084911
    102 H                     0.089959
    103 H                     0.085048
    104 C                    -0.180205
    105 H                     0.094447
    106 C                    -0.313341
    107 H                     0.094738
    108 H                     0.102618
    109 H                     0.098404
    110 H                     0.101341
  ----------------------------------------
  Sum of atomic charges =     0.000000

                    Cartesian Multipole Moments
 -----------------------------------------------------------------
    Charge (ESU x 10^10)
                 0.0000
    Dipole Moment (Debye)
         X       1.4211      Y       0.4251      Z       2.6273
       Tot       3.0171
    Quadrupole Moments (Debye-Ang)
        XX    -398.6365     XY     -16.0569     YY    -458.7623
        XZ       5.8928     YZ      15.1464     ZZ    -432.6841

 Total job time:  89.27s(wall), 1044.31s(cpu)
        *  Thank you very much for using Q-Chem.  Have a nice day.  *
