 Q-Chem 4.4, Q-Chem, Inc., Pleasanton, CA (2016)
 Q-Chem 4.4.2 for Intel X86 Linux

User input:
--------------------------------------------------------------
$comment
SP
$end

$rem
MEM_STATIC 5000
MEM_TOTAL 20000
JOBTYPE SP
EXCHANGE B3LYP
BASIS 6-31g(d,p)
$end

$molecule
0 1
C          -3.255000    -13.671000    -14.522000
C          -2.389000    -12.852000    -15.312000
N          -3.274000    -13.520000    -13.220000
C          -1.560000    -11.933000    -14.715000
C          -2.513000    -12.588000    -12.650000
C          -1.601000    -11.747000    -13.296000
C          -0.789000    -10.824000    -12.434000
C          -1.434000    -10.226000    -11.368000
C           0.512000    -10.394000    -12.621000
N          -0.891000     -9.351000    -10.469000
N           1.191000    -10.646000    -13.719000
C           1.113000     -9.537000    -11.706000
C           0.405000     -9.198000    -10.547000
S           2.634000     -9.908000    -13.549000
N           2.377000     -9.215000    -12.043000
C           0.919000     -8.392000     -9.445000
S          -0.120000     -7.165000     -8.609000
C           2.188000     -8.533000     -8.855000
C           1.196000     -6.903000     -7.370000
S           3.411000     -9.771000     -9.008000
C           2.275000     -7.698000     -7.705000
C           1.096000     -6.207000     -6.153000
C           4.065000     -9.230000     -7.401000
C           3.338000     -8.161000     -6.875000
N           2.133000     -5.443000     -5.823000
S          -0.192000     -6.415000     -4.914000
C           1.982000     -4.985000     -4.531000
C           0.804000     -5.321000     -3.919000
C          -4.238000    -14.663000    -15.023000
H          -2.411000    -12.975000    -16.391000
H          -0.880000    -11.371000    -15.349000
H          -2.567000    -12.656000    -11.564000
H          -2.457000    -10.521000    -11.138000
H           4.945000     -9.673000     -6.954000
H           3.569000     -7.637000     -5.955000
H           2.712000     -4.360000     -4.033000
H           0.443000     -4.929000     -2.977000
H          -4.124000    -14.890000    -16.090000
C          -5.703000    -14.074000    -14.990000
H          -4.206000    -15.601000    -14.454000
H          -5.666000    -13.163000    -15.601000
H          -6.149000    -13.766000    -14.036000
C          -6.590000    -15.164000    -15.582000
H          -6.006000    -16.025000    -15.930000
C          -7.469000    -14.666000    -16.730000
H          -7.244000    -15.542000    -14.787000
H          -7.857000    -13.693000    -16.406000
H          -8.327000    -15.341000    -16.836000
C          -6.609000    -14.609000    -18.045000
H          -5.838000    -13.832000    -17.967000
C          -7.618000    -14.329000    -19.191000
H          -6.124000    -15.575000    -18.231000
H          -8.324000    -15.162000    -19.294000
H          -7.053000    -14.278000    -20.131000
H          -8.187000    -13.393000    -19.138000
C           6.144000    -13.420000    -18.268000
C           6.697000    -12.594000    -17.231000
N           5.206000    -14.367000    -18.025000
C           6.166000    -12.711000    -15.945000
C           4.833000    -14.543000    -16.767000
C           5.167000    -13.669000    -15.672000
C           4.682000    -13.815000    -14.307000
C           5.452000    -13.848000    -13.158000
C           3.277000    -14.076000    -13.978000
N           5.017000    -13.958000    -11.920000
N           2.299000    -13.952000    -14.913000
C           2.760000    -14.156000    -12.669000
C           3.712000    -14.036000    -11.638000
S           0.885000    -14.159000    -14.073000
N           1.443000    -14.088000    -12.599000
C           3.330000    -13.861000    -10.195000
S           1.823000    -14.357000     -9.427000
C           4.145000    -13.552000     -9.152000
C           2.341000    -13.972000     -7.838000
S           5.810000    -13.050000     -9.174000
C           3.577000    -13.560000     -7.900000
C           1.586000    -14.194000     -6.633000
C           5.738000    -12.821000     -7.400000
C           4.526000    -13.185000     -6.902000
N           0.278000    -14.281000     -6.746000
S           2.290000    -14.524000     -5.055000
C          -0.278000    -14.525000     -5.501000
C           0.637000    -14.644000     -4.509000
C           6.604000    -13.304000    -19.725000
H           7.337000    -11.755000    -17.490000
H           6.406000    -11.926000    -15.234000
H           4.235000    -15.434000    -16.587000
H           6.514000    -13.624000    -13.248000
H           6.571000    -12.369000     -6.877000
H           4.315000    -13.063000     -5.846000
H          -1.358000    -14.579000     -5.457000
H           0.390000    -14.870000     -3.480000
H           5.878000    -12.628000    -20.194000
C           6.616000    -14.630000    -20.432000
H           7.558000    -12.770000    -19.808000
H           5.616000    -15.081000    -20.477000
H           7.315000    -15.220000    -19.826000
C           7.081000    -14.403000    -21.919000
H           6.266000    -13.935000    -22.486000
C           7.493000    -15.768000    -22.440000
H           7.927000    -13.714000    -21.808000
H           6.803000    -16.516000    -22.030000
H           8.421000    -16.136000    -21.986000
C           7.815000    -15.851000    -23.915000
H           7.158000    -16.593000    -24.385000
C           9.358000    -15.986000    -24.192000
H           7.638000    -14.862000    -24.355000
H           9.697000    -17.029000    -24.188000
H           9.967000    -15.311000    -23.578000
H           9.516000    -15.770000    -25.255000
$end

--------------------------------------------------------------

             Standard Nuclear Orientation (Angstroms)
    I     Atom           X                Y                Z
 ----------------------------------------------------------------
    1      C       1.9174170287     5.4566239966    -0.4672767163
    2      C       2.4828308546     4.6688458271     0.5836893922
    3      N       0.6735619884     5.2529625521    -0.8274331473
    4      C       1.7430667338     3.6853262947     1.1949580523
    5      C      -0.0587292896     4.3396967392    -0.1931303495
    6      C       0.3757418401     3.4816615639     0.8224244128
    7      C      -0.6094885932     2.4716869616     1.3358338948
    8      C      -1.9190499193     2.8873095669     1.4851388948
    9      C      -0.3680493645     1.1886490290     1.7918939373
   10      N      -2.9680705075     2.1397119360     1.9426633071
   11      N       0.8465903279     0.7178720290     1.9740159672
   12      C      -1.4144542713     0.3828032544     2.2260878555
   13      C      -2.7224610856     0.8654820815     2.1011665865
   14      S       0.6731031075    -0.7865419474     2.5760406943
   15      N      -1.0026664858    -0.8311790787     2.6403664028
   16      C      -3.9352829491     0.1189359607     2.4173437790
   17      S      -5.3428702847     0.9104976794     3.2395809334
   18      C      -4.1912493521    -1.2139499828     2.0482391025
   19      C      -6.3319710381    -0.6049237398     2.9930071683
   20      S      -3.3674814867    -2.2961568795     0.9518738638
   21      C      -5.5351279177    -1.5504462270     2.3769558169
   22      C      -7.7180010684    -0.7574944413     3.1694949474
   23      C      -4.9146731707    -3.2415330814     0.8281494513
   24      C      -5.9251144088    -2.6944823815     1.6204309897
   25      N      -8.1194749951    -1.8904024517     3.7380924554
   26      S      -8.9969800564     0.3253269043     2.5144837400
   27      C      -9.4933327241    -1.9864419310     3.6665357707
   28      C     -10.1344528748    -0.9004616586     3.1329293613
   29      C       2.5697606995     6.5817856057    -1.1812886829
   30      H       3.5060772392     4.8745920853     0.8845038094
   31      H       2.2299682436     3.0752607865     1.9505683986
   32      H      -1.0301365229     4.2224242840    -0.6722453237
   33      H      -2.2005301026     3.8794156878     1.1344989780
   34      H      -4.9967803097    -4.1451372399     0.2388991289
   35      H      -6.9171478461    -3.1112708725     1.7488600091
   36      H     -10.0502817554    -2.8337110156     4.0453125847
   37      H     -11.2029317996    -0.7281639078     3.1368373498
   38      H       3.6455745250     6.6598789560    -0.9824419039
   39      C       2.0557652607     7.9719007172    -0.6357397248
   40      H       2.4109219930     6.5311387070    -2.2661085559
   41      H       2.2753037751     7.9635598132     0.4395947673
   42      H       0.9927321460     8.2324038225    -0.7131653616
   43      C       2.8448916234     9.0249558812    -1.4062508574
   44      H       3.5896719296     8.5736282727    -2.0733990308
   45      C       3.5437872942    10.0367017621    -0.4971501403
   46      H       2.1470920157     9.5691028543    -2.0540199359
   47      H       2.8138319095    10.2903917493     0.2807030121
   48      H       3.7402275844    10.9503649230    -1.0713067746
   49      C       4.8719459991     9.3989585188     0.0518052407
   50      H       4.6470165203     8.5674874208     0.7317438723
   51      C       5.6277028961    10.5552081782     0.7601238397
   52      H       5.4911925220     9.0269755296    -0.7735064577
   53      H       5.9080652602    11.3311296863     0.0374366611
   54      H       6.5643378101    10.1474792645     1.1624895574
   55      H       5.1255977793    11.0336733960     1.6096104418
   56      C       6.9127954414    -3.2033104346     1.1102048720
   57      C       5.7585340263    -3.9792624720     1.4694165385
   58      N       6.8798984662    -2.2462693803     0.1517205428
   59      C       4.5382550337    -3.6558250719     0.8729658460
   60      C       5.7355724951    -2.0691533766    -0.4900091457
   61      C       4.4712902564    -2.6427726745    -0.1065925027
   62      C       3.1983386133    -2.3751149038    -0.7605951267
   63      C       2.3041488510    -3.3159208795    -1.2396554415
   64      C       2.7456201913    -1.0258669634    -1.1140962238
   65      N       1.1420775389    -3.0797040229    -1.8121594696
   66      N       3.3737687729     0.0778737124    -0.6311149818
   67      C       1.4930271233    -0.7227976885    -1.6853489004
   68      C       0.6811934346    -1.8354480018    -1.9796282616
   69      S       2.4345733954     1.3491169212    -1.1308126372
   70      N       1.1678253518     0.5562145007    -1.6365162516
   71      C      -0.7649178511    -1.7066764305    -2.3681871782
   72      S      -1.5466492942    -0.3098415620    -3.1061826397
   73      C      -1.6832793935    -2.7011766666    -2.4912170849
   74      C      -3.0431863209    -1.1063932184    -3.3657060227
   75      S      -1.5536932139    -4.3745909770    -2.0355802034
   76      C      -2.9202655565    -2.3443087524    -2.9736095853
   77      C      -4.1904824948    -0.5413310830    -4.0258198557
   78      C      -3.2654787099    -4.6085272599    -2.5043714483
   79      C      -3.7985232151    -3.4684820056    -3.0197396405
   80      N      -4.2894187615     0.7704735322    -4.0499500615
   81      S      -5.3748294941    -1.4635308492    -4.9431364730
   82      C      -5.4291481085     1.1350049534    -4.7476827170
   83      C      -6.1222854828     0.0836322978    -5.2473086964
   84      C       8.2761869293    -3.4291605984     1.7720661522
   85      H       5.7931892267    -4.6321619167     2.3372433254
   86      H       3.6396963039    -4.0679368459     1.3225235116
   87      H       5.7998169982    -1.4407522722    -1.3759378651
   88      H       2.4920391191    -4.3635248241    -1.0086939243
   89      H      -3.7616461370    -5.5477269184    -2.2959394792
   90      H      -4.8422352296    -3.4412125479    -3.3103641533
   91      H      -5.6423692642     2.1945495990    -4.8038421581
   92      H      -7.0170442937     0.1777233368    -5.8485403878
   93      H       8.3182753200    -2.6916006928     2.5833903494
   94      C       9.4196965452    -3.2235711223     0.8189723867
   95      H       8.3217920048    -4.3957360819     2.2876367214
   96      H       9.4510053091    -2.1974850177     0.4296228430
   97      H       9.2158825616    -3.9634133404     0.0347336779
   98      C      10.7695183320    -3.4581113867     1.5947913142
   99      H      10.9629661519    -2.6009823366     2.2525494250
  100      C      11.8302734548    -3.6730866712     0.5303693130
  101      H      10.5611177754    -4.3618659448     2.1800732178
  102      H      11.6151635060    -3.0024961528    -0.3109035718
  103      H      11.7222014997    -4.6308711681     0.0072122524
  104      C      13.2601304426    -3.7448038181     1.0167474019
  105      H      13.8487004247    -2.9647886343     0.5184756997
  106      C      13.8392103199    -5.2074555685     0.9832906737
  107      H      13.2565330284    -3.5763413887     2.1005635618
  108      H      14.2885170460    -5.4605619340     0.0153822929
  109      H      13.1363202830    -5.9583388263     1.3648950883
  110      H      14.7526914489    -5.2077144264     1.5892124177
 ----------------------------------------------------------------

    9   -5663.4965248041      7.01E-06 Convergence criterion met
 Total energy in the final basis set = -5663.4965248041

                    Orbital Energies (a.u.)
 --------------------------------------------------------------

 Alpha MOs
 -- Occupied --
-88.987 -88.981 -88.931 -88.925 -88.921 -88.915 -88.908 -88.904
-14.389 -14.380 -14.378 -14.373 -14.347 -14.344 -14.342 -14.340
-14.331 -14.321 -10.267 -10.265 -10.263 -10.255 -10.253 -10.251
-10.249 -10.249 -10.238 -10.234 -10.234 -10.233 -10.232 -10.232
-10.230 -10.229 -10.228 -10.227 -10.227 -10.227 -10.227 -10.226
-10.226 -10.225 -10.222 -10.221 -10.220 -10.219 -10.219 -10.216
-10.212 -10.211 -10.206 -10.202 -10.200 -10.200 -10.196 -10.196
-10.187 -10.185 -10.183 -10.181 -10.176 -10.176 -10.174 -10.172
-10.172 -10.172 -10.170 -10.167  -8.042  -8.037  -7.992  -7.985
 -7.978  -7.975  -7.968  -7.964  -6.008  -6.002  -6.002  -6.000
 -5.996  -5.995  -5.956  -5.952  -5.948  -5.948  -5.946  -5.943
 -5.942  -5.939  -5.939  -5.935  -5.935  -5.932  -5.931  -5.929
 -5.928  -5.924  -5.923  -5.920  -1.042  -1.039  -0.970  -0.969
 -0.963  -0.961  -0.950  -0.942  -0.926  -0.908  -0.901  -0.896
 -0.847  -0.840  -0.831  -0.826  -0.811  -0.811  -0.807  -0.807
 -0.805  -0.799  -0.798  -0.793  -0.784  -0.784  -0.771  -0.768
 -0.748  -0.747  -0.739  -0.738  -0.724  -0.715  -0.711  -0.710
 -0.695  -0.691  -0.675  -0.675  -0.657  -0.650  -0.647  -0.640
 -0.636  -0.633  -0.625  -0.624  -0.611  -0.610  -0.601  -0.596
 -0.593  -0.587  -0.584  -0.581  -0.575  -0.572  -0.569  -0.569
 -0.552  -0.545  -0.541  -0.541  -0.523  -0.519  -0.518  -0.513
 -0.511  -0.505  -0.500  -0.497  -0.488  -0.485  -0.480  -0.476
 -0.474  -0.472  -0.469  -0.467  -0.464  -0.461  -0.453  -0.448
 -0.447  -0.444  -0.440  -0.438  -0.434  -0.433  -0.433  -0.428
 -0.425  -0.422  -0.421  -0.419  -0.419  -0.417  -0.415  -0.414
 -0.412  -0.408  -0.405  -0.405  -0.399  -0.398  -0.396  -0.395
 -0.393  -0.390  -0.389  -0.386  -0.384  -0.384  -0.381  -0.380
 -0.377  -0.374  -0.372  -0.370  -0.366  -0.363  -0.361  -0.358
 -0.352  -0.350  -0.348  -0.346  -0.345  -0.345  -0.338  -0.338
 -0.338  -0.336  -0.334  -0.332  -0.330  -0.329  -0.323  -0.315
 -0.314  -0.312  -0.307  -0.303  -0.302  -0.301  -0.297  -0.294
 -0.292  -0.291  -0.290  -0.286  -0.286  -0.284  -0.282  -0.279
 -0.277  -0.272  -0.268  -0.266  -0.255  -0.254  -0.249  -0.248
 -0.242  -0.241  -0.232  -0.230  -0.198  -0.193

          Ground-State Mulliken Net Atomic Charges

     Atom                 Charge (a.u.)
  ----------------------------------------
      1 C                     0.271061
      2 C                    -0.129525
      3 N                    -0.471996
      4 C                    -0.073750
      5 C                     0.052045
      6 C                     0.032911
      7 C                     0.085373
      8 C                     0.036407
      9 C                     0.227037
     10 N                    -0.499097
     11 N                    -0.562248
     12 C                     0.253910
     13 C                     0.281059
     14 S                     0.594196
     15 N                    -0.557405
     16 C                    -0.228697
     17 S                     0.304738
     18 C                    -0.120078
     19 C                    -0.191089
     20 S                     0.281566
     21 C                     0.149763
     22 C                     0.005001
     23 C                    -0.307032
     24 C                    -0.052790
     25 N                    -0.405515
     26 S                     0.260642
     27 C                     0.118642
     28 C                    -0.295328
     29 C                    -0.230426
     30 H                     0.089145
     31 H                     0.117824
     32 H                     0.110786
     33 H                     0.113470
     34 H                     0.128312
     35 H                     0.111831
     36 H                     0.114178
     37 H                     0.128718
     38 H                     0.098851
     39 C                    -0.164988
     40 H                     0.124127
     41 H                     0.091997
     42 H                     0.113632
     43 C                    -0.188316
     44 H                     0.090653
     45 C                    -0.169367
     46 H                     0.087365
     47 H                     0.093681
     48 H                     0.087464
     49 C                    -0.173281
     50 H                     0.096478
     51 C                    -0.319611
     52 H                     0.097251
     53 H                     0.104969
     54 H                     0.091270
     55 H                     0.105559
     56 C                     0.256784
     57 C                    -0.123267
     58 N                    -0.467971
     59 C                    -0.089160
     60 C                     0.107588
     61 C                     0.035929
     62 C                     0.040154
     63 C                     0.056304
     64 C                     0.169274
     65 N                    -0.512392
     66 N                    -0.538610
     67 C                     0.213610
     68 C                     0.299573
     69 S                     0.622087
     70 N                    -0.543760
     71 C                    -0.231330
     72 S                     0.332049
     73 C                    -0.119522
     74 C                    -0.230810
     75 S                     0.260462
     76 C                     0.193780
     77 C                     0.054860
     78 C                    -0.321534
     79 C                    -0.072600
     80 N                    -0.423973
     81 S                     0.276981
     82 C                     0.127380
     83 C                    -0.306387
     84 C                    -0.233807
     85 H                     0.093108
     86 H                     0.102351
     87 H                     0.104978
     88 H                     0.100567
     89 H                     0.126317
     90 H                     0.112411
     91 H                     0.118574
     92 H                     0.128243
     93 H                     0.114723
     94 C                    -0.170589
     95 H                     0.096005
     96 H                     0.125284
     97 H                     0.098096
     98 C                    -0.177358
     99 H                     0.097447
    100 C                    -0.178020
    101 H                     0.087920
    102 H                     0.091974
    103 H                     0.095483
    104 C                    -0.180951
    105 H                     0.095137
    106 C                    -0.331089
    107 H                     0.097455
    108 H                     0.103338
    109 H                     0.108174
    110 H                     0.097358
  ----------------------------------------
  Sum of atomic charges =     0.000000

                    Cartesian Multipole Moments
 -----------------------------------------------------------------
    Charge (ESU x 10^10)
                 0.0000
    Dipole Moment (Debye)
         X      -1.5277      Y      -0.9108      Z      -0.5043
       Tot       1.8487
    Quadrupole Moments (Debye-Ang)
        XX    -394.4275     XY      12.6825     YY    -424.2439
        XZ      25.5527     YZ      -2.3199     ZZ    -445.1935

 Total job time:  88.30s(wall), 1041.81s(cpu)
        *  Thank you very much for using Q-Chem.  Have a nice day.  *
