 Q-Chem 4.4, Q-Chem, Inc., Pleasanton, CA (2016)
 Q-Chem 4.4.2 for Intel X86 Linux

User input:
--------------------------------------------------------------
$comment
SP
$end

$rem
MEM_STATIC 5000
MEM_TOTAL 20000
JOBTYPE SP
EXCHANGE B3LYP
BASIS 6-31g(d,p)
$end

$molecule
0 1
C         -22.081000     -3.069000      2.351000
C         -23.038000     -2.712000      3.357000
N         -21.801000     -4.333000      2.067000
C         -23.800000     -3.726000      3.955000
C         -22.485000     -5.297000      2.706000
C         -23.597000     -5.068000      3.598000
C         -24.414000     -6.124000      4.207000
C         -25.808000     -5.982000      4.547000
C         -23.824000     -7.346000      4.634000
N         -26.587000     -7.015000      4.972000
N         -22.483000     -7.619000      4.518000
C         -24.561000     -8.301000      5.216000
C         -25.943000     -8.213000      5.136000
S         -22.331000     -9.036000      5.275000
N         -23.888000     -9.350000      5.703000
C         -26.855000     -9.254000      5.506000
S         -28.467000     -9.021000      6.128000
C         -26.682000    -10.573000      5.136000
C         -28.839000    -10.699000      6.064000
S         -25.609000    -11.300000      3.889000
C         -27.859000    -11.316000      5.335000
C         -30.143000    -11.200000      6.130000
C         -26.715000    -12.677000      3.790000
C         -27.789000    -12.564000      4.598000
N         -30.339000    -12.451000      6.473000
S         -31.574000    -10.228000      5.888000
C         -31.703000    -12.719000      6.451000
C         -32.539000    -11.654000      6.225000
C         -21.217000     -1.982000      1.664000
H         -23.263000     -1.702000      3.688000
H         -24.492000     -3.429000      4.737000
H         -22.273000     -6.299000      2.336000
H         -26.317000     -5.058000      4.273000
H         -26.594000    -13.441000      3.034000
H         -28.511000    -13.370000      4.666000
H         -32.015000    -13.746000      6.593000
H         -33.614000    -11.756000      6.293000
H         -20.482000     -1.756000      2.446000
C         -22.036000     -0.765000      1.145000
H         -20.679000     -2.588000      0.925000
H         -22.562000     -0.265000      1.968000
H         -22.772000     -1.122000      0.414000
C         -21.083000      0.115000      0.533000
H         -20.364000      0.498000      1.268000
C         -21.797000      1.323000     -0.148000
H         -20.500000     -0.390000     -0.247000
H         -21.816000      2.096000      0.630000
H         -22.806000      1.051000     -0.483000
C         -21.024000      2.033000     -1.298000
H         -20.962000      1.492000     -2.250000
C         -19.697000      2.635000     -0.810000
H         -21.734000      2.848000     -1.491000
H         -19.807000      3.146000      0.154000
H         -19.370000      3.429000     -1.492000
H         -18.912000      1.870000     -0.767000
C         -23.770000     10.598000     -7.350000
C         -23.561000      9.255000     -7.764000
N         -23.999000     10.944000     -6.082000
C         -23.628000      8.132000     -6.876000
C         -24.180000      9.929000     -5.206000
C         -23.916000      8.545000     -5.493000
C         -24.149000      7.512000     -4.345000
C         -24.836000      7.908000     -3.215000
C         -23.708000      6.166000     -4.322000
N         -25.139000      7.045000     -2.214000
N         -22.889000      5.608000     -5.259000
C         -24.060000      5.258000     -3.281000
C         -24.785000      5.745000     -2.211000
S         -22.669000      4.075000     -4.858000
N         -23.454000      4.022000     -3.374000
C         -25.253000      4.967000     -1.057000
S         -24.947000      3.215000     -0.846000
C         -26.102000      5.322000     -0.074000
C         -25.661000      3.222000      0.766000
S         -27.000000      6.765000      0.120000
C         -26.232000      4.412000      0.962000
C         -25.637000      2.062000      1.605000
C         -27.304000      6.233000      1.824000
C         -26.917000      4.904000      2.056000
N         -25.418000      0.924000      1.039000
S         -26.071000      2.064000      3.304000
C         -25.432000     -0.097000      1.969000
C         -25.583000      0.405000      3.259000
C         -23.877000     11.720000     -8.413000
H         -23.239000      9.074000     -8.785000
H         -23.361000      7.148000     -7.251000
H         -24.303000     10.308000     -4.192000
H         -25.202000      8.931000     -3.142000
H         -27.912000      6.883000      2.439000
H         -27.248000      4.331000      2.915000
H         -25.317000     -1.127000      1.657000
H         -25.389000     -0.224000      4.117000
H         -23.948000     12.705000     -7.935000
C         -25.098000     11.459000     -9.249000
H         -22.979000     11.645000     -9.039000
H         -25.958000     11.572000     -8.577000
H         -25.069000     10.458000     -9.698000
C         -25.304000     12.474000    -10.370000
H         -26.207000     12.312000    -10.971000
C         -24.078000     12.511000    -11.373000
H         -25.402000     13.464000     -9.908000
H         -23.893000     11.644000    -12.020000
H         -23.114000     12.767000    -10.915000
C         -24.314000     13.741000    -12.310000
H         -25.144000     13.476000    -12.976000
C         -23.035000     13.848000    -13.144000
H         -24.636000     14.715000    -11.922000
H         -22.196000     13.975000    -12.447000
H         -23.043000     14.737000    -13.786000
H         -22.856000     12.915000    -13.693000
$end

--------------------------------------------------------------

             Standard Nuclear Orientation (Angstroms)
    I     Atom           X                Y                Z
 ----------------------------------------------------------------
    1      C      -3.0829966523    -3.3308664859     0.8536207708
    2      C      -3.4339875264    -2.2412145457     1.7166376046
    3      N      -3.9619878817    -3.8840066058     0.0301145920
    4      C      -4.7002275556    -1.6537646624     1.5825375556
    5      C      -5.1974190846    -3.3591158427    -0.0304859828
    6      C      -5.6167177913    -2.1536567912     0.6445740662
    7      C      -6.9312548685    -1.5201495479     0.4891171744
    8      C      -7.1715961817    -0.1030131062     0.6029607465
    9      C      -8.1066824950    -2.3082150199     0.3440802590
   10      N      -8.3654764725     0.4828091440     0.3096739547
   11      N      -8.1008270622    -3.6816159512     0.3453434940
   12      C      -9.3116090853    -1.7345188012     0.2303148828
   13      C      -9.3759569494    -0.3749072962    -0.0368627880
   14      S      -9.6703562780    -4.0544871114     0.3055045861
   15      N     -10.3619641276    -2.5634970507     0.2372680768
   16      C     -10.5651311340     0.3344935852    -0.4042047922
   17      S     -10.9049424602     2.0061963391    -0.0441281816
   18      C     -11.4593648963    -0.1325419686    -1.3469739950
   19      C     -12.3327523661     2.0234982162    -1.0028896314
   20      S     -11.2785804997    -1.4304249262    -2.5789171066
   21      C     -12.3426897884     0.8816642909    -1.7569761879
   22      C     -12.9592655545     3.1996607387    -1.4270310526
   23      C     -12.5304136145    -0.6388212722    -3.5461003920
   24      C     -12.9984408610     0.4990609229    -2.9935756354
   25      N     -14.2176881031     3.1656328403    -1.7961933358
   26      S     -12.2009143979     4.7729317598    -1.3982071483
   27      C     -14.6097848389     4.4402903948    -2.1890193388
   28      C     -13.7038744513     5.4532168470    -1.9953614652
   29      C      -1.6953896288    -4.0104183020     0.9667139957
   30      H      -2.7862802302    -1.7893537508     2.4626825633
   31      H      -4.9498817773    -0.8534342965     2.2722774159
   32      H      -5.8196684859    -3.7999074347    -0.8078896457
   33      H      -6.3166021619     0.5582797741     0.7429962863
   34      H     -12.7620627152    -0.9745941837    -4.5478330140
   35      H     -13.8068542638     1.0456759261    -3.4660413044
   36      H     -15.5895137108     4.5481906445    -2.6370437508
   37      H     -13.9656199731     6.4870399904    -2.1779867368
   38      H      -1.8186270818    -4.6167982184     1.8722198914
   39      C      -0.5058846416    -3.0075708371     0.9909182852
   40      H      -1.7485022173    -4.7195962567     0.1318207801
   41      H      -0.5844306726    -2.3246279189     1.8461518741
   42      H      -0.5197733251    -2.4225519575     0.0629818569
   43      C       0.6797865365    -3.8097183419     1.0797790642
   44      H       0.7112533436    -4.3725449745     2.0211137664
   45      C       1.9602301264    -2.9245913230     0.9806056121
   46      H       0.7390473946    -4.5457203062     0.2685434269
   47      H       2.2012474625    -2.6846871447     2.0234529781
   48      H       1.7749582640    -2.0230970393     0.3828829395
   49      C       3.2609566891    -3.6302542486     0.4965815994
   50      H       3.3119789023    -3.8795011199    -0.5702369095
   51      C       3.6854583008    -4.7623848667     1.4450306729
   52      H       3.9555447293    -2.7882319419     0.6154087406
   53      H       3.5966321496    -4.4713935425     2.4985727765
   54      H       4.7536908705    -4.9770041503     1.3213102613
   55      H       3.1212864095    -5.6798940642     1.2372183789
   56      C      13.2824405329     0.2838216645    -0.8362035723
   57      C      12.3957337963    -0.2268589797    -1.8219431135
   58      N      12.8800065053     0.6826887227     0.3716593848
   59      C      10.9765749492    -0.3155488958    -1.6422648859
   60      C      11.5431853550     0.7261365691     0.5750887260
   61      C      10.5626440568     0.1640193290    -0.3137779519
   62      C       9.0614763856     0.2771308069     0.1021347992
   63      C       8.7136301347     1.1215498599     1.1373374116
   64      C       7.9737221547    -0.4242431841    -0.4737048120
   65      N       7.4234214351     1.3252376571     1.5012766826
   66      N       8.1013512463    -1.4142902844    -1.4030118411
   67      C       6.6182904015    -0.1785533656    -0.1069756541
   68      C       6.3735158743     0.7164185037     0.9161591288
   69      S       6.6294144983    -1.9065876223    -1.7907431150
   70      N       5.7054112004    -1.0282344541    -0.6971236119
   71      C       5.0532393688     1.1110358434     1.4232795328
   72      S       3.5076137684     0.4746384199     0.7800837440
   73      C       4.7266981634     2.0929983898     2.2848103788
   74      C       2.5763761851     1.3065123972     2.0247408250
   75      S       5.7228803568     3.2779499331     3.0126839102
   76      C       3.4011668077     2.1212643280     2.6853895366
   77      C       1.1635932733     1.1174626534     2.1603934641
   78      C       4.3431657458     3.6081046324     4.1380467260
   79      C       3.1532558932     2.9802149591     3.7384180224
   80      N       0.5303696340     0.6259869937     1.1500269471
   81      S       0.2191311460     1.6823511388     3.5256235873
   82      C      -0.8179849455     0.5097601740     1.4256503393
   83      C      -1.0904167622     0.8659904949     2.7439014017
   84      C      14.7696758570     0.5275521280    -1.1954090177
   85      H      12.8199051220    -0.6624955221    -2.7214904938
   86      H      10.3792746630    -0.8067676163    -2.4052239522
   87      H      11.3153489214     1.0071893007     1.6027394067
   88      H       9.4889618899     1.6922031976     1.6462867583
   89      H       4.4891108642     4.3842120402     4.8774696860
   90      H       2.1779016012     3.2582542752     4.1220182620
   91      H      -1.5068313816     0.1627459402     0.6663475610
   92      H      -2.0438943696     0.6203512903     3.1910958040
   93      H      15.3394660900     0.8362884272    -0.3101006037
   94      C      14.8283040601     1.5965359506    -2.2497781754
   95      H      15.1514456825    -0.4157934816    -1.6055990482
   96      H      14.4594027953     2.5143311751    -1.7748921020
   97      H      14.2243795441     1.3279406933    -3.1258916194
   98      C      16.2429001953     1.9103427731    -2.7290954527
   99      H      16.3033381142     2.7086442238    -3.4787060527
  100      C      16.9591446633     0.6383927329    -3.3452049863
  101      H      16.8217540442     2.2451086786    -1.8596082416
  102      H      16.5920588754     0.2283326242    -4.2947426272
  103      H      17.0606767530    -0.2122305330    -2.6591092975
  104      C      18.4545100730     1.0403516389    -3.5662849028
  105      H      18.4717839713     1.7411410055    -4.4096572263
  106      C      19.1481253376    -0.2550835160    -3.9947608345
  107      H      19.0294083512     1.5842841737    -2.8069869591
  108      H      18.9996075804    -0.9900707949    -3.1925169965
  109      H      20.2316895295    -0.1202577852    -4.0960508359
  110      H      18.6733802263    -0.6645410626    -4.8952565851
 ----------------------------------------------------------------

   10   -5663.4765848870      3.82E-06 Convergence criterion met
 Total energy in the final basis set = -5663.4765848870

                    Orbital Energies (a.u.)
 --------------------------------------------------------------

 Alpha MOs
 -- Occupied --
-88.992 -88.991 -88.935 -88.925 -88.924 -88.914 -88.911 -88.910
-14.391 -14.388 -14.387 -14.386 -14.356 -14.347 -14.344 -14.339
-14.333 -14.329 -10.269 -10.262 -10.262 -10.262 -10.257 -10.256
-10.253 -10.249 -10.244 -10.239 -10.238 -10.235 -10.235 -10.234
-10.233 -10.233 -10.232 -10.232 -10.232 -10.231 -10.231 -10.231
-10.229 -10.228 -10.228 -10.227 -10.225 -10.225 -10.225 -10.223
-10.217 -10.212 -10.211 -10.206 -10.205 -10.201 -10.200 -10.197
-10.185 -10.183 -10.182 -10.182 -10.179 -10.177 -10.175 -10.171
-10.166 -10.166 -10.162 -10.162  -8.048  -8.046  -7.996  -7.986
 -7.985  -7.972  -7.971  -7.970  -6.013  -6.011  -6.007  -6.006
 -6.006  -6.004  -5.960  -5.957  -5.953  -5.950  -5.949  -5.947
 -5.945  -5.943  -5.941  -5.937  -5.935  -5.935  -5.933  -5.932
 -5.932  -5.929  -5.927  -5.926  -1.048  -1.032  -0.982  -0.969
 -0.958  -0.958  -0.942  -0.940  -0.923  -0.918  -0.909  -0.900
 -0.850  -0.844  -0.838  -0.828  -0.816  -0.816  -0.812  -0.810
 -0.809  -0.804  -0.801  -0.795  -0.786  -0.777  -0.774  -0.764
 -0.754  -0.749  -0.745  -0.738  -0.731  -0.718  -0.710  -0.709
 -0.693  -0.689  -0.678  -0.675  -0.657  -0.652  -0.649  -0.648
 -0.639  -0.635  -0.628  -0.626  -0.611  -0.609  -0.606  -0.597
 -0.596  -0.589  -0.586  -0.584  -0.583  -0.580  -0.568  -0.558
 -0.552  -0.549  -0.540  -0.539  -0.531  -0.521  -0.520  -0.510
 -0.508  -0.506  -0.502  -0.497  -0.486  -0.485  -0.478  -0.476
 -0.476  -0.473  -0.469  -0.468  -0.465  -0.464  -0.457  -0.452
 -0.448  -0.445  -0.442  -0.440  -0.439  -0.438  -0.433  -0.432
 -0.431  -0.430  -0.424  -0.423  -0.420  -0.419  -0.418  -0.416
 -0.414  -0.409  -0.407  -0.406  -0.404  -0.401  -0.400  -0.396
 -0.395  -0.393  -0.390  -0.389  -0.389  -0.385  -0.384  -0.383
 -0.380  -0.375  -0.374  -0.372  -0.365  -0.362  -0.359  -0.356
 -0.355  -0.354  -0.352  -0.349  -0.348  -0.345  -0.343  -0.342
 -0.340  -0.339  -0.334  -0.333  -0.332  -0.331  -0.329  -0.320
 -0.318  -0.317  -0.311  -0.308  -0.307  -0.302  -0.299  -0.297
 -0.295  -0.292  -0.289  -0.287  -0.287  -0.286  -0.286  -0.281
 -0.280  -0.271  -0.268  -0.263  -0.258  -0.253  -0.252  -0.251
 -0.248  -0.241  -0.233  -0.230  -0.198  -0.195

          Ground-State Mulliken Net Atomic Charges

     Atom                 Charge (a.u.)
  ----------------------------------------
      1 C                     0.251801
      2 C                    -0.115879
      3 N                    -0.479278
      4 C                    -0.088749
      5 C                     0.098415
      6 C                     0.030132
      7 C                     0.019282
      8 C                     0.063488
      9 C                     0.220460
     10 N                    -0.506756
     11 N                    -0.536212
     12 C                     0.238796
     13 C                     0.254469
     14 S                     0.616450
     15 N                    -0.542515
     16 C                    -0.212897
     17 S                     0.330755
     18 C                    -0.118477
     19 C                    -0.193644
     20 S                     0.244602
     21 C                     0.115282
     22 C                     0.030254
     23 C                    -0.298627
     24 C                    -0.039759
     25 N                    -0.415102
     26 S                     0.269896
     27 C                     0.106809
     28 C                    -0.302507
     29 C                    -0.238532
     30 H                     0.085710
     31 H                     0.094264
     32 H                     0.110439
     33 H                     0.110699
     34 H                     0.134713
     35 H                     0.119329
     36 H                     0.110260
     37 H                     0.133266
     38 H                     0.116195
     39 C                    -0.170490
     40 H                     0.122479
     41 H                     0.102064
     42 H                     0.105972
     43 C                    -0.165590
     44 H                     0.089487
     45 C                    -0.188517
     46 H                     0.090227
     47 H                     0.087597
     48 H                     0.111561
     49 C                    -0.197923
     50 H                     0.081821
     51 C                    -0.316184
     52 H                     0.118214
     53 H                     0.099116
     54 H                     0.095113
     55 H                     0.104312
     56 C                     0.263216
     57 C                    -0.115425
     58 N                    -0.476288
     59 C                    -0.069483
     60 C                     0.058479
     61 C                     0.028350
     62 C                     0.074671
     63 C                     0.060969
     64 C                     0.193807
     65 N                    -0.555006
     66 N                    -0.540215
     67 C                     0.200956
     68 C                     0.319988
     69 S                     0.611003
     70 N                    -0.564869
     71 C                    -0.225908
     72 S                     0.338983
     73 C                    -0.106113
     74 C                    -0.241436
     75 S                     0.277289
     76 C                     0.185139
     77 C                     0.078277
     78 C                    -0.314235
     79 C                    -0.086061
     80 N                    -0.429449
     81 S                     0.275644
     82 C                     0.115513
     83 C                    -0.316370
     84 C                    -0.215420
     85 H                     0.088466
     86 H                     0.133900
     87 H                     0.107487
     88 H                     0.115924
     89 H                     0.125604
     90 H                     0.118455
     91 H                     0.129525
     92 H                     0.123703
     93 H                     0.115210
     94 C                    -0.174603
     95 H                     0.104643
     96 H                     0.099604
     97 H                     0.093454
     98 C                    -0.179579
     99 H                     0.094474
    100 C                    -0.178982
    101 H                     0.095762
    102 H                     0.094477
    103 H                     0.097917
    104 C                    -0.180196
    105 H                     0.090943
    106 C                    -0.318938
    107 H                     0.095706
    108 H                     0.099270
    109 H                     0.094399
    110 H                     0.101275
  ----------------------------------------
  Sum of atomic charges =     0.000000

                    Cartesian Multipole Moments
 -----------------------------------------------------------------
    Charge (ESU x 10^10)
                 0.0000
    Dipole Moment (Debye)
         X       0.4455      Y       2.0027      Z      -1.2138
       Tot       2.3839
    Quadrupole Moments (Debye-Ang)
        XX    -436.7688     XY     -16.0334     YY    -434.7572
        XZ      -5.3411     YZ       4.3840     ZZ    -422.2861

 Total job time:  91.32s(wall), 1076.55s(cpu)
        *  Thank you very much for using Q-Chem.  Have a nice day.  *
