 Q-Chem 4.4, Q-Chem, Inc., Pleasanton, CA (2016)
 Q-Chem 4.4.2 for Intel X86 Linux

User input:
--------------------------------------------------------------
$comment
SP
$end

$rem
MEM_STATIC 5000
MEM_TOTAL 20000
JOBTYPE SP
EXCHANGE B3LYP
BASIS 6-31g(d,p)
$end

$molecule
0 1
C         -18.347000     21.960000     -5.115000
C         -19.033000     21.836000     -3.884000
N         -17.985000     20.922000     -5.848000
C         -19.316000     20.580000     -3.404000
C         -18.362000     19.694000     -5.430000
C         -18.915000     19.507000     -4.168000
C         -19.531000     18.168000     -3.797000
C         -20.511000     17.553000     -4.611000
C         -19.316000     17.524000     -2.529000
N         -21.251000     16.500000     -4.222000
N         -18.430000     18.000000     -1.621000
C         -19.999000     16.359000     -2.161000
C         -21.017000     15.857000     -3.037000
S         -18.444000     16.952000     -0.379000
N         -19.706000     15.978000     -0.898000
C         -22.006000     14.892000     -2.615000
S         -22.303000     14.337000     -0.935000
C         -23.073000     14.435000     -3.377000
C         -23.497000     13.224000     -1.416000
S         -23.477000     14.807000     -5.052000
C         -23.895000     13.553000     -2.704000
C         -23.975000     12.140000     -0.593000
C         -24.956000     13.918000     -4.775000
C         -24.960000     13.184000     -3.575000
N         -24.831000     11.227000     -1.049000
S         -23.375000     11.883000      0.998000
C         -25.028000     10.266000     -0.020000
C         -24.435000     10.532000      1.189000
C         -18.113000     23.364000     -5.657000
H         -19.437000     22.741000     -3.441000
H         -19.906000     20.518000     -2.494000
H         -18.218000     18.904000     -6.166000
H         -20.826000     18.046000     -5.529000
H         -25.714000     13.912000     -5.547000
H         -25.816000     12.540000     -3.412000
H         -25.619000      9.408000     -0.311000
H         -24.516000      9.989000      2.121000
H         -18.020000     24.042000     -4.799000
C         -19.218000     24.049000     -6.478000
H         -17.191000     23.433000     -6.247000
H         -19.866000     24.510000     -5.723000
H         -19.754000     23.290000     -7.061000
C         -18.614000     25.232000     -7.298000
H         -17.976000     25.814000     -6.622000
C         -19.771000     26.083000     -7.876000
H         -17.964000     24.930000     -8.129000
H         -20.501000     26.322000     -7.093000
H         -20.413000     25.505000     -8.553000
C         -19.284000     27.327000     -8.663000
H         -18.604000     27.089000     -9.490000
C         -18.551000     28.383000     -7.893000
H         -20.164000     27.660000     -9.227000
H         -18.390000     29.201000     -8.606000
H         -17.619000     27.974000     -7.484000
H         -19.212000     28.717000     -7.084000
C         -23.770000     10.598000     -7.350000
C         -23.561000      9.255000     -7.764000
N         -23.999000     10.944000     -6.082000
C         -23.628000      8.132000     -6.876000
C         -24.180000      9.929000     -5.206000
C         -23.916000      8.545000     -5.493000
C         -24.149000      7.512000     -4.345000
C         -24.836000      7.908000     -3.215000
C         -23.708000      6.166000     -4.322000
N         -25.139000      7.045000     -2.214000
N         -22.889000      5.608000     -5.259000
C         -24.060000      5.258000     -3.281000
C         -24.785000      5.745000     -2.211000
S         -22.669000      4.075000     -4.858000
N         -23.454000      4.022000     -3.374000
C         -25.253000      4.967000     -1.057000
S         -24.947000      3.215000     -0.846000
C         -26.102000      5.322000     -0.074000
C         -25.661000      3.222000      0.766000
S         -27.000000      6.765000      0.120000
C         -26.232000      4.412000      0.962000
C         -25.637000      2.062000      1.605000
C         -27.304000      6.233000      1.824000
C         -26.917000      4.904000      2.056000
N         -25.418000      0.924000      1.039000
S         -26.071000      2.064000      3.304000
C         -25.432000     -0.097000      1.969000
C         -25.583000      0.405000      3.259000
C         -23.877000     11.720000     -8.413000
H         -23.239000      9.074000     -8.785000
H         -23.361000      7.148000     -7.251000
H         -24.303000     10.308000     -4.192000
H         -25.202000      8.931000     -3.142000
H         -27.912000      6.883000      2.439000
H         -27.248000      4.331000      2.915000
H         -25.317000     -1.127000      1.657000
H         -25.389000     -0.224000      4.117000
H         -23.948000     12.705000     -7.935000
C         -25.098000     11.459000     -9.249000
H         -22.979000     11.645000     -9.039000
H         -25.958000     11.572000     -8.577000
H         -25.069000     10.458000     -9.698000
C         -25.304000     12.474000    -10.370000
H         -26.207000     12.312000    -10.971000
C         -24.078000     12.511000    -11.373000
H         -25.402000     13.464000     -9.908000
H         -23.893000     11.644000    -12.020000
H         -23.114000     12.767000    -10.915000
C         -24.314000     13.741000    -12.310000
H         -25.144000     13.476000    -12.976000
C         -23.035000     13.848000    -13.144000
H         -24.636000     14.715000    -11.922000
H         -22.196000     13.975000    -12.447000
H         -23.043000     14.737000    -13.786000
H         -22.856000     12.915000    -13.693000
$end

--------------------------------------------------------------

             Standard Nuclear Orientation (Angstroms)
    I     Atom           X                Y                Z
 ----------------------------------------------------------------
    1      C      10.8559115236     1.6851093705     1.0984229134
    2      C      10.1744891583     2.6901262168     0.3725181683
    3      N      10.2387474108     0.8035381443     1.8650503529
    4      C       8.8081132102     2.7812690168     0.4853665557
    5      C       8.8882208076     0.8244617500     1.8868928998
    6      C       8.1799674007     1.8692089567     1.3035384745
    7      C       6.6715816475     1.7717284489     1.1445165564
    8      C       6.0633975143     0.6569207683     0.5211892785
    9      C       5.7750868907     2.8586496381     1.4337992546
   10      N       4.7723859893     0.6229594736     0.1472028179
   11      N       6.2013030750     4.0101852042     2.0068102528
   12      C       4.4055949738     2.7882066159     1.1533216794
   13      C       3.9070536319     1.6350103193     0.4624535068
   14      S       4.8777699140     4.9283484096     2.2219852976
   15      N       3.7724686023     3.9503666471     1.4266604064
   16      C       2.6121051107     1.6057216826    -0.1776093832
   17      S       1.5220368745     3.0063400624    -0.4396273115
   18      C       2.1060421531     0.5623442317    -0.9413146784
   19      C       0.2995287052     2.0433754644    -1.1280595588
   20      S       2.8201453944    -1.0147752965    -1.2729403025
   21      C       0.8616573292     0.8242679002    -1.4793104050
   22      C      -1.0703967830     2.4647246018    -1.2912712656
   23      C       1.4914951816    -1.2581583337    -2.3819688455
   24      C       0.4683721512    -0.3005190892    -2.2598281801
   25      N      -2.0183167819     1.6404428311    -1.7342704057
   26      S      -1.5969566723     4.0285023307    -0.8068500672
   27      C      -3.2541440197     2.3422777342    -1.6978038851
   28      C      -3.1948617174     3.6709336853    -1.3583263865
   29      C      12.3604261398     1.5620705196     0.8958563544
   30      H      10.7444315612     3.2554034510    -0.3583151273
   31      H       8.3066656080     3.5154317491    -0.1388124129
   32      H       8.4322237581    -0.0411522162     2.3657573404
   33      H       6.6893546922    -0.1543299008     0.1537005530
   34      H       1.4895827263    -2.1398360149    -3.0090452435
   35      H      -0.4189151179    -0.4707562495    -2.8579766661
   36      H      -4.1222838827     1.7396815805    -1.9287520476
   37      H      -3.9880715694     4.4062479978    -1.3454814439
   38      H      12.7490585678     2.5619336218     0.6640469224
   39      C      12.8970352081     0.7368378210    -0.2853856618
   40      H      12.8720548988     1.1979399634     1.7950726527
   41      H      12.8989712722     1.4415060923    -1.1255575960
   42      H      12.2216653725    -0.1079178923    -0.4684959292
   43      C      14.3933806179     0.3672130262    -0.0383372339
   44      H      14.9108568095     1.2764415424     0.2907006006
   45      C      14.9931517726    -0.1964700349    -1.3496228506
   46      H      14.5588784994    -0.3700280114     0.7574963565
   47      H      14.7609231953     0.4641285385    -2.1938914172
   48      H      14.4784133244    -1.1064386776    -1.6836563807
   49      C      16.5002957876    -0.5424445372    -1.2360774331
   50      H      16.7316124563    -1.2542834689    -0.4343599429
   51      C      17.4483474001     0.5913414270    -0.9889893363
   52      H      16.7081266689    -1.1667475044    -2.1138229144
   53      H      18.4500034411     0.1472957415    -1.0430504557
   54      H      17.2329494466     1.0598369655    -0.0208459316
   55      H      17.3151448081     1.3134469180    -1.8037155046
   56      C      -0.4057640989    -4.2912420889     0.1201165160
   57      C      -1.4398012994    -4.9748355268     0.8145177542
   58      N      -0.5357281920    -3.0464746038    -0.3421001459
   59      C      -2.7422118382    -4.4215699953     1.0420832174
   60      C      -1.7704502920    -2.5001155110    -0.2565719185
   61      C      -2.8629996333    -3.0625523845     0.4901018389
   62      C      -4.2101551852    -2.2724713215     0.5051295694
   63      C      -4.3899808627    -1.2353474899    -0.3880232080
   64      C      -5.3075013425    -2.4968288330     1.3724363884
   65      N      -5.5600739931    -0.5565224388    -0.4810695201
   66      N      -5.2926833800    -3.3650081488     2.4241678672
   67      C      -6.5448615985    -1.8006344595     1.2447571375
   68      C      -6.6356045747    -0.8054240679     0.2913338377
   69      S      -6.7375123376    -3.3194829606     3.1095048211
   70      N      -7.4589311795    -2.0759698554     2.2408737074
   71      C      -7.8229617848     0.0075839406    -0.0005990892
   72      S      -9.3846606616    -0.1645818564     0.8591197932
   73      C      -8.0445778941     0.8635666047    -1.0161260356
   74      C     -10.0684642273     1.2290445295     0.0232925503
   75      S      -7.0593836384     1.2291263445    -2.3659583790
   76      C      -9.2162752118     1.5976323992    -0.9350778709
   77      C     -11.3628768285     1.7443358390     0.3535468223
   78      C      -8.1377731990     2.6568431156    -2.6448074011
   79      C      -9.2977041944     2.6246308346    -1.8552781396
   80      N     -12.1628210722     0.9689035533     1.0032813660
   81      S     -11.9937727875     3.2737094357    -0.2277858628
   82      C     -13.3693523165     1.5974862281     1.2414056556
   83      C     -13.3410655673     2.9167491596     0.7968270039
   84      C       0.8958935894    -5.0447031140    -0.2517513989
   85      H      -1.2056631995    -5.9263433398     1.2821695820
   86      H      -3.4447412030    -4.9683641341     1.6646895629
   87      H      -1.7636502745    -1.4677946963    -0.6047579253
   88      H      -3.5919536079    -0.9849062493    -1.0853363984
   89      H      -7.9109049649     3.2829476325    -3.4973992955
   90      H     -10.1708197353     3.2346878119    -2.0584301434
   91      H     -14.1774947568     1.0696505007     1.7310629247
   92      H     -14.1086389637     3.6140044455     1.1035958868
   93      H       1.6270613373    -4.3618035147    -0.7020755728
   94      C       0.5438773482    -6.1399274002    -1.2184086954
   95      H       1.2803662173    -5.4831767035     0.6776713842
   96      H       0.1915526924    -5.6410299883    -2.1299577666
   97      H      -0.2228951225    -6.8073930195    -0.8048961498
   98      C       1.7361863659    -6.9940629781    -1.6404911764
   99      H       1.4988878635    -7.7799981871    -2.3677114099
  100      C       2.4315842533    -7.6991807964    -0.4036869717
  101      H       2.4686090110    -6.3303656788    -2.1161075805
  102      H       1.8915052582    -8.4913123858     0.1305088950
  103      H       2.8147253288    -7.0140004875     0.3633377089
  104      C       3.7555591739    -8.3314333272    -0.9458236214
  105      H       3.4657495345    -9.1903012933    -1.5631057204
  106      C       4.4801422848    -8.8485394900     0.2993376258
  107      H       4.4288082096    -7.7854422057    -1.6177859948
  108      H       4.6381884845    -7.9925118283     0.9687381346
  109      H       5.4749488033    -9.2404876612     0.0558512361
  110      H       3.8493246623    -9.5650588053     0.8402629422
 ----------------------------------------------------------------

    9   -5663.4998347364      6.66E-06 Convergence criterion met
 Total energy in the final basis set = -5663.4998347364

                    Orbital Energies (a.u.)
 --------------------------------------------------------------

 Alpha MOs
 -- Occupied --
-88.988 -88.984 -88.932 -88.919 -88.919 -88.912 -88.912 -88.904
-14.388 -14.383 -14.381 -14.377 -14.346 -14.345 -14.341 -14.341
-14.328 -14.325 -10.266 -10.264 -10.261 -10.259 -10.258 -10.254
-10.252 -10.251 -10.236 -10.236 -10.235 -10.233 -10.233 -10.232
-10.232 -10.230 -10.230 -10.229 -10.228 -10.226 -10.225 -10.225
-10.225 -10.224 -10.223 -10.222 -10.222 -10.221 -10.220 -10.215
-10.211 -10.206 -10.206 -10.204 -10.200 -10.199 -10.193 -10.190
-10.183 -10.182 -10.182 -10.181 -10.181 -10.179 -10.178 -10.177
-10.175 -10.173 -10.170 -10.169  -8.043  -8.039  -7.993  -7.982
 -7.979  -7.971  -7.971  -7.963  -6.008  -6.004  -6.002  -6.001
 -5.999  -5.997  -5.957  -5.954  -5.950  -5.946  -5.943  -5.942
 -5.939  -5.939  -5.936  -5.936  -5.935  -5.932  -5.931  -5.928
 -5.928  -5.927  -5.924  -5.920  -1.029  -1.026  -0.979  -0.958
 -0.955  -0.949  -0.943  -0.935  -0.922  -0.911  -0.896  -0.893
 -0.843  -0.842  -0.830  -0.824  -0.813  -0.810  -0.807  -0.806
 -0.804  -0.802  -0.796  -0.792  -0.784  -0.783  -0.771  -0.764
 -0.752  -0.749  -0.742  -0.736  -0.720  -0.717  -0.708  -0.707
 -0.691  -0.690  -0.672  -0.669  -0.650  -0.649  -0.645  -0.643
 -0.633  -0.630  -0.624  -0.621  -0.609  -0.608  -0.602  -0.595
 -0.591  -0.586  -0.585  -0.582  -0.578  -0.575  -0.566  -0.565
 -0.547  -0.545  -0.537  -0.534  -0.528  -0.518  -0.517  -0.508
 -0.506  -0.505  -0.494  -0.494  -0.493  -0.481  -0.473  -0.471
 -0.470  -0.468  -0.466  -0.461  -0.461  -0.458  -0.455  -0.449
 -0.446  -0.442  -0.441  -0.438  -0.437  -0.432  -0.430  -0.430
 -0.429  -0.425  -0.421  -0.421  -0.417  -0.415  -0.415  -0.413
 -0.410  -0.407  -0.406  -0.404  -0.403  -0.399  -0.398  -0.396
 -0.392  -0.392  -0.392  -0.388  -0.386  -0.385  -0.382  -0.381
 -0.380  -0.375  -0.372  -0.370  -0.363  -0.362  -0.358  -0.354
 -0.351  -0.350  -0.350  -0.346  -0.344  -0.342  -0.339  -0.338
 -0.338  -0.333  -0.331  -0.330  -0.328  -0.327  -0.326  -0.322
 -0.317  -0.316  -0.309  -0.307  -0.305  -0.297  -0.296  -0.295
 -0.293  -0.292  -0.287  -0.287  -0.284  -0.284  -0.282  -0.279
 -0.269  -0.268  -0.266  -0.258  -0.254  -0.252  -0.247  -0.246
 -0.243  -0.239  -0.230  -0.226  -0.193  -0.187

          Ground-State Mulliken Net Atomic Charges

     Atom                 Charge (a.u.)
  ----------------------------------------
      1 C                     0.283259
      2 C                    -0.116395
      3 N                    -0.480988
      4 C                    -0.027180
      5 C                     0.064879
      6 C                     0.023556
      7 C                    -0.013182
      8 C                     0.073376
      9 C                     0.204656
     10 N                    -0.515369
     11 N                    -0.538257
     12 C                     0.229898
     13 C                     0.296634
     14 S                     0.595249
     15 N                    -0.581077
     16 C                    -0.224148
     17 S                     0.316432
     18 C                    -0.112688
     19 C                    -0.230356
     20 S                     0.295154
     21 C                     0.175723
     22 C                     0.086651
     23 C                    -0.270889
     24 C                    -0.088729
     25 N                    -0.460353
     26 S                     0.270535
     27 C                     0.101182
     28 C                    -0.308936
     29 C                    -0.238601
     30 H                     0.087632
     31 H                     0.109258
     32 H                     0.109063
     33 H                     0.114325
     34 H                     0.122756
     35 H                     0.113365
     36 H                     0.141522
     37 H                     0.140689
     38 H                     0.093563
     39 C                    -0.170359
     40 H                     0.113045
     41 H                     0.092177
     42 H                     0.106418
     43 C                    -0.175752
     44 H                     0.095245
     45 C                    -0.177172
     46 H                     0.100795
     47 H                     0.086446
     48 H                     0.091284
     49 C                    -0.184084
     50 H                     0.089102
     51 C                    -0.303901
     52 H                     0.085685
     53 H                     0.102401
     54 H                     0.106374
     55 H                     0.099304
     56 C                     0.268968
     57 C                    -0.117479
     58 N                    -0.473785
     59 C                    -0.069489
     60 C                     0.045189
     61 C                     0.026769
     62 C                     0.074873
     63 C                     0.059949
     64 C                     0.192470
     65 N                    -0.568056
     66 N                    -0.539272
     67 C                     0.199247
     68 C                     0.319561
     69 S                     0.607716
     70 N                    -0.562282
     71 C                    -0.223118
     72 S                     0.331477
     73 C                    -0.104886
     74 C                    -0.236390
     75 S                     0.266826
     76 C                     0.185491
     77 C                     0.073318
     78 C                    -0.317647
     79 C                    -0.084434
     80 N                    -0.424289
     81 S                     0.272406
     82 C                     0.114639
     83 C                    -0.309001
     84 C                    -0.218343
     85 H                     0.086508
     86 H                     0.132076
     87 H                     0.126528
     88 H                     0.130743
     89 H                     0.124235
     90 H                     0.118998
     91 H                     0.121727
     92 H                     0.128132
     93 H                     0.115233
     94 C                    -0.173886
     95 H                     0.105468
     96 H                     0.095445
     97 H                     0.094294
     98 C                    -0.179166
     99 H                     0.093992
    100 C                    -0.179066
    101 H                     0.093041
    102 H                     0.094634
    103 H                     0.099355
    104 C                    -0.180010
    105 H                     0.090441
    106 C                    -0.319570
    107 H                     0.095424
    108 H                     0.100224
    109 H                     0.094338
    110 H                     0.101219
  ----------------------------------------
  Sum of atomic charges =     0.000000

                    Cartesian Multipole Moments
 -----------------------------------------------------------------
    Charge (ESU x 10^10)
                 0.0000
    Dipole Moment (Debye)
         X      -2.5078      Y       0.9578      Z      -1.5873
       Tot       3.1186
    Quadrupole Moments (Debye-Ang)
        XX    -395.5195     XY     -17.4102     YY    -406.9074
        XZ     -13.8601     YZ      -7.3230     ZZ    -444.6481

 Total job time:  82.94s(wall), 981.32s(cpu)
        *  Thank you very much for using Q-Chem.  Have a nice day.  *
