 Q-Chem 4.4, Q-Chem, Inc., Pleasanton, CA (2016)
 Q-Chem 4.4.2 for Intel X86 Linux

User input:
--------------------------------------------------------------
$comment
SP
$end

$rem
MEM_STATIC 5000
MEM_TOTAL 20000
JOBTYPE SP
EXCHANGE B3LYP
BASIS 6-31g(d,p)
$end

$molecule
0 1
C         -27.641000     -0.932000     -5.170000
C         -26.987000     -2.158000     -5.042000
N         -27.030000      0.219000     -5.416000
C         -25.568000     -2.070000     -5.103000
C         -25.697000      0.244000     -5.644000
C         -24.898000     -0.900000     -5.480000
C         -23.369000     -0.801000     -5.616000
C         -22.797000      0.453000     -5.267000
C         -22.441000     -1.850000     -5.798000
N         -21.464000      0.706000     -5.462000
N         -22.813000     -3.138000     -6.115000
C         -21.014000     -1.553000     -5.888000
C         -20.589000     -0.223000     -5.827000
S         -21.366000     -3.807000     -6.673000
N         -20.330000     -2.654000     -6.288000
C         -19.145000      0.086000     -6.115000
S         -17.876000     -1.086000     -6.348000
C         -18.599000      1.327000     -6.088000
C         -16.605000      0.182000     -6.378000
S         -19.334000      2.896000     -5.853000
C         -17.168000      1.388000     -6.263000
C         -15.245000     -0.063000     -6.457000
C         -17.705000      3.693000     -6.194000
C         -16.756000      2.750000     -6.438000
N         -14.318000      0.864000     -6.539000
S         -14.618000     -1.707000     -6.516000
C         -13.035000      0.315000     -6.463000
C         -13.052000     -1.021000     -6.109000
C         -29.207000     -0.734000     -5.132000
H         -27.473000     -3.045000     -4.647000
H         -25.059000     -3.014000     -4.934000
H         -25.321000      1.203000     -5.997000
H         -23.457000      1.248000     -4.925000
H         -17.620000      4.772000     -6.215000
H         -15.720000      3.069000     -6.458000
H         -12.145000      0.868000     -6.735000
H         -12.202000     -1.685000     -6.020000
H         -29.411000      0.253000     -4.699000
C         -29.906000     -1.751000     -4.185000
H         -29.632000     -0.887000     -6.132000
H         -29.306000     -1.836000     -3.271000
H         -29.926000     -2.738000     -4.665000
C         -31.373000     -1.494000     -3.916000
H         -31.446000     -0.415000     -3.732000
C         -31.866000     -2.335000     -2.632000
H         -32.019000     -1.759000     -4.762000
H         -32.447000     -1.673000     -1.978000
H         -30.984000     -2.424000     -1.985000
C         -32.456000     -3.724000     -2.954000
H         -32.821000     -4.194000     -2.033000
C         -31.376000     -4.777000     -3.433000
H         -33.224000     -3.768000     -3.736000
H         -31.320000     -4.720000     -4.528000
H         -31.667000     -5.801000     -3.168000
H         -30.404000     -4.543000     -2.983000
C         -23.770000     10.598000     -7.350000
C         -23.561000      9.255000     -7.764000
N         -23.999000     10.944000     -6.082000
C         -23.628000      8.132000     -6.876000
C         -24.180000      9.929000     -5.206000
C         -23.916000      8.545000     -5.493000
C         -24.149000      7.512000     -4.345000
C         -24.836000      7.908000     -3.215000
C         -23.708000      6.166000     -4.322000
N         -25.139000      7.045000     -2.214000
N         -22.889000      5.608000     -5.259000
C         -24.060000      5.258000     -3.281000
C         -24.785000      5.745000     -2.211000
S         -22.669000      4.075000     -4.858000
N         -23.454000      4.022000     -3.374000
C         -25.253000      4.967000     -1.057000
S         -24.947000      3.215000     -0.846000
C         -26.102000      5.322000     -0.074000
C         -25.661000      3.222000      0.766000
S         -27.000000      6.765000      0.120000
C         -26.232000      4.412000      0.962000
C         -25.637000      2.062000      1.605000
C         -27.304000      6.233000      1.824000
C         -26.917000      4.904000      2.056000
N         -25.418000      0.924000      1.039000
S         -26.071000      2.064000      3.304000
C         -25.432000     -0.097000      1.969000
C         -25.583000      0.405000      3.259000
C         -23.877000     11.720000     -8.413000
H         -23.239000      9.074000     -8.785000
H         -23.361000      7.148000     -7.251000
H         -24.303000     10.308000     -4.192000
H         -25.202000      8.931000     -3.142000
H         -27.912000      6.883000      2.439000
H         -27.248000      4.331000      2.915000
H         -25.317000     -1.127000      1.657000
H         -25.389000     -0.224000      4.117000
H         -23.948000     12.705000     -7.935000
C         -25.098000     11.459000     -9.249000
H         -22.979000     11.645000     -9.039000
H         -25.958000     11.572000     -8.577000
H         -25.069000     10.458000     -9.698000
C         -25.304000     12.474000    -10.370000
H         -26.207000     12.312000    -10.971000
C         -24.078000     12.511000    -11.373000
H         -25.402000     13.464000     -9.908000
H         -23.893000     11.644000    -12.020000
H         -23.114000     12.767000    -10.915000
C         -24.314000     13.741000    -12.310000
H         -25.144000     13.476000    -12.976000
C         -23.035000     13.848000    -13.144000
H         -24.636000     14.715000    -11.922000
H         -22.196000     13.975000    -12.447000
H         -23.043000     14.737000    -13.786000
H         -22.856000     12.915000    -13.693000
$end

--------------------------------------------------------------

             Standard Nuclear Orientation (Angstroms)
    I     Atom           X                Y                Z
 ----------------------------------------------------------------
    1      C       3.8210651475    -2.2273827079    -3.7280147035
    2      C       4.8911934044    -1.3346671283    -3.6568781616
    3      N       2.5940593495    -1.9587944404    -3.3026265111
    4      C       4.5876979106    -0.1139222280    -2.9915223368
    5      C       2.2931344270    -0.7258026016    -2.8350013230
    6      C       3.2829353715     0.2521111200    -2.6400350614
    7      C       2.9241000655     1.5943325713    -1.9798708402
    8      C       1.8465448580     1.5590942288    -1.0529760058
    9      C       3.6716866263     2.7925909680    -1.9802566107
   10      N       1.3521702862     2.7081961145    -0.4925461360
   11      N       4.7647076415     2.9980129023    -2.7932288668
   12      C       3.1661069832     3.9670619237    -1.2748168906
   13      C       1.9254756386     3.8968384034    -0.6351697034
   14      S       4.9450413356     4.6765804989    -2.7419981886
   15      N       3.9081602424     5.0583381193    -1.5887121366
   16      C       1.3276631459     5.1615382683    -0.0813507121
   17      S       2.1184473318     6.7123893599     0.0067132584
   18      C       0.1371173006     5.2368557833     0.5635166092
   19      C       0.7788114975     7.4273265102     0.9650481177
   20      S      -1.0876731735     4.0226075317     0.8510935176
   21      C      -0.1890647750     6.5219692371     1.1328984358
   22      C       0.7781897689     8.7076269219     1.4910675746
   23      C      -2.1748437909     5.3167864814     1.5915608666
   24      C      -1.5509924068     6.5251234448     1.5807334239
   25      N      -0.2248301816     9.2524609782     2.1410589823
   26      S       2.1563175095     9.7815160818     1.2745681454
   27      C       0.1226705790    10.4985279140     2.6700451945
   28      C       1.4769167837    10.7562394085     2.5695315002
   29      C       3.8768761252    -3.6543281735    -4.4015989766
   30      H       5.9208245466    -1.6369703165    -3.8225962760
   31      H       5.4390108140     0.5499283104    -2.8759939717
   32      H       1.2304677874    -0.5574892074    -2.6674417380
   33      H       1.3552802602     0.6065926578    -0.8632687259
   34      H      -3.1729435291     5.0640245953     1.9259488772
   35      H      -1.9936398071     7.3275861876     2.1600207667
   36      H      -0.6120133672    11.2034749302     3.0377165199
   37      H       1.9946666798    11.6593745884     2.8655025999
   38      H       3.1838323478    -4.3095806264    -3.8597424038
   39      C       5.2744035171    -4.3210527773    -4.2529568181
   40      H       3.6764157124    -3.5729237611    -5.4773419499
   41      H       5.6316432337    -4.1433419881    -3.2314776649
   42      H       5.9801822838    -3.8401329276    -4.9425664400
   43      C       5.3549671804    -5.7734244220    -4.6708385023
   44      H       4.4608335668    -6.2445215950    -4.2442021997
   45      C       6.6984622035    -6.4520251670    -4.0933368558
   46      H       5.3484793335    -5.9095391856    -5.7592720919
   47      H       6.4410551112    -7.4201196736    -3.6460610851
   48      H       6.9132061731    -5.9229866362    -3.1560763475
   49      C       7.9116512291    -6.4012732967    -5.0455456753
   50      H       8.7561838765    -6.9391379256    -4.5985196711
   51      C       8.5230467702    -4.9517718113    -5.2181461853
   52      H       7.7475664633    -6.7367220848    -6.0769691093
   53      H       8.0267989228    -4.4826563205    -6.0778430681
   54      H       9.5975725648    -4.9914017843    -5.4356451091
   55      H       8.3538725741    -4.3663605494    -4.3067111927
   56      C      -8.0407805727    -1.5905029034    -0.3267000715
   57      C      -7.0182581134    -0.8281953706    -0.9528478542
   58      N      -7.8164156866    -2.4029947880     0.7074654546
   59      C      -5.6370252374    -0.8934656966    -0.5758895982
   60      C      -6.5218161074    -2.5952388477     1.0501258562
   61      C      -5.4192172835    -1.8236535360     0.5437140275
   62      C      -3.9925150922    -2.1640804347     1.0802887042
   63      C      -3.8041331038    -3.3317394515     1.7921662547
   64      C      -2.8255874667    -1.3757885881     0.9266596655
   65      N      -2.5802743913    -3.7263566637     2.2223128664
   66      N      -2.8087423424    -0.1213776743     0.3916236843
   67      C      -1.5381104920    -1.8147273071     1.3530220003
   68      C      -1.4507814894    -3.0193343440     2.0230888118
   69      S      -1.2905387595     0.3829419370     0.3885236173
   70      N      -0.5403172351    -0.8718020039     1.2156120692
   71      C      -0.2197384591    -3.6438474988     2.5236288972
   72      S       1.4090557066    -2.9213993597     2.3426337252
   73      C      -0.0300645550    -4.8796225043     3.0236278431
   74      C       2.1459786934    -4.1847770588     3.3271185147
   75      S      -1.1341198893    -6.1789488909     3.1618369606
   76      C       1.2260314324    -5.1245097085     3.5532967279
   77      C       3.5284087832    -4.1404872440     3.6972839630
   78      C       0.0703120324    -6.9585494465     4.2666549183
   79      C       1.3127800660    -6.3057857375     4.2640615398
   80      N       4.3031339997    -3.3722334655     3.0095718351
   81      S       4.2652110869    -5.1957120890     4.8883271578
   82      C       5.6012381787    -3.4402389876     3.4763027954
   83      C       5.6820499965    -4.2426384786     4.6114369314
   84      C      -9.4664500702    -1.6048825431    -0.9329687494
   85      H      -7.3067018184    -0.0855683550    -1.6905411134
   86      H      -4.9324213880    -0.2080449085    -1.0383847428
   87      H      -6.4435566282    -3.2248418324     1.9358128978
   88      H      -4.6506135447    -3.9936797705     1.9685745237
   89      H      -0.1879808773    -7.9305884992     4.6651694762
   90      H       2.2211441791    -6.7575765486     4.6468548275
   91      H       6.3940149977    -2.8968564361     2.9785987486
   92      H       6.5669800259    -4.2239656489     5.2327188067
   93      H     -10.1584252723    -2.1628502961    -0.2898573234
   94      C      -9.3917656106    -2.2420608660    -2.2917490909
   95      H      -9.7743590564    -0.5566106357    -1.0340779192
   96      H      -9.1052857926    -3.2877655926    -2.1232737551
   97      H      -8.6678225938    -1.7269629462    -2.9359723763
   98      C     -10.7296921360    -2.2854137044    -3.0248078497
   99      H     -10.6956848095    -2.7731767300    -4.0065332353
  100      C     -11.3355514724    -0.8380561845    -3.2451364085
  101      H     -11.4287851597    -2.8618060451    -2.4065936361
  102      H     -10.8339310609    -0.1506878037    -3.9382631443
  103      H     -11.5203468594    -0.2695664163    -2.3246658503
  104      C     -12.7907069014    -1.0476064508    -3.7791554750
  105      H     -12.6995455545    -1.4144648295    -4.8086143323
  106      C     -13.4000447478     0.3560776724    -3.8141450622
  107      H     -13.4733344636    -1.7825595201    -3.3355705370
  108      H     -13.3550528614     0.7610596435    -2.7944272909
  109      H     -14.4605754398     0.3306994408    -4.0919572229
  110      H     -12.7986867145     1.0194864740    -4.4483282201
 ----------------------------------------------------------------

   10   -5663.4759833987      5.24E-06 Convergence criterion met
 Total energy in the final basis set = -5663.4759833987

                    Orbital Energies (a.u.)
 --------------------------------------------------------------

 Alpha MOs
 -- Occupied --
-88.993 -88.983 -88.929 -88.925 -88.919 -88.907 -88.907 -88.905
-14.394 -14.389 -14.383 -14.378 -14.356 -14.343 -14.341 -14.337
-14.329 -14.324 -10.271 -10.266 -10.264 -10.262 -10.262 -10.255
-10.255 -10.249 -10.249 -10.243 -10.237 -10.235 -10.233 -10.232
-10.231 -10.230 -10.230 -10.229 -10.229 -10.229 -10.228 -10.228
-10.228 -10.228 -10.227 -10.227 -10.226 -10.222 -10.220 -10.219
-10.217 -10.211 -10.209 -10.201 -10.201 -10.200 -10.199 -10.194
-10.184 -10.182 -10.182 -10.182 -10.180 -10.180 -10.178 -10.176
-10.175 -10.174 -10.173 -10.169  -8.048  -8.038  -7.990  -7.984
 -7.981  -7.966  -7.966  -7.965  -6.013  -6.007  -6.005  -6.003
 -5.997  -5.996  -5.954  -5.951  -5.949  -5.947  -5.945  -5.944
 -5.941  -5.940  -5.937  -5.931  -5.930  -5.929  -5.927  -5.927
 -5.926  -5.923  -5.922  -5.921  -1.033  -1.025  -0.975  -0.969
 -0.960  -0.951  -0.939  -0.936  -0.917  -0.915  -0.903  -0.892
 -0.841  -0.837  -0.827  -0.822  -0.813  -0.809  -0.809  -0.803
 -0.801  -0.800  -0.796  -0.790  -0.782  -0.782  -0.769  -0.768
 -0.748  -0.748  -0.741  -0.741  -0.726  -0.712  -0.705  -0.704
 -0.693  -0.688  -0.678  -0.669  -0.652  -0.652  -0.647  -0.644
 -0.637  -0.630  -0.628  -0.621  -0.610  -0.606  -0.600  -0.597
 -0.593  -0.591  -0.584  -0.584  -0.578  -0.575  -0.566  -0.566
 -0.549  -0.543  -0.540  -0.533  -0.525  -0.524  -0.514  -0.509
 -0.503  -0.501  -0.500  -0.492  -0.485  -0.480  -0.478  -0.472
 -0.470  -0.469  -0.469  -0.465  -0.463  -0.461  -0.457  -0.454
 -0.447  -0.446  -0.445  -0.440  -0.439  -0.435  -0.433  -0.432
 -0.428  -0.427  -0.425  -0.425  -0.421  -0.416  -0.414  -0.411
 -0.409  -0.409  -0.406  -0.404  -0.401  -0.400  -0.396  -0.394
 -0.393  -0.391  -0.389  -0.388  -0.386  -0.383  -0.382  -0.380
 -0.379  -0.378  -0.372  -0.371  -0.362  -0.361  -0.353  -0.353
 -0.352  -0.350  -0.349  -0.348  -0.344  -0.341  -0.340  -0.339
 -0.337  -0.334  -0.334  -0.332  -0.330  -0.328  -0.323  -0.323
 -0.315  -0.315  -0.309  -0.305  -0.302  -0.300  -0.297  -0.293
 -0.291  -0.289  -0.286  -0.285  -0.281  -0.281  -0.280  -0.279
 -0.275  -0.268  -0.266  -0.263  -0.254  -0.252  -0.247  -0.246
 -0.245  -0.236  -0.235  -0.227  -0.200  -0.189

          Ground-State Mulliken Net Atomic Charges

     Atom                 Charge (a.u.)
  ----------------------------------------
      1 C                     0.256324
      2 C                    -0.112574
      3 N                    -0.475409
      4 C                    -0.094782
      5 C                     0.055691
      6 C                     0.061081
      7 C                     0.040737
      8 C                     0.070144
      9 C                     0.184188
     10 N                    -0.556834
     11 N                    -0.560330
     12 C                     0.199305
     13 C                     0.362763
     14 S                     0.609991
     15 N                    -0.547176
     16 C                    -0.212567
     17 S                     0.332624
     18 C                    -0.137815
     19 C                    -0.245401
     20 S                     0.266276
     21 C                     0.176483
     22 C                     0.086455
     23 C                    -0.302565
     24 C                    -0.049710
     25 N                    -0.457281
     26 S                     0.240810
     27 C                     0.112687
     28 C                    -0.293673
     29 C                    -0.213483
     30 H                     0.104659
     31 H                     0.117665
     32 H                     0.105962
     33 H                     0.126574
     34 H                     0.136487
     35 H                     0.130074
     36 H                     0.122039
     37 H                     0.127763
     38 H                     0.119134
     39 C                    -0.188049
     40 H                     0.115275
     41 H                     0.095758
     42 H                     0.095146
     43 C                    -0.183724
     44 H                     0.089236
     45 C                    -0.185454
     46 H                     0.092781
     47 H                     0.092017
     48 H                     0.091588
     49 C                    -0.176010
     50 H                     0.096672
     51 C                    -0.324051
     52 H                     0.098659
     53 H                     0.103146
     54 H                     0.100207
     55 H                     0.104549
     56 C                     0.262426
     57 C                    -0.115886
     58 N                    -0.477043
     59 C                    -0.069618
     60 C                     0.057945
     61 C                     0.028035
     62 C                     0.074332
     63 C                     0.060407
     64 C                     0.186686
     65 N                    -0.556509
     66 N                    -0.547648
     67 C                     0.199414
     68 C                     0.316527
     69 S                     0.638927
     70 N                    -0.570764
     71 C                    -0.222884
     72 S                     0.329715
     73 C                    -0.103528
     74 C                    -0.235590
     75 S                     0.274933
     76 C                     0.184052
     77 C                     0.073419
     78 C                    -0.314664
     79 C                    -0.085680
     80 N                    -0.423501
     81 S                     0.271758
     82 C                     0.114676
     83 C                    -0.310100
     84 C                    -0.215375
     85 H                     0.087343
     86 H                     0.134748
     87 H                     0.106901
     88 H                     0.114092
     89 H                     0.123285
     90 H                     0.116934
     91 H                     0.119344
     92 H                     0.126704
     93 H                     0.114412
     94 C                    -0.174427
     95 H                     0.103703
     96 H                     0.099648
     97 H                     0.093756
     98 C                    -0.179363
     99 H                     0.094047
    100 C                    -0.178490
    101 H                     0.095306
    102 H                     0.094414
    103 H                     0.097663
    104 C                    -0.179917
    105 H                     0.090713
    106 C                    -0.319103
    107 H                     0.095428
    108 H                     0.099188
    109 H                     0.093925
    110 H                     0.101221
  ----------------------------------------
  Sum of atomic charges =     0.000000

                    Cartesian Multipole Moments
 -----------------------------------------------------------------
    Charge (ESU x 10^10)
                 0.0000
    Dipole Moment (Debye)
         X       3.2719      Y       1.8696      Z      -0.7527
       Tot       3.8428
    Quadrupole Moments (Debye-Ang)
        XX    -411.7928     XY     -12.2469     YY    -401.4503
        XZ      11.3358     YZ      -3.1366     ZZ    -434.6294

 Total job time:  89.30s(wall), 1043.87s(cpu)
        *  Thank you very much for using Q-Chem.  Have a nice day.  *
