 Q-Chem 4.4, Q-Chem, Inc., Pleasanton, CA (2016)
 Q-Chem 4.4.2 for Intel X86 Linux

User input:
--------------------------------------------------------------
$comment
SP
$end

$rem
MEM_STATIC 5000
MEM_TOTAL 20000
JOBTYPE SP
EXCHANGE B3LYP
BASIS 6-31g(d,p)
$end

$molecule
0 1
C         -20.345000     11.271000     14.503000
C         -20.220000     11.337000     13.127000
N         -21.317000     10.425000     15.002000
C         -21.086000     10.648000     12.235000
C         -22.111000      9.711000     14.198000
C         -22.008000      9.645000     12.792000
C         -22.912000      8.851000     11.937000
C         -23.235000      9.369000     10.659000
C         -23.435000      7.595000     12.241000
N         -23.992000      8.692000      9.700000
N         -23.336000      6.992000     13.439000
C         -24.294000      6.901000     11.359000
C         -24.515000      7.438000     10.070000
S         -24.087000      5.545000     13.268000
N         -24.728000      5.686000     11.744000
C         -25.340000      6.759000      9.082000
S         -26.514000      5.444000      9.312000
C         -25.513000      7.132000      7.735000
C         -27.055000      5.415000      7.667000
S         -24.629000      8.339000      6.733000
C         -26.513000      6.439000      7.032000
C         -27.938000      4.457000      7.083000
C         -25.767000      7.966000      5.402000
C         -26.639000      6.889000      5.734000
N         -27.767000      4.106000      5.817000
S         -29.222000      3.633000      7.963000
C         -28.828000      3.325000      5.417000
C         -29.649000      2.878000      6.403000
C         -19.304000     11.771000     15.465000
H         -19.478000     12.003000     12.698000
H         -20.844000     10.551000     11.181000
H         -22.869000      9.093000     14.677000
H         -22.883000     10.358000     10.370000
H         -25.665000      8.350000      4.396000
H         -27.382000      6.410000      5.107000
H         -28.948000      3.015000      4.387000
H         -30.574000      2.324000      6.306000
H         -18.726000     10.859000     15.663000
C         -19.745000     12.434000     16.814000
H         -18.633000     12.461000     14.940000
H         -20.337000     11.796000     17.482000
H         -20.377000     13.321000     16.678000
C         -18.506000     13.082000     17.584000
H         -17.711000     12.383000     17.874000
C         -18.893000     13.999000     18.819000
H         -18.001000     13.702000     16.833000
H         -19.570000     13.520000     19.537000
H         -19.494000     14.838000     18.448000
C         -17.538000     14.524000     19.510000
H         -16.837000     13.831000     19.990000
C         -17.900000     15.678000     20.490000
H         -16.989000     15.020000     18.700000
H         -18.424000     15.451000     21.427000
H         -18.550000     16.362000     19.931000
H         -17.062000     16.310000     20.808000
C         -23.770000     10.598000     -7.350000
C         -23.561000      9.255000     -7.764000
N         -23.999000     10.944000     -6.082000
C         -23.628000      8.132000     -6.876000
C         -24.180000      9.929000     -5.206000
C         -23.916000      8.545000     -5.493000
C         -24.149000      7.512000     -4.345000
C         -24.836000      7.908000     -3.215000
C         -23.708000      6.166000     -4.322000
N         -25.139000      7.045000     -2.214000
N         -22.889000      5.608000     -5.259000
C         -24.060000      5.258000     -3.281000
C         -24.785000      5.745000     -2.211000
S         -22.669000      4.075000     -4.858000
N         -23.454000      4.022000     -3.374000
C         -25.253000      4.967000     -1.057000
S         -24.947000      3.215000     -0.846000
C         -26.102000      5.322000     -0.074000
C         -25.661000      3.222000      0.766000
S         -27.000000      6.765000      0.120000
C         -26.232000      4.412000      0.962000
C         -25.637000      2.062000      1.605000
C         -27.304000      6.233000      1.824000
C         -26.917000      4.904000      2.056000
N         -25.418000      0.924000      1.039000
S         -26.071000      2.064000      3.304000
C         -25.432000     -0.097000      1.969000
C         -25.583000      0.405000      3.259000
C         -23.877000     11.720000     -8.413000
H         -23.239000      9.074000     -8.785000
H         -23.361000      7.148000     -7.251000
H         -24.303000     10.308000     -4.192000
H         -25.202000      8.931000     -3.142000
H         -27.912000      6.883000      2.439000
H         -27.248000      4.331000      2.915000
H         -25.317000     -1.127000      1.657000
H         -25.389000     -0.224000      4.117000
H         -23.948000     12.705000     -7.935000
C         -25.098000     11.459000     -9.249000
H         -22.979000     11.645000     -9.039000
H         -25.958000     11.572000     -8.577000
H         -25.069000     10.458000     -9.698000
C         -25.304000     12.474000    -10.370000
H         -26.207000     12.312000    -10.971000
C         -24.078000     12.511000    -11.373000
H         -25.402000     13.464000     -9.908000
H         -23.893000     11.644000    -12.020000
H         -23.114000     12.767000    -10.915000
C         -24.314000     13.741000    -12.310000
H         -25.144000     13.476000    -12.976000
C         -23.035000     13.848000    -13.144000
H         -24.636000     14.715000    -11.922000
H         -22.196000     13.975000    -12.447000
H         -23.043000     14.737000    -13.786000
H         -22.856000     12.915000    -13.693000
$end

--------------------------------------------------------------

             Standard Nuclear Orientation (Angstroms)
    I     Atom           X                Y                Z
 ----------------------------------------------------------------
    1      C      11.2274027467     3.9409196956    -0.8044749385
    2      C       9.8861051643     4.2291216612    -0.9811594665
    3      N      11.5385344200     2.6791680781    -0.3347080413
    4      C       8.8454343769     3.3275540694    -0.6282838655
    5      C      10.5920280236     1.7792418105    -0.0502676179
    6      C       9.2086092064     1.9458309721    -0.2743243684
    7      C       8.1921212359     0.9301779043     0.0631338541
    8      C       6.9255334041     1.3858006172     0.5037019053
    9      C       8.3357683487    -0.4499080991    -0.0718073561
   10      N       5.8329504532     0.5549946619     0.7627056891
   11      N       9.4891838971    -1.0763720386    -0.3647058115
   12      C       7.3054928262    -1.3537314355     0.2732675983
   13      C       6.0420558991    -0.8315608002     0.6335396607
   14      S       9.1204891600    -2.6723030427    -0.4288885274
   15      N       7.5433379879    -2.6657715225     0.0867562336
   16      C       4.9122026891    -1.6929316402     0.9486301240
   17      S       4.8976180707    -3.4256365857     1.3460239595
   18      C       3.5852568180    -1.2833479311     1.1829863491
   19      C       3.2006173826    -3.5042751355     1.6829982061
   20      S       2.7920211397     0.3131024483     0.9291510780
   21      C       2.7147156887    -2.2758153550     1.6642602365
   22      C       2.4428415525    -4.6863163260     1.9419642567
   23      C       1.3064695765    -0.3886383495     1.6407903165
   24      C       1.4477453625    -1.7829136036     1.8988109900
   25      N       1.1854263926    -4.7526849670     1.5300172707
   26      S       3.0939556804    -6.1251234932     2.7216541489
   27      C       0.6006925683    -5.8885033141     2.0435199845
   28      C       1.4417978304    -6.7916484981     2.6117775974
   29      C      12.3451265355     4.7527978893    -1.3966508671
   30      H       9.6025053409     5.2158536776    -1.3334265072
   31      H       7.8252855062     3.4896805033    -0.9627988890
   32      H      10.9266538117     0.8204235967     0.3429526955
   33      H       6.7559040702     2.4501501367     0.6584015802
   34      H       0.3518490574     0.1192585892     1.6660165795
   35      H       0.6999949223    -2.4760617089     2.2662806940
   36      H      -0.4562274520    -6.0873437326     1.9219364383
   37      H       1.1904489212    -7.7027823749     3.1396116475
   38      H      12.5456039356     4.2103194780    -2.3296878360
   39      C      13.6741670604     4.9515360847    -0.5916630332
   40      H      11.9594961685     5.7384905407    -1.6824221342
   41      H      14.2149183947     4.0309788391    -0.3388897117
   42      H      13.5265128676     5.4387953847     0.3806875280
   43      C      14.6373135527     6.0105043138    -1.2979633405
   44      H      14.9713847675     5.7454072869    -2.3093218278
   45      C      15.8789159858     6.4701802221    -0.4244620770
   46      H      14.0023244590     6.8842303506    -1.4898426346
   47      H      16.4703073841     5.6412077569    -0.0165958417
   48      H      15.4990250831     6.9596916919     0.4804271002
   49      C      16.7692139484     7.4872793063    -1.2973939132
   50      H      17.2800962176     7.1589365800    -2.2102139179
   51      C      17.7790060672     8.1968089010    -0.3486855117
   52      H      16.0721726244     8.2814386062    -1.5922860952
   53      H      18.6246041336     7.6328297551     0.0647941529
   54      H      17.1956056464     8.5514714905     0.5096241042
   55      H      18.2440053271     9.1068260369    -0.7467263395
   56      C     -10.8714292940     4.4400882003     0.2583591223
   57      C     -11.3539866671     3.4227359752    -0.6081619864
   58      N      -9.6195894579     4.4741950553     0.7184838306
   59      C     -10.5661497639     2.3032139568    -1.0325974516
   60      C      -8.8498097674     3.3957640747     0.4450101608
   61      C      -9.2028929613     2.3531726064    -0.4801148515
   62      C      -8.1717189282     1.2004454476    -0.6973295170
   63      C      -7.1095118114     1.0767834972     0.1756588925
   64      C      -8.1933105355     0.2367754623    -1.7354046405
   65      N      -6.2199742037     0.0568707325     0.0915173638
   66      N      -9.0600905425     0.2584321899    -2.7881711890
   67      C      -7.2735715455    -0.8506369461    -1.7959310341
   68      C      -6.2687539642    -0.9057812311    -0.8498894197
   69      S      -8.7487641802    -1.0203671924    -3.6975875051
   70      N      -7.3814173794    -1.6254728478    -2.9324078712
   71      C      -5.2420064267    -1.9494630779    -0.7378997017
   72      S      -5.1241480783    -3.3541612642    -1.8427043972
   73      C      -4.3483539420    -2.1677779827     0.2453799324
   74      C      -3.6169266613    -3.8891205005    -1.1007534448
   75      S      -4.1615191045    -1.3646635701     1.7441757771
   76      C      -3.4062021052    -3.1504277800    -0.0096598530
   77      C      -2.8690239692    -4.9913391736    -1.6259701237
   78      C      -2.5520974369    -2.1844988570     1.8733578132
   79      C      -2.3723108900    -3.1851293119     0.9057579526
   80      N      -3.4856787069    -5.8066466838    -2.4123361951
   81      S      -1.2413837291    -5.4079272388    -1.1237723213
   82      C      -2.6422110593    -6.8173660690    -2.8301228055
   83      C      -1.3474624587    -6.6130604820    -2.3602395345
   84      C     -11.8540736198     5.4975204154     0.8209862097
   85      H     -12.3377452296     3.5458253668    -1.0508290084
   86      H     -10.9765237476     1.6210351317    -1.7717829792
   87      H      -7.8337578231     3.5407342529     0.8105072113
   88      H      -7.0073848275     1.7832439709     0.9980320914
   89      H      -1.9710459368    -1.9854198118     2.7639394703
   90      H      -1.6054319751    -3.9484074216     0.9769917725
   91      H      -3.0124598429    -7.6199004585    -3.4548814725
   92      H      -0.5206396431    -7.1745452975    -2.7732042227
   93      H     -11.3174148416     6.2612377080     1.3975998177
   94      C     -12.8518379786     4.7920712369     1.6954378899
   95      H     -12.3677867566     5.9384236915    -0.0424998146
   96      H     -12.2851015345     4.3966332269     2.5477239822
   97      H     -13.3661803316     3.9907937425     1.1496821562
   98      C     -13.9120136220     5.7164013137     2.2878427465
   99      H     -14.6305461447     5.2195268320     2.9509270273
  100      C     -14.7499130054     6.4580855767     1.1661105693
  101      H     -13.3941656708     6.4735818664     2.8892237489
  102      H     -15.4310038814     5.8724316893     0.5355174017
  103      H     -14.1584162281     7.0836293660     0.4853591242
  104      C     -15.6159133163     7.5322891138     1.9027890760
  105      H     -16.3972975935     6.9886973787     2.4474244007
  106      C     -16.2748608321     8.3391358273     0.7813469007
  107      H     -15.2002254628     8.1779182569     2.6859050432
  108      H     -15.4718344861     8.7630916924     0.1638769726
  109      H     -16.8457682975     9.1886868850     1.1748906292
  110      H     -16.8645720261     7.6810043482     0.1309357509
 ----------------------------------------------------------------

   11   -5663.4871667733      4.67E-06 Convergence criterion met
 Total energy in the final basis set = -5663.4871667733

                    Orbital Energies (a.u.)
 --------------------------------------------------------------

 Alpha MOs
 -- Occupied --
-88.990 -88.987 -88.933 -88.927 -88.925 -88.912 -88.908 -88.906
-14.396 -14.388 -14.387 -14.382 -14.360 -14.353 -14.343 -14.337
-14.331 -14.327 -10.278 -10.268 -10.261 -10.260 -10.259 -10.258
-10.257 -10.253 -10.247 -10.246 -10.237 -10.236 -10.236 -10.235
-10.235 -10.234 -10.232 -10.230 -10.229 -10.229 -10.228 -10.228
-10.228 -10.227 -10.227 -10.226 -10.224 -10.224 -10.222 -10.220
-10.220 -10.218 -10.203 -10.203 -10.201 -10.199 -10.196 -10.195
-10.195 -10.188 -10.187 -10.187 -10.184 -10.184 -10.181 -10.181
-10.178 -10.175 -10.170 -10.170  -8.045  -8.042  -7.994  -7.988
 -7.984  -7.971  -7.967  -7.966  -6.010  -6.007  -6.005  -6.003
 -6.002  -6.000  -5.957  -5.954  -5.952  -5.951  -5.949  -5.949
 -5.945  -5.945  -5.941  -5.935  -5.932  -5.932  -5.931  -5.928
 -5.927  -5.927  -5.924  -5.923  -1.040  -1.028  -0.978  -0.975
 -0.954  -0.940  -0.937  -0.930  -0.918  -0.918  -0.912  -0.896
 -0.840  -0.839  -0.832  -0.824  -0.811  -0.810  -0.808  -0.807
 -0.804  -0.799  -0.795  -0.792  -0.784  -0.781  -0.771  -0.767
 -0.752  -0.748  -0.742  -0.741  -0.720  -0.713  -0.709  -0.706
 -0.695  -0.690  -0.677  -0.671  -0.657  -0.649  -0.648  -0.646
 -0.640  -0.631  -0.623  -0.620  -0.613  -0.607  -0.600  -0.597
 -0.593  -0.593  -0.587  -0.585  -0.583  -0.579  -0.579  -0.567
 -0.559  -0.544  -0.537  -0.535  -0.528  -0.525  -0.518  -0.514
 -0.505  -0.504  -0.500  -0.493  -0.486  -0.481  -0.480  -0.472
 -0.470  -0.470  -0.469  -0.466  -0.462  -0.462  -0.455  -0.451
 -0.447  -0.445  -0.442  -0.440  -0.433  -0.432  -0.431  -0.429
 -0.428  -0.426  -0.422  -0.421  -0.419  -0.418  -0.416  -0.413
 -0.411  -0.410  -0.405  -0.402  -0.401  -0.401  -0.397  -0.396
 -0.394  -0.393  -0.389  -0.387  -0.385  -0.384  -0.382  -0.381
 -0.381  -0.377  -0.374  -0.372  -0.368  -0.363  -0.357  -0.356
 -0.355  -0.353  -0.350  -0.350  -0.348  -0.344  -0.340  -0.339
 -0.336  -0.335  -0.334  -0.333  -0.332  -0.329  -0.327  -0.324
 -0.320  -0.318  -0.316  -0.308  -0.306  -0.302  -0.301  -0.298
 -0.296  -0.293  -0.291  -0.288  -0.287  -0.284  -0.283  -0.281
 -0.279  -0.272  -0.267  -0.264  -0.259  -0.256  -0.249  -0.247
 -0.244  -0.237  -0.229  -0.228  -0.198  -0.190

          Ground-State Mulliken Net Atomic Charges

     Atom                 Charge (a.u.)
  ----------------------------------------
      1 C                     0.271262
      2 C                    -0.125584
      3 N                    -0.480793
      4 C                    -0.099078
      5 C                     0.084918
      6 C                     0.024777
      7 C                     0.062654
      8 C                     0.047411
      9 C                     0.223189
     10 N                    -0.523823
     11 N                    -0.540270
     12 C                     0.216698
     13 C                     0.282674
     14 S                     0.602859
     15 N                    -0.555267
     16 C                    -0.229604
     17 S                     0.319080
     18 C                    -0.130010
     19 C                    -0.222987
     20 S                     0.289221
     21 C                     0.202188
     22 C                     0.033024
     23 C                    -0.323255
     24 C                    -0.056236
     25 N                    -0.427737
     26 S                     0.266186
     27 C                     0.125499
     28 C                    -0.299487
     29 C                    -0.222335
     30 H                     0.085195
     31 H                     0.108253
     32 H                     0.117441
     33 H                     0.120501
     34 H                     0.134745
     35 H                     0.106031
     36 H                     0.118802
     37 H                     0.137167
     38 H                     0.134296
     39 C                    -0.179733
     40 H                     0.096552
     41 H                     0.118988
     42 H                     0.097202
     43 C                    -0.190216
     44 H                     0.093357
     45 C                    -0.179579
     46 H                     0.089281
     47 H                     0.098956
     48 H                     0.095910
     49 C                    -0.180917
     50 H                     0.101107
     51 C                    -0.325745
     52 H                     0.100562
     53 H                     0.102566
     54 H                     0.099526
     55 H                     0.094813
     56 C                     0.263102
     57 C                    -0.115961
     58 N                    -0.476716
     59 C                    -0.069707
     60 C                     0.058113
     61 C                     0.028260
     62 C                     0.074252
     63 C                     0.061269
     64 C                     0.192201
     65 N                    -0.555660
     66 N                    -0.542304
     67 C                     0.200581
     68 C                     0.317256
     69 S                     0.606159
     70 N                    -0.560066
     71 C                    -0.223394
     72 S                     0.327436
     73 C                    -0.101662
     74 C                    -0.235554
     75 S                     0.271165
     76 C                     0.179944
     77 C                     0.063463
     78 C                    -0.326340
     79 C                    -0.077458
     80 N                    -0.425473
     81 S                     0.293743
     82 C                     0.113553
     83 C                    -0.314567
     84 C                    -0.214929
     85 H                     0.087484
     86 H                     0.133471
     87 H                     0.107001
     88 H                     0.114426
     89 H                     0.123703
     90 H                     0.123513
     91 H                     0.119350
     92 H                     0.127593
     93 H                     0.114663
     94 C                    -0.174551
     95 H                     0.104000
     96 H                     0.099455
     97 H                     0.093361
     98 C                    -0.179512
     99 H                     0.094036
    100 C                    -0.178403
    101 H                     0.095572
    102 H                     0.094229
    103 H                     0.097883
    104 C                    -0.179975
    105 H                     0.090664
    106 C                    -0.318874
    107 H                     0.095548
    108 H                     0.099262
    109 H                     0.094071
    110 H                     0.101091
  ----------------------------------------
  Sum of atomic charges =     0.000000

                    Cartesian Multipole Moments
 -----------------------------------------------------------------
    Charge (ESU x 10^10)
                 0.0000
    Dipole Moment (Debye)
         X      -0.4930      Y      -1.7945      Z      -0.0028
       Tot       1.8610
    Quadrupole Moments (Debye-Ang)
        XX    -420.7546     XY       0.8114     YY    -405.1281
        XZ      -4.1113     YZ     -10.7468     ZZ    -439.7223

 Total job time:  96.66s(wall), 1129.04s(cpu)
        *  Thank you very much for using Q-Chem.  Have a nice day.  *
