 Q-Chem 4.4, Q-Chem, Inc., Pleasanton, CA (2016)
 Q-Chem 4.4.2 for Intel X86 Linux

User input:
--------------------------------------------------------------
$comment
SP
$end

$rem
MEM_STATIC 5000
MEM_TOTAL 20000
JOBTYPE SP
EXCHANGE B3LYP
BASIS 6-31g(d,p)
$end

$molecule
0 1
C          -5.641000     19.481000      6.805000
C          -5.977000     18.291000      7.373000
N          -6.180000     20.645000      7.173000
C          -6.921000     18.307000      8.408000
C          -7.087000     20.696000      8.183000
C          -7.680000     19.462000      8.753000
C          -8.772000     19.589000      9.747000
C          -9.729000     18.568000      9.886000
C          -8.806000     20.711000     10.619000
N         -10.787000     18.648000     10.690000
N          -7.905000     21.681000     10.784000
C          -9.853000     20.700000     11.584000
C         -10.937000     19.772000     11.437000
S          -8.395000     22.558000     12.090000
N          -9.769000     21.751000     12.524000
C         -12.108000     19.844000     12.367000
S         -12.288000     20.811000     13.863000
C         -13.352000     19.324000     12.071000
C         -14.027000     20.489000     14.032000
S         -13.811000     18.161000     10.784000
C         -14.404000     19.624000     12.981000
C         -14.889000     20.924000     15.107000
C         -15.466000     18.109000     11.544000
C         -15.608000     18.847000     12.720000
N         -16.145000     20.724000     15.107000
S         -14.191000     21.829000     16.409000
C         -16.695000     21.433000     16.069000
C         -15.817000     22.014000     16.931000
C          -4.466000     19.557000      5.885000
H          -5.440000     17.408000      7.036000
H          -7.272000     17.406000      8.901000
H          -7.628000     21.613000      8.411000
H          -9.657000     17.734000      9.189000
H         -16.208000     17.379000     11.247000
H         -16.515000     18.734000     13.303000
H         -17.771000     21.512000     16.141000
H         -16.019000     22.730000     17.717000
H          -4.420000     18.618000      5.321000
C          -3.118000     19.884000      6.699000
H          -4.702000     20.346000      5.160000
H          -3.124000     20.967000      6.872000
H          -2.195000     19.737000      6.125000
C          -2.950000     19.174000      8.094000
H          -3.869000     19.272000      8.686000
C          -1.777000     19.784000      8.962000
H          -2.799000     18.095000      7.965000
H          -1.905000     20.873000      8.985000
H          -0.761000     19.493000      8.665000
C          -1.909000     19.287000     10.389000
H          -2.862000     19.515000     10.881000
C          -0.809000     19.868000     11.307000
H          -1.881000     18.191000     10.364000
H          -0.718000     19.215000     12.183000
H          -1.157000     20.849000     11.652000
H           0.102000     19.958000     10.702000
C         -15.151000     14.807000      8.953000
C         -14.488000     15.459000      7.901000
N         -16.344000     15.245000      9.404000
C         -15.027000     16.618000      7.274000
C         -16.926000     16.281000      8.670000
C         -16.329000     17.007000      7.625000
C         -16.983000     18.123000      6.985000
C         -18.354000     18.060000      6.587000
C         -16.308000     19.384000      6.634000
N         -19.015000     19.044000      5.826000
N         -15.097000     19.665000      7.032000
C         -16.953000     20.315000      5.839000
C         -18.275000     20.144000      5.463000
S         -14.816000     21.152000      6.370000
N         -16.187000     21.365000      5.503000
C         -18.941000     21.217000      4.669000
S         -18.641000     23.003000      4.691000
C         -19.633000     20.895000      3.513000
C         -19.692000     23.286000      3.317000
S         -19.691000     19.442000      2.718000
C         -20.044000     22.029000      2.788000
C         -19.895000     24.585000      2.577000
C         -20.285000     20.329000      1.290000
C         -20.452000     21.645000      1.466000
N         -20.614000     24.733000      1.447000
S         -19.487000     26.103000      3.434000
C         -20.545000     25.991000      1.049000
C         -20.042000     26.859000      2.008000
C         -14.559000     13.587000      9.775000
H         -13.485000     15.172000      7.599000
H         -14.436000     17.154000      6.537000
H         -17.909000     16.644000      8.966000
H         -18.879000     17.132000      6.808000
H         -20.537000     19.778000      0.394000
H         -20.687000     22.334000      0.663000
H         -20.846000     26.222000      0.035000
H         -20.083000     27.931000      1.863000
H         -13.563000     13.353000      9.379000
C         -15.442000     12.274000      9.763000
H         -14.299000     13.828000     10.813000
H         -14.726000     11.445000      9.701000
H         -15.872000     12.163000      8.760000
C         -16.386000     12.120000     10.888000
H         -16.930000     13.064000     11.016000
C         -15.635000     11.661000     12.197000
H         -17.207000     11.427000     10.664000
H         -14.650000     12.122000     12.345000
H         -15.318000     10.613000     12.131000
C         -16.410000     11.709000     13.425000
H         -16.821000     12.697000     13.666000
C         -15.603000     11.280000     14.674000
H         -17.243000     11.018000     13.247000
H         -15.476000     10.192000     14.715000
H         -16.082000     11.526000     15.630000
H         -14.590000     11.699000     14.673000
$end

--------------------------------------------------------------

             Standard Nuclear Orientation (Angstroms)
    I     Atom           X                Y                Z
 ----------------------------------------------------------------
    1      C       5.9654403834    -5.1885355354     2.4245432156
    2      C       6.1730721907    -3.9816633195     3.0178125365
    3      N       5.4688971132    -5.3222422910     1.1931179096
    4      C       5.8654874391    -2.8315856557     2.2793479214
    5      C       5.1743594766    -4.2266811402     0.4458941509
    6      C       5.1713966058    -2.8660942829     1.0358938331
    7      C       4.6969672840    -1.7313435484     0.2089194748
    8      C       4.1344946019    -0.5949165437     0.8170059365
    9      C       4.8843787634    -1.7575238038    -1.1998443562
   10      N       3.6055847793     0.4225371828     0.1408237761
   11      N       5.5558988319    -2.6353309679    -1.9471337113
   12      C       4.4597602884    -0.5877728610    -1.8918970151
   13      C       3.6328197000     0.3697637060    -1.2157742554
   14      S       5.6092775812    -2.0093992240    -3.4703622435
   15      N       4.7941078898    -0.5879511852    -3.2642922386
   16      C       3.0699397791     1.5317998058    -1.9735098936
   17      S       3.4639114401     2.0798957328    -3.6317867659
   18      C       1.9587818648     2.2429912607    -1.5672011391
   19      C       2.1188276121     3.2370098547    -3.7223538933
   20      S       1.1561494171     2.2610616211     0.0375024522
   21      C       1.4459138183     3.2057440293    -2.4809174373
   22      C       1.8235622606     4.1400009664    -4.8110776527
   23      C       0.1199185944     3.6197591689    -0.5945542351
   24      C       0.4332695738     4.0631804286    -1.8802341137
   25      N       0.7868399203     4.8763642030    -4.8337044723
   26      S       2.8852820889     4.1563605158    -6.1799883040
   27      C       0.6529502532     5.3965167878    -6.0345957436
   28      C       1.7146914424     5.2104312663    -6.8649973488
   29      C       6.5093301262    -6.4281706338     3.0572277899
   30      H       6.6311885064    -3.9825156018     4.0035892429
   31      H       5.9706694309    -1.8278208411     2.6786522484
   32      H       4.6536680167    -4.3153065318    -0.5062507664
   33      H       4.0114340608    -0.6312247885     1.8987114484
   34      H      -0.5239592191     4.1971350032     0.0563923888
   35      H      -0.0382650105     4.9656134853    -2.2524930476
   36      H      -0.2463709857     5.9361363001    -6.2977175617
   37      H       1.7915586922     5.4362935346    -7.9206173854
   38      H       6.4479268254    -6.3046242472     4.1448393589
   39      C       7.9962971426    -6.7389774944     2.5290638122
   40      H       5.8104617440    -7.2319526231     2.7938658755
   41      H       7.8756287952    -7.2227962030     1.5522257462
   42      H       8.5337673112    -7.4988619290     3.1093357002
   43      C       8.9476148825    -5.4991879904     2.3386286697
   44      H       8.4313242338    -4.7020739808     1.7884630383
   45      C      10.2590762409    -5.8442392687     1.5247111550
   46      H       9.2128362094    -5.0604744099     3.3086137428
   47      H       9.9602345520    -6.3705324660     0.6100838454
   48      H      11.0369798275    -6.3859529252     2.0783882489
   49      C      10.9302632774    -4.5522111707     1.0993485379
   50      H      10.3124390978    -3.8770114159     0.4954813553
   51      C      12.2089329074    -4.8115170166     0.2698610723
   52      H      11.1439491281    -3.9735820441     2.0060743459
   53      H      12.8320858131    -3.9106220231     0.3160635269
   54      H      11.8981941935    -4.9538894154    -0.7720897671
   55      H      12.6774473910    -5.7178037235     0.6738221887
   56      C      -0.2599120531     3.5733460005     3.5970187986
   57      C      -0.3238070439     2.1805147338     3.7622927916
   58      N      -1.1414534616     4.2239841452     2.8108580328
   59      C      -1.3022628001     1.3871376468     3.0988863317
   60      C      -2.1859294105     3.4491421589     2.3014800903
   61      C      -2.3164717847     2.0526909971     2.3930925422
   62      C      -3.3916112055     1.3318033382     1.7549952071
   63      C      -4.7449984305     1.7842783869     1.8299842034
   64      C      -3.2172605950     0.0611972675     1.0310414256
   65      N      -5.8605229697     1.0596880209     1.3664415364
   66      N      -2.0407887753    -0.4328105017     0.7558026540
   67      C      -4.3258453517    -0.6645337910     0.6320862051
   68      C      -5.6067805250    -0.1617703777     0.7893599545
   69      S      -2.3957538336    -1.8399760896    -0.0330311787
   70      N      -4.0275674081    -1.8531655977     0.0840563735
   71      C      -6.7589862728    -0.9553132092     0.2716412186
   72      S      -6.8208695697    -2.0827428571    -1.1444635962
   73      C      -7.8521189382    -1.2015159355     1.0860914586
   74      C      -8.4380848117    -2.6316764411    -0.7496816546
   75      S      -8.0198315928    -0.8942901463     2.7059935482
   76      C      -8.7641174762    -2.1099570471     0.5173248867
   77      C      -9.2099679997    -3.7453545956    -1.4131025709
   78      C      -9.3838888375    -2.0423876357     2.7089915662
   79      C      -9.6836345747    -2.5735817061     1.5178969635
   80      N     -10.4001366107    -4.2220566670    -0.9983510639
   81      S      -8.7249807682    -4.2216502252    -3.0693534150
   82      C     -10.7660174488    -5.2206409449    -1.7823725254
   83      C     -10.0306020039    -5.3150127277    -2.9555613806
   84      C       0.8697072352     4.5040751409     4.2071429915
   85      H       0.4398217249     1.6397197372     4.3136491874
   86      H      -1.2534754305     0.3043442459     3.1690592867
   87      H      -2.9493740775     3.9337426169     1.6948594209
   88      H      -4.9155596955     2.7085705726     2.3797503448
   89      H      -9.9325831059    -2.2072152068     3.6264268346
   90      H     -10.4010783618    -3.3742072345     1.3799543103
   91      H     -11.5579002604    -5.8743141569    -1.4391656715
   92      H     -10.3334729066    -5.9870128569    -3.7483886270
   93      H       1.5719756938     3.8747213039     4.7677861578
   94      C       0.3509983479     5.6654430022     5.1484016067
   95      H       1.5512487177     4.9317744675     3.4616904486
   96      H       1.0856140061     5.7285639215     5.9608648886
   97      H      -0.4828122217     5.2734056089     5.7436298120
   98      C       0.1184011670     6.9699351384     4.4967300499
   99      H      -0.4583539438     6.8012172603     3.5789371431
  100      C       1.4800697398     7.7227522486     4.2373305575
  101      H      -0.5643931569     7.6146698374     5.0646869841
  102      H       2.3088975295     7.0747419374     3.9246372071
  103      H       1.9120402447     8.1035494827     5.1708957397
  104      C       1.4046979797     8.8994156217     3.3883927481
  105      H       0.9883537621     8.7152705359     2.3904478198
  106      C       2.7795907783     9.5677356771     3.1469199839
  107      H       0.7336002367     9.5796376162     3.9268905268
  108      H       3.1084501453    10.1365806125     4.0243143971
  109      H       2.7887617244    10.3059105525     2.3351892729
  110      H       3.5677842294     8.8299326202     2.9568443865
 ----------------------------------------------------------------

   10   -5663.4836923493      5.66E-06 Convergence criterion met
 Total energy in the final basis set = -5663.4836923493

                    Orbital Energies (a.u.)
 --------------------------------------------------------------

 Alpha MOs
 -- Occupied --
-88.993 -88.987 -88.930 -88.927 -88.922 -88.922 -88.905 -88.904
-14.398 -14.393 -14.387 -14.386 -14.359 -14.355 -14.346 -14.341
-14.337 -14.326 -10.278 -10.271 -10.264 -10.264 -10.263 -10.262
-10.257 -10.253 -10.246 -10.246 -10.243 -10.242 -10.240 -10.240
-10.240 -10.234 -10.231 -10.230 -10.230 -10.228 -10.227 -10.224
-10.224 -10.223 -10.221 -10.220 -10.219 -10.218 -10.217 -10.217
-10.217 -10.214 -10.212 -10.207 -10.206 -10.196 -10.196 -10.192
-10.191 -10.186 -10.186 -10.180 -10.178 -10.177 -10.171 -10.171
-10.170 -10.169 -10.168 -10.168  -8.048  -8.043  -7.991  -7.986
 -7.985  -7.980  -7.968  -7.962  -6.014  -6.009  -6.008  -6.006
 -6.003  -6.001  -5.955  -5.952  -5.950  -5.948  -5.948  -5.946
 -5.945  -5.945  -5.942  -5.942  -5.941  -5.937  -5.932  -5.929
 -5.927  -5.924  -5.923  -5.918  -1.049  -1.030  -0.999  -0.974
 -0.961  -0.943  -0.936  -0.934  -0.919  -0.912  -0.904  -0.895
 -0.846  -0.837  -0.832  -0.828  -0.816  -0.813  -0.808  -0.807
 -0.805  -0.800  -0.793  -0.793  -0.785  -0.780  -0.767  -0.766
 -0.746  -0.743  -0.742  -0.732  -0.720  -0.713  -0.707  -0.706
 -0.690  -0.690  -0.674  -0.672  -0.656  -0.655  -0.651  -0.646
 -0.639  -0.633  -0.628  -0.627  -0.612  -0.610  -0.599  -0.596
 -0.590  -0.587  -0.578  -0.576  -0.572  -0.570  -0.567  -0.566
 -0.551  -0.545  -0.540  -0.539  -0.525  -0.525  -0.512  -0.510
 -0.506  -0.505  -0.503  -0.499  -0.492  -0.485  -0.479  -0.478
 -0.473  -0.472  -0.471  -0.466  -0.465  -0.461  -0.451  -0.445
 -0.443  -0.440  -0.440  -0.434  -0.430  -0.429  -0.428  -0.426
 -0.425  -0.422  -0.418  -0.418  -0.417  -0.414  -0.413  -0.412
 -0.411  -0.409  -0.404  -0.402  -0.401  -0.401  -0.398  -0.398
 -0.393  -0.392  -0.390  -0.388  -0.386  -0.385  -0.381  -0.379
 -0.376  -0.374  -0.370  -0.370  -0.368  -0.363  -0.356  -0.355
 -0.352  -0.351  -0.349  -0.348  -0.346  -0.343  -0.342  -0.338
 -0.337  -0.332  -0.332  -0.328  -0.327  -0.324  -0.322  -0.322
 -0.319  -0.315  -0.313  -0.306  -0.303  -0.303  -0.302  -0.301
 -0.299  -0.298  -0.296  -0.294  -0.287  -0.286  -0.283  -0.282
 -0.280  -0.279  -0.273  -0.268  -0.260  -0.250  -0.248  -0.245
 -0.242  -0.240  -0.234  -0.227  -0.192  -0.191

          Ground-State Mulliken Net Atomic Charges

     Atom                 Charge (a.u.)
  ----------------------------------------
      1 C                     0.269370
      2 C                    -0.089344
      3 N                    -0.483071
      4 C                    -0.096063
      5 C                     0.094980
      6 C                     0.009671
      7 C                     0.032677
      8 C                     0.072819
      9 C                     0.258171
     10 N                    -0.482204
     11 N                    -0.565049
     12 C                     0.160754
     13 C                     0.262616
     14 S                     0.616364
     15 N                    -0.538241
     16 C                    -0.212721
     17 S                     0.321275
     18 C                    -0.133802
     19 C                    -0.252790
     20 S                     0.275598
     21 C                     0.146177
     22 C                     0.096791
     23 C                    -0.308300
     24 C                    -0.059599
     25 N                    -0.418894
     26 S                     0.262943
     27 C                     0.127929
     28 C                    -0.312329
     29 C                    -0.231168
     30 H                     0.094272
     31 H                     0.086325
     32 H                     0.112506
     33 H                     0.114676
     34 H                     0.138831
     35 H                     0.128287
     36 H                     0.109268
     37 H                     0.127981
     38 H                     0.089284
     39 C                    -0.180548
     40 H                     0.115889
     41 H                     0.112453
     42 H                     0.094770
     43 C                    -0.188027
     44 H                     0.111435
     45 C                    -0.170919
     46 H                     0.085143
     47 H                     0.096768
     48 H                     0.092112
     49 C                    -0.181546
     50 H                     0.092714
     51 C                    -0.317510
     52 H                     0.087143
     53 H                     0.100837
     54 H                     0.105545
     55 H                     0.099289
     56 C                     0.278582
     57 C                    -0.130484
     58 N                    -0.484565
     59 C                    -0.053350
     60 C                     0.051549
     61 C                     0.061613
     62 C                     0.034206
     63 C                     0.044057
     64 C                     0.234518
     65 N                    -0.503478
     66 N                    -0.546389
     67 C                     0.245136
     68 C                     0.225944
     69 S                     0.590551
     70 N                    -0.548539
     71 C                    -0.199758
     72 S                     0.324240
     73 C                    -0.093961
     74 C                    -0.220747
     75 S                     0.265069
     76 C                     0.102629
     77 C                     0.055806
     78 C                    -0.308138
     79 C                    -0.034672
     80 N                    -0.414790
     81 S                     0.279955
     82 C                     0.130971
     83 C                    -0.314637
     84 C                    -0.230547
     85 H                     0.093275
     86 H                     0.114387
     87 H                     0.104185
     88 H                     0.119086
     89 H                     0.122774
     90 H                     0.131132
     91 H                     0.114277
     92 H                     0.125715
     93 H                     0.090024
     94 C                    -0.172798
     95 H                     0.127550
     96 H                     0.090944
     97 H                     0.088590
     98 C                    -0.176684
     99 H                     0.123758
    100 C                    -0.169497
    101 H                     0.087028
    102 H                     0.085461
    103 H                     0.086787
    104 C                    -0.164631
    105 H                     0.094558
    106 C                    -0.329578
    107 H                     0.090856
    108 H                     0.099028
    109 H                     0.099710
    110 H                     0.101753
  ----------------------------------------
  Sum of atomic charges =     0.000000

                    Cartesian Multipole Moments
 -----------------------------------------------------------------
    Charge (ESU x 10^10)
                 0.0000
    Dipole Moment (Debye)
         X       0.9183      Y      -1.7353      Z      -0.3538
       Tot       1.9949
    Quadrupole Moments (Debye-Ang)
        XX    -439.1623     XY      22.8520     YY    -443.2515
        XZ      10.7152     YZ      -6.4007     ZZ    -402.2328

 Total job time:  90.04s(wall), 1058.17s(cpu)
        *  Thank you very much for using Q-Chem.  Have a nice day.  *
