 Q-Chem 4.4, Q-Chem, Inc., Pleasanton, CA (2016)
 Q-Chem 4.4.2 for Intel X86 Linux

User input:
--------------------------------------------------------------
$comment
SP
$end

$rem
MEM_STATIC 5000
MEM_TOTAL 20000
JOBTYPE SP
EXCHANGE B3LYP
BASIS 6-31g(d,p)
$end

$molecule
0 1
C          -3.038000     -9.574000      0.606000
C          -2.540000     -9.281000     -0.673000
N          -3.943000     -8.802000      1.235000
C          -2.972000     -8.093000     -1.304000
C          -4.388000     -7.719000      0.578000
C          -3.915000     -7.279000     -0.675000
C          -4.503000     -6.090000     -1.274000
C          -5.886000     -5.839000     -1.307000
C          -3.743000     -5.083000     -1.970000
N          -6.510000     -4.800000     -1.967000
N          -2.399000     -5.118000     -2.185000
C          -4.278000     -3.960000     -2.512000
C          -5.717000     -3.839000     -2.513000
S          -1.927000     -3.711000     -2.870000
N          -3.343000     -3.128000     -3.096000
C          -6.380000     -2.746000     -3.292000
S          -5.512000     -1.432000     -4.050000
C          -7.723000     -2.508000     -3.400000
C          -6.988000     -0.607000     -4.626000
S          -9.110000     -3.354000     -2.689000
C          -8.051000     -1.367000     -4.137000
C          -7.170000      0.649000     -5.306000
C         -10.161000     -2.107000     -3.409000
C          -9.513000     -1.140000     -4.087000
N          -8.387000      0.859000     -5.937000
S          -6.149000      2.091000     -5.169000
C          -8.543000      2.164000     -6.305000
C          -7.459000      2.953000     -6.005000
C          -2.573000    -10.759000      1.467000
H          -1.806000     -9.907000     -1.173000
H          -2.642000     -7.848000     -2.310000
H          -5.214000     -7.170000      1.028000
H          -6.522000     -6.522000     -0.746000
H         -11.231000     -2.201000     -3.281000
H         -10.086000     -0.371000     -4.593000
H          -9.441000      2.530000     -6.785000
H          -7.316000      4.011000     -6.180000
H          -1.540000    -10.925000      1.137000
C          -3.392000    -12.050000      1.311000
H          -2.538000    -10.475000      2.526000
H          -2.700000    -12.850000      1.600000
H          -3.532000    -12.253000      0.242000
C          -4.708000    -12.076000      2.242000
H          -4.394000    -11.922000      3.282000
C          -5.525000    -13.467000      2.299000
H          -5.217000    -11.138000      1.988000
H          -4.959000    -14.265000      2.795000
H          -5.755000    -13.800000      1.279000
C          -6.762000    -13.255000      3.135000
H          -7.141000    -14.262000      3.348000
C          -7.832000    -12.280000      2.599000
H          -6.567000    -12.957000      4.173000
H          -8.591000    -12.140000      3.380000
H          -8.346000    -12.760000      1.758000
H          -7.518000    -11.307000      2.201000
C         -21.666000      0.133000    -13.272000
C         -20.822000     -0.810000    -13.846000
N         -21.145000      1.159000    -12.560000
C         -19.404000     -0.751000    -13.655000
C         -19.810000      1.243000    -12.463000
C         -18.901000      0.299000    -12.924000
C         -17.420000      0.339000    -12.667000
C         -16.544000     -0.412000    -13.466000
C         -16.846000      0.907000    -11.581000
N         -15.235000     -0.648000    -13.155000
N         -17.505000      1.691000    -10.687000
C         -15.519000      0.640000    -11.161000
C         -14.668000     -0.175000    -12.000000
S         -16.409000      2.176000     -9.587000
N         -15.194000      1.130000    -10.011000
C         -13.378000     -0.694000    -11.617000
S         -12.688000     -0.784000    -10.072000
C         -12.594000     -1.419000    -12.490000
C         -11.156000     -1.243000    -10.741000
S         -12.853000     -1.851000    -14.159000
C         -11.324000     -1.690000    -12.001000
C          -9.935000     -1.317000     -9.988000
C         -11.227000     -2.477000    -14.210000
C         -10.540000     -2.409000    -13.011000
N          -8.843000     -1.771000    -10.626000
S          -9.711000     -0.754000     -8.369000
C          -7.796000     -1.700000     -9.693000
C          -8.054000     -1.285000     -8.418000
C         -23.193000     -0.027000    -13.374000
H         -21.295000     -1.668000    -14.315000
H         -18.831000     -1.643000    -13.891000
H         -19.431000      2.212000    -12.143000
H         -16.854000     -0.832000    -14.422000
H         -10.927000     -2.770000    -15.208000
H          -9.512000     -2.731000    -12.881000
H          -6.823000     -2.085000     -9.967000
H          -7.458000     -1.287000     -7.515000
H         -23.380000     -0.702000    -14.218000
C         -23.828000      1.404000    -13.617000
H         -23.621000     -0.528000    -12.497000
H         -23.728000      1.754000    -14.652000
H         -23.439000      2.108000    -12.871000
C         -25.355000      1.335000    -13.324000
H         -25.769000      0.495000    -13.895000
C         -26.188000      2.644000    -13.635000
H         -25.510000      1.111000    -12.261000
H         -26.168000      2.963000    -14.685000
H         -25.730000      3.490000    -13.107000
C         -27.677000      2.436000    -13.225000
H         -28.003000      1.442000    -13.554000
C         -28.478000      3.663000    -13.705000
H         -27.885000      2.327000    -12.153000
H         -29.303000      3.977000    -13.055000
H         -28.821000      3.498000    -14.734000
H         -27.807000      4.508000    -13.902000
$end

--------------------------------------------------------------

             Standard Nuclear Orientation (Angstroms)
    I     Atom           X                Y                Z
 ----------------------------------------------------------------
    1      C     -12.8160970494     2.5856693022    -0.7915469434
    2      C     -12.3467674757     1.6178855310    -1.6931113191
    3      N     -12.2152398228     2.8450030337     0.3841939332
    4      C     -11.2222442730     0.8469103455    -1.3227414632
    5      C     -11.1064276698     2.1456196320     0.6739549843
    6      C     -10.5775919193     1.1011944404    -0.1114409465
    7      C      -9.3565308689     0.4392365535     0.3234011713
    8      C      -8.2297019842     1.1266895254     0.8075954256
    9      C      -9.1369874722    -0.9816270786     0.2284683753
   10      N      -7.0048436673     0.5695868431     1.1139542104
   11      N     -10.0130195265    -1.8812132578    -0.2979331313
   12      C      -8.0120345456    -1.6113093727     0.6516694167
   13      C      -6.9117021167    -0.7874022196     1.0941720143
   14      S      -9.4367141395    -3.3929160094    -0.0649419472
   15      N      -8.0504537138    -2.9821447050     0.4878418872
   16      C      -5.5705211288    -1.3991884863     1.3549595167
   17      S      -5.2783165179    -3.1222108408     1.3748198150
   18      C      -4.4355526329    -0.7544412738     1.7649650599
   19      C      -3.5583679262    -2.9642672083     1.8306790595
   20      S      -4.1432143028     0.9560332377     2.1307809234
   21      C      -3.3451684513    -1.5959385533     2.0007163379
   22      C      -2.5633796648    -3.9572436446     2.1422174304
   23      C      -2.4926892698     0.5034272704     2.6297047189
   24      C      -2.2165069368    -0.8127838383     2.5523184392
   25      N      -1.2358391252    -3.5571076805     2.1125977411
   26      S      -2.8402098905    -5.5495759533     2.8691402908
   27      C      -0.4175354499    -4.4903043770     2.6803195223
   28      C      -1.0808586395    -5.6136360532     3.1112548903
   29      C     -14.0935912066     3.4148741785    -0.9969707773
   30      H     -12.8397777205     1.4110429585    -2.6390442177
   31      H     -10.8023796865     0.1145788899    -2.0071137071
   32      H     -10.5470726268     2.4460813203     1.5588401236
   33      H      -8.3405937672     2.1978043537     0.9692185584
   34      H      -1.8171959462     1.2886045952     2.9416748109
   35      H      -1.2186550241    -1.1611619888     2.7944965233
   36      H       0.6504027426    -4.3459732658     2.7774614148
   37      H      -0.6844589232    -6.4967120498     3.5944546927
   38      H     -14.7267137534     2.7614667891    -1.6099631299
   39      C     -13.8965394337     4.7687128187    -1.6970204435
   40      H     -14.6095628350     3.5700515070    -0.0414315183
   41      H     -14.8707185342     4.9868978526    -2.1506231012
   42      H     -13.2672319233     4.6202786326    -2.5833100969
   43      C     -13.4687308357     5.9453265537    -0.6812188280
   44      H     -14.2277016503     6.0076156753     0.1087149464
   45      C     -13.4315043191     7.4421352869    -1.2843745316
   46      H     -12.5958682757     5.5286650026    -0.1635846877
   47      H     -14.4296060042     7.8114432028    -1.5500447960
   48      H     -12.8134001398     7.4576021992    -2.1909598823
   49      C     -12.9173870741     8.3709298161    -0.2133781819
   50      H     -13.1430460188     9.3810594613    -0.5763866399
   51      C     -11.4603180750     8.1831753022     0.2604563610
   52      H     -13.5333376072     8.4080802309     0.6940896067
   53      H     -11.2925349265     8.8407524129     1.1236383572
   54      H     -10.7912641775     8.5425394249    -0.5301771252
   55      H     -11.0954651514     7.1722994768     0.4812309290
   56      C      12.3563541795     2.7353145098    -0.4011337775
   57      C      11.7040793947     2.6520348843    -1.6253327438
   58      N      11.9626428592     1.9487207255     0.6271281613
   59      C      10.5802132381     1.7840020831    -1.8100755872
   60      C      10.9621699067     1.0826224895     0.4089133197
   61      C      10.1980731046     0.9988808686    -0.7482735355
   62      C       8.9835602015     0.1275095394    -0.9116149408
   63      C       8.5079704701    -0.1880002717    -2.1938184997
   64      C       8.1656052832    -0.2441081547     0.1004848770
   65      N       7.2839687244    -0.7410789987    -2.4424580949
   66      N       8.4411613347    -0.0548028876     1.4182122305
   67      C       6.8550532218    -0.7486754806    -0.0905206415
   68      C       6.3960376143    -1.0182936201    -1.4354956341
   69      S       7.2014856689    -0.6934595565     2.2559251306
   70      N       6.1536242782    -0.8867217010     0.9851957143
   71      C       5.0376757528    -1.3384226156    -1.7995292581
   72      S       3.6252807325    -1.1666210207    -0.8792849870
   73      C       4.6811503692    -1.6399565797    -3.0973647328
   74      C       2.7068782324    -2.0519416225    -2.0531718128
   75      S       5.6495254429    -1.7666866848    -4.5414752539
   76      C       3.3718342112    -2.0814610810    -3.2247498716
   77      C       1.3591870248    -2.5055538252    -1.8499714723
   78      C       4.2496361523    -2.3779336218    -5.3811419474
   79      C       3.0949926059    -2.4354623359    -4.6210875231
   80      N       0.7473782298    -3.1057960804    -2.8848739960
   81      S       0.4944965940    -2.4649050384    -0.3536546158
   82      C      -0.5194634349    -3.4863452446    -2.4136696558
   83      C      -0.8931052069    -3.1606545862    -1.1413758921
   84      C      13.4713568156     3.7733034974    -0.1841522503
   85      H      11.9892226370     3.3779564811    -2.3813652607
   86      H       9.9548145649     1.9556702696    -2.6813364742
   87      H      10.8722457627     0.2867461070     1.1461354246
   88      H       9.1154220244    -0.0393659294    -3.0856404783
   89      H       4.4824052552    -2.7167305914    -6.3825849853
   90      H       2.1463292700    -2.8156655507    -4.9855753700
   91      H      -1.2235501167    -3.9308062683    -3.1041378614
   92      H      -1.8404891692    -3.2167985971    -0.6218179281
   93      H      13.8285093287     4.0600574720    -1.1807184751
   94      C      14.6177085632     3.0993279137     0.6770501553
   95      H      13.0988096861     4.6988737678     0.2717450088
   96      H      15.2623044890     2.4293164594     0.0945505900
   97      H      14.1790275715     2.6305245985     1.5665643144
   98      C      15.5441407161     4.2137508612     1.2446098088
   99      H      15.8505506165     4.8540337383     0.4084352994
  100      C      16.8275208678     3.7250192384     2.0308462791
  101      H      14.9719056034     4.8412656365     1.9395502254
  102      H      17.5273886494     3.1216124193     1.4386078990
  103      H      16.5154656624     3.0376636480     2.8273560663
  104      C      17.6071761259     4.9527906192     2.5904891251
  105      H      17.6538689455     5.7293307713     1.8175996292
  106      C      18.9314291889     4.4409284966     3.1920545768
  107      H      17.1123897848     5.5374470123     3.3764232054
  108      H      19.2877098676     4.9736979022     4.0814036862
  109      H      19.7012394459     4.4084170668     2.4109974886
  110      H      18.8726285950     3.3641672532     3.3925607237
 ----------------------------------------------------------------

    9   -5663.5182887675      8.99E-06 Convergence criterion met
 Total energy in the final basis set = -5663.5182887675

                    Orbital Energies (a.u.)
 --------------------------------------------------------------

 Alpha MOs
 -- Occupied --
-89.002 -88.979 -88.939 -88.930 -88.919 -88.915 -88.909 -88.902
-14.387 -14.376 -14.375 -14.372 -14.363 -14.355 -14.346 -14.338
-14.333 -14.324 -10.285 -10.276 -10.260 -10.259 -10.258 -10.257
-10.251 -10.248 -10.248 -10.248 -10.245 -10.239 -10.238 -10.237
-10.233 -10.233 -10.232 -10.232 -10.230 -10.230 -10.225 -10.222
-10.220 -10.219 -10.219 -10.219 -10.217 -10.216 -10.216 -10.215
-10.215 -10.208 -10.207 -10.206 -10.201 -10.198 -10.195 -10.195
-10.190 -10.185 -10.183 -10.181 -10.180 -10.176 -10.175 -10.175
-10.175 -10.172 -10.169 -10.168  -8.058  -8.034  -7.999  -7.989
 -7.981  -7.977  -7.969  -7.962  -6.023  -6.017  -6.016  -6.000
 -5.994  -5.992  -5.963  -5.960  -5.956  -5.953  -5.949  -5.945
 -5.945  -5.941  -5.940  -5.937  -5.937  -5.934  -5.933  -5.930
 -5.926  -5.925  -5.923  -5.919  -1.054  -1.035  -0.963  -0.956
 -0.956  -0.946  -0.944  -0.935  -0.918  -0.915  -0.904  -0.899
 -0.847  -0.845  -0.839  -0.834  -0.820  -0.806  -0.802  -0.801
 -0.799  -0.797  -0.795  -0.792  -0.785  -0.777  -0.773  -0.760
 -0.748  -0.744  -0.736  -0.736  -0.729  -0.723  -0.709  -0.703
 -0.694  -0.690  -0.680  -0.670  -0.657  -0.653  -0.650  -0.642
 -0.640  -0.631  -0.630  -0.620  -0.619  -0.603  -0.601  -0.593
 -0.588  -0.583  -0.580  -0.580  -0.578  -0.578  -0.568  -0.564
 -0.554  -0.546  -0.544  -0.536  -0.529  -0.520  -0.515  -0.511
 -0.507  -0.505  -0.503  -0.493  -0.493  -0.484  -0.481  -0.475
 -0.475  -0.471  -0.468  -0.462  -0.458  -0.454  -0.451  -0.444
 -0.441  -0.439  -0.436  -0.435  -0.432  -0.431  -0.431  -0.430
 -0.427  -0.427  -0.421  -0.421  -0.419  -0.415  -0.414  -0.414
 -0.412  -0.409  -0.406  -0.405  -0.402  -0.399  -0.398  -0.397
 -0.394  -0.394  -0.393  -0.389  -0.389  -0.388  -0.384  -0.379
 -0.376  -0.374  -0.370  -0.365  -0.360  -0.358  -0.356  -0.354
 -0.352  -0.351  -0.350  -0.348  -0.347  -0.345  -0.343  -0.339
 -0.338  -0.336  -0.334  -0.329  -0.328  -0.324  -0.322  -0.317
 -0.312  -0.309  -0.308  -0.308  -0.304  -0.301  -0.299  -0.297
 -0.293  -0.291  -0.291  -0.288  -0.288  -0.284  -0.279  -0.279
 -0.275  -0.274  -0.266  -0.260  -0.257  -0.254  -0.251  -0.248
 -0.245  -0.240  -0.240  -0.227  -0.203  -0.189

          Ground-State Mulliken Net Atomic Charges

     Atom                 Charge (a.u.)
  ----------------------------------------
      1 C                     0.269443
      2 C                    -0.125154
      3 N                    -0.474615
      4 C                    -0.049410
      5 C                     0.069872
      6 C                     0.049858
      7 C                     0.040262
      8 C                     0.055889
      9 C                     0.230203
     10 N                    -0.523517
     11 N                    -0.577773
     12 C                     0.191507
     13 C                     0.312134
     14 S                     0.625279
     15 N                    -0.540059
     16 C                    -0.235224
     17 S                     0.325471
     18 C                    -0.104023
     19 C                    -0.244498
     20 S                     0.277995
     21 C                     0.134343
     22 C                     0.021911
     23 C                    -0.299752
     24 C                    -0.042613
     25 N                    -0.441538
     26 S                     0.285635
     27 C                     0.148729
     28 C                    -0.309922
     29 C                    -0.224597
     30 H                     0.096426
     31 H                     0.110307
     32 H                     0.098915
     33 H                     0.116414
     34 H                     0.129603
     35 H                     0.126450
     36 H                     0.130336
     37 H                     0.134608
     38 H                     0.088915
     39 C                    -0.185737
     40 H                     0.118607
     41 H                     0.091312
     42 H                     0.089416
     43 C                    -0.179583
     44 H                     0.093493
     45 C                    -0.176101
     46 H                     0.121548
     47 H                     0.092685
     48 H                     0.093410
     49 C                    -0.176341
     50 H                     0.085072
     51 C                    -0.317264
     52 H                     0.092462
     53 H                     0.099499
     54 H                     0.099661
     55 H                     0.112182
     56 C                     0.289525
     57 C                    -0.138034
     58 N                    -0.493390
     59 C                    -0.092249
     60 C                     0.085437
     61 C                     0.062952
     62 C                     0.051599
     63 C                     0.040343
     64 C                     0.221490
     65 N                    -0.540320
     66 N                    -0.554898
     67 C                     0.217927
     68 C                     0.320740
     69 S                     0.577196
     70 N                    -0.584700
     71 C                    -0.193246
     72 S                     0.313884
     73 C                    -0.130369
     74 C                    -0.254116
     75 S                     0.288989
     76 C                     0.181074
     77 C                     0.054482
     78 C                    -0.313547
     79 C                    -0.048976
     80 N                    -0.449167
     81 S                     0.284900
     82 C                     0.108620
     83 C                    -0.289848
     84 C                    -0.234948
     85 H                     0.082322
     86 H                     0.107712
     87 H                     0.116622
     88 H                     0.116172
     89 H                     0.131085
     90 H                     0.125526
     91 H                     0.102640
     92 H                     0.149320
     93 H                     0.099099
     94 C                    -0.176495
     95 H                     0.120076
     96 H                     0.095668
     97 H                     0.132536
     98 C                    -0.192173
     99 H                     0.083757
    100 C                    -0.185015
    101 H                     0.093720
    102 H                     0.090749
    103 H                     0.096710
    104 C                    -0.167283
    105 H                     0.093375
    106 C                    -0.332336
    107 H                     0.092442
    108 H                     0.101105
    109 H                     0.103379
    110 H                     0.105800
  ----------------------------------------
  Sum of atomic charges =     0.000000

                    Cartesian Multipole Moments
 -----------------------------------------------------------------
    Charge (ESU x 10^10)
                 0.0000
    Dipole Moment (Debye)
         X      -3.4793      Y      -2.5075      Z      -0.3682
       Tot       4.3045
    Quadrupole Moments (Debye-Ang)
        XX    -435.2274     XY      19.6821     YY    -421.9314
        XZ       6.0259     YZ     -16.1934     ZZ    -433.3059

 Total job time:  80.44s(wall), 941.11s(cpu)
        *  Thank you very much for using Q-Chem.  Have a nice day.  *
