 Q-Chem 4.4, Q-Chem, Inc., Pleasanton, CA (2016)
 Q-Chem 4.4.2 for Intel X86 Linux

User input:
--------------------------------------------------------------
$comment
SP
$end

$rem
MEM_STATIC 5000
MEM_TOTAL 20000
JOBTYPE SP
EXCHANGE B3LYP
BASIS 6-31g(d,p)
$end

$molecule
0 1
C         -27.641000     -0.932000     -5.170000
C         -26.987000     -2.158000     -5.042000
N         -27.030000      0.219000     -5.416000
C         -25.568000     -2.070000     -5.103000
C         -25.697000      0.244000     -5.644000
C         -24.898000     -0.900000     -5.480000
C         -23.369000     -0.801000     -5.616000
C         -22.797000      0.453000     -5.267000
C         -22.441000     -1.850000     -5.798000
N         -21.464000      0.706000     -5.462000
N         -22.813000     -3.138000     -6.115000
C         -21.014000     -1.553000     -5.888000
C         -20.589000     -0.223000     -5.827000
S         -21.366000     -3.807000     -6.673000
N         -20.330000     -2.654000     -6.288000
C         -19.145000      0.086000     -6.115000
S         -17.876000     -1.086000     -6.348000
C         -18.599000      1.327000     -6.088000
C         -16.605000      0.182000     -6.378000
S         -19.334000      2.896000     -5.853000
C         -17.168000      1.388000     -6.263000
C         -15.245000     -0.063000     -6.457000
C         -17.705000      3.693000     -6.194000
C         -16.756000      2.750000     -6.438000
N         -14.318000      0.864000     -6.539000
S         -14.618000     -1.707000     -6.516000
C         -13.035000      0.315000     -6.463000
C         -13.052000     -1.021000     -6.109000
C         -29.207000     -0.734000     -5.132000
H         -27.473000     -3.045000     -4.647000
H         -25.059000     -3.014000     -4.934000
H         -25.321000      1.203000     -5.997000
H         -23.457000      1.248000     -4.925000
H         -17.620000      4.772000     -6.215000
H         -15.720000      3.069000     -6.458000
H         -12.145000      0.868000     -6.735000
H         -12.202000     -1.685000     -6.020000
H         -29.411000      0.253000     -4.699000
C         -29.906000     -1.751000     -4.185000
H         -29.632000     -0.887000     -6.132000
H         -29.306000     -1.836000     -3.271000
H         -29.926000     -2.738000     -4.665000
C         -31.373000     -1.494000     -3.916000
H         -31.446000     -0.415000     -3.732000
C         -31.866000     -2.335000     -2.632000
H         -32.019000     -1.759000     -4.762000
H         -32.447000     -1.673000     -1.978000
H         -30.984000     -2.424000     -1.985000
C         -32.456000     -3.724000     -2.954000
H         -32.821000     -4.194000     -2.033000
C         -31.376000     -4.777000     -3.433000
H         -33.224000     -3.768000     -3.736000
H         -31.320000     -4.720000     -4.528000
H         -31.667000     -5.801000     -3.168000
H         -30.404000     -4.543000     -2.983000
C         -21.666000      0.133000    -13.272000
C         -20.822000     -0.810000    -13.846000
N         -21.145000      1.159000    -12.560000
C         -19.404000     -0.751000    -13.655000
C         -19.810000      1.243000    -12.463000
C         -18.901000      0.299000    -12.924000
C         -17.420000      0.339000    -12.667000
C         -16.544000     -0.412000    -13.466000
C         -16.846000      0.907000    -11.581000
N         -15.235000     -0.648000    -13.155000
N         -17.505000      1.691000    -10.687000
C         -15.519000      0.640000    -11.161000
C         -14.668000     -0.175000    -12.000000
S         -16.409000      2.176000     -9.587000
N         -15.194000      1.130000    -10.011000
C         -13.378000     -0.694000    -11.617000
S         -12.688000     -0.784000    -10.072000
C         -12.594000     -1.419000    -12.490000
C         -11.156000     -1.243000    -10.741000
S         -12.853000     -1.851000    -14.159000
C         -11.324000     -1.690000    -12.001000
C          -9.935000     -1.317000     -9.988000
C         -11.227000     -2.477000    -14.210000
C         -10.540000     -2.409000    -13.011000
N          -8.843000     -1.771000    -10.626000
S          -9.711000     -0.754000     -8.369000
C          -7.796000     -1.700000     -9.693000
C          -8.054000     -1.285000     -8.418000
C         -23.193000     -0.027000    -13.374000
H         -21.295000     -1.668000    -14.315000
H         -18.831000     -1.643000    -13.891000
H         -19.431000      2.212000    -12.143000
H         -16.854000     -0.832000    -14.422000
H         -10.927000     -2.770000    -15.208000
H          -9.512000     -2.731000    -12.881000
H          -6.823000     -2.085000     -9.967000
H          -7.458000     -1.287000     -7.515000
H         -23.380000     -0.702000    -14.218000
C         -23.828000      1.404000    -13.617000
H         -23.621000     -0.528000    -12.497000
H         -23.728000      1.754000    -14.652000
H         -23.439000      2.108000    -12.871000
C         -25.355000      1.335000    -13.324000
H         -25.769000      0.495000    -13.895000
C         -26.188000      2.644000    -13.635000
H         -25.510000      1.111000    -12.261000
H         -26.168000      2.963000    -14.685000
H         -25.730000      3.490000    -13.107000
C         -27.677000      2.436000    -13.225000
H         -28.003000      1.442000    -13.554000
C         -28.478000      3.663000    -13.705000
H         -27.885000      2.327000    -12.153000
H         -29.303000      3.977000    -13.055000
H         -28.821000      3.498000    -14.734000
H         -27.807000      4.508000    -13.902000
$end

--------------------------------------------------------------

             Standard Nuclear Orientation (Angstroms)
    I     Atom           X                Y                Z
 ----------------------------------------------------------------
    1      C      -9.1393444953    -1.2843541234    -0.0953023833
    2      C      -8.5608300342    -1.8574019493    -1.2284895733
    3      N      -8.4673399879    -0.9441952205     0.9961827805
    4      C      -7.1740367366    -2.1456536786    -1.0915907401
    5      C      -7.1208711485    -1.0682501872     1.0297986953
    6      C      -6.4105460924    -1.6934311550    -0.0087676589
    7      C      -4.8978125512    -1.9371490122     0.1267935431
    8      C      -4.4173888599    -2.1211145317     1.4522560150
    9      C      -3.9710462036    -2.2490317219    -0.8922954187
   10      N      -3.0759780843    -2.2232379358     1.7151456146
   11      N      -4.2673493755    -2.1545344573    -2.2343429951
   12      C      -2.5656786114    -2.4636696797    -0.5583635726
   13      C      -2.1506402580    -2.3219798417     0.7686304572
   14      S      -2.7354504113    -2.1594347906    -2.9456766371
   15      N      -1.8182160775    -2.5202306933    -1.6889199012
   16      C      -0.6769138169    -2.3525069011     1.0698935900
   17      S       0.5903571931    -2.7330080668    -0.0647768688
   18      C      -0.1376035765    -2.2307691875     2.3081384744
   19      C       1.8446849639    -2.7384805745     1.2200565426
   20      S      -0.8838223654    -1.8977491307     3.8539282922
   21      C       1.2901519045    -2.4214530796     2.3933496234
   22      C       3.1740304756    -3.0718744196     1.0262652772
   23      C       0.7899421771    -1.8130773722     4.6262455519
   24      C       1.7548439746    -2.0476367325     3.6970887149
   25      N       4.1046223352    -3.0189700842     1.9517823878
   26      S       3.7688322194    -3.5595197868    -0.5573252259
   27      C       5.3143738811    -3.5484010313     1.4941033849
   28      C       5.1845037700    -4.1859242587     0.2745957430
   29      C     -10.6575162152    -0.8702910869     0.0339664471
   30      H      -9.1470189218    -2.3083097511    -2.0235082789
   31      H      -6.7417650561    -2.6543614127    -1.9478241403
   32      H      -6.6506957420    -0.6116730432     1.8993608833
   33      H      -5.1313162596    -2.0873166108     2.2730814340
   34      H       0.8943570327    -1.5650290305     5.6748048292
   35      H       2.7649037731    -2.2220113154     4.0504011943
   36      H       6.2530752139    -3.3944964598     2.0108685062
   37      H       5.9711707235    -4.6425766905    -0.3118688006
   38      H     -10.9521458122    -0.9948873964     1.0832248329
   39      C     -11.5956180805    -1.8141708734    -0.7714867416
   40      H     -10.8086399342     0.1417376026    -0.3622576729
   41      H     -11.2568453138    -2.8458623157    -0.6182980327
   42      H     -11.5048819773    -1.5877352298    -1.8417497274
   43      C     -13.0777136691    -1.6286120693    -0.5276433569
   44      H     -13.1793780770    -1.5321012025     0.5603713493
   45      C     -13.9023549904    -2.9008685553    -1.0756544196
   46      H     -13.4841376626    -0.7300200333    -1.0078609017
   47      H     -14.6236902337    -3.2109240347    -0.3094546633
   48      H     -13.2216849011    -3.7557707357    -0.9742419374
   49      C     -14.4093225728    -2.7688986250    -2.5270926056
   50      H     -15.0097225041    -3.6476374242    -2.7911078425
   51      C     -13.2582780008    -2.8423346936    -3.6107685430
   52      H     -14.9467601801    -1.8476179433    -2.7833868190
   53      H     -12.9170676241    -1.8165156027    -3.8022905303
   54      H     -13.6244316137    -3.2533665863    -4.5596975788
   55      H     -12.4341899559    -3.4607515473    -3.2359626076
   56      C      -1.2380795105     5.0212036445    -0.6312192383
   57      C      -0.2882385653     5.1232357297    -1.6404033804
   58      N      -0.9053463276     4.4570347384     0.5528682054
   59      C       1.0312536863     4.5921561647    -1.4743290189
   60      C       0.3590095326     4.0413203814     0.7180221705
   61      C       1.3420236106     4.0203743334    -0.2633964891
   62      C       2.7047645259     3.4067401968    -0.0978659962
   63      C       3.7473174039     3.7560898015    -0.9701138682
   64      C       2.9837005061     2.3718878757     0.7284338237
   65      N       4.9256238561     3.0721392361    -1.0686203587
   66      N       2.1262531355     1.8851371827     1.6643989778
   67      C       4.1503967805     1.5738711143     0.6254432813
   68      C       5.1782778495     1.9523396424    -0.3193154611
   69      S       2.9040085853     0.6833092265     2.4371518646
   70      N       4.1710714007     0.5251018429     1.3790217944
   71      C       6.3149937445     1.1401165104    -0.6775340503
   72      S       6.5755803439    -0.5077765133    -0.3812770562
   73      C       7.2885113155     1.5886251662    -1.5455856184
   74      C       8.2218192570    -0.3817743505    -0.9097530689
   75      S       7.4681263326     3.1206172704    -2.3579923134
   76      C       8.3820955183     0.7396601579    -1.6393619802
   77      C       9.2021787029    -1.4200265316    -0.7540168646
   78      C       9.0409020191     2.6040045957    -2.9037404092
   79      C       9.3915237977     1.3180573932    -2.5327981486
   80      N      10.4157501108    -1.2084904158    -1.2907858182
   81      S       9.0039080236    -2.8657127618     0.1727981447
   82      C      11.1833946737    -2.3370742994    -0.9609991556
   83      C      10.6075659670    -3.3701596454    -0.2786722776
   84      C      -2.6876159690     5.4734854088    -0.8802538969
   85      H      -0.6355462419     5.4860770694    -2.6035116505
   86      H       1.6319871440     4.4588708408    -2.3693392619
   87      H       0.6562901133     3.8682140927     1.7508147291
   88      H       3.6914963886     4.6352684463    -1.6107111870
   89      H       9.5867567049     3.3947502261    -3.4023555011
   90      H      10.3446125532     0.8563789895    -2.7691091209
   91      H      12.1880372902    -2.4202587428    -1.3531771272
   92      H      10.9466535217    -4.3712510486    -0.0474480734
   93      H      -2.6580033419     6.1567551249    -1.7376893682
   94      C      -3.2145191988     6.1970452684     0.4269833104
   95      H      -3.3377989125     4.6450694097    -1.1873419500
   96      H      -2.8419439681     7.2232030960     0.5361291318
   97      H      -3.0231081310     5.5603355020     1.2995745529
   98      C      -4.7658984084     6.2999501965     0.3564700240
   99      H      -5.0293172569     6.7474231361    -0.6096642723
  100      C      -5.4680224387     7.1100448794     1.5204543241
  101      H      -5.1969014859     5.2909365202     0.3737254083
  102      H      -5.1692184679     8.1637087330     1.5923547465
  103      H      -5.1508037723     6.6929497377     2.4846472303
  104      C      -7.0154921795     7.0611732972     1.3431580476
  105      H      -7.2596612385     7.2232567843     0.2864350878
  106      C      -7.6438341764     8.0025083886     2.3903469422
  107      H      -7.4981978306     6.0840574384     1.4718781040
  108      H      -8.6050544842     7.6784011939     2.8059561893
  109      H      -7.7084264130     9.0178108320     1.9796112712
  110      H      -6.9315248480     8.2102630099     3.1981392657
 ----------------------------------------------------------------

    9   -5663.4904735470      7.20E-06 Convergence criterion met
 Total energy in the final basis set = -5663.4904735470

                    Orbital Energies (a.u.)
 --------------------------------------------------------------

 Alpha MOs
 -- Occupied --
-88.991 -88.976 -88.928 -88.924 -88.922 -88.918 -88.906 -88.904
-14.392 -14.388 -14.372 -14.370 -14.354 -14.348 -14.347 -14.342
-14.325 -14.325 -10.270 -10.269 -10.265 -10.263 -10.261 -10.260
-10.248 -10.246 -10.244 -10.242 -10.238 -10.236 -10.234 -10.234
-10.234 -10.232 -10.231 -10.231 -10.231 -10.231 -10.229 -10.229
-10.227 -10.225 -10.221 -10.220 -10.219 -10.217 -10.216 -10.211
-10.210 -10.209 -10.208 -10.205 -10.201 -10.200 -10.198 -10.196
-10.190 -10.185 -10.184 -10.183 -10.180 -10.176 -10.175 -10.175
-10.175 -10.175 -10.172 -10.167  -8.047  -8.032  -7.989  -7.984
 -7.984  -7.979  -7.966  -7.964  -6.012  -6.006  -6.004  -5.997
 -5.991  -5.989  -5.953  -5.950  -5.948  -5.948  -5.946  -5.944
 -5.944  -5.943  -5.940  -5.940  -5.940  -5.936  -5.930  -5.929
 -5.926  -5.925  -5.922  -5.921  -1.033  -1.032  -0.968  -0.966
 -0.958  -0.947  -0.941  -0.936  -0.921  -0.914  -0.902  -0.902
 -0.850  -0.841  -0.835  -0.827  -0.812  -0.812  -0.802  -0.801
 -0.799  -0.797  -0.796  -0.793  -0.783  -0.777  -0.768  -0.764
 -0.748  -0.746  -0.741  -0.738  -0.727  -0.726  -0.705  -0.704
 -0.694  -0.692  -0.677  -0.672  -0.653  -0.651  -0.650  -0.642
 -0.636  -0.631  -0.628  -0.621  -0.610  -0.605  -0.597  -0.592
 -0.591  -0.588  -0.584  -0.584  -0.579  -0.577  -0.568  -0.568
 -0.548  -0.548  -0.540  -0.538  -0.523  -0.522  -0.513  -0.509
 -0.505  -0.501  -0.500  -0.497  -0.485  -0.482  -0.478  -0.473
 -0.472  -0.469  -0.467  -0.466  -0.462  -0.459  -0.456  -0.448
 -0.447  -0.445  -0.440  -0.438  -0.436  -0.435  -0.435  -0.434
 -0.433  -0.427  -0.425  -0.424  -0.420  -0.415  -0.412  -0.412
 -0.411  -0.408  -0.406  -0.403  -0.401  -0.399  -0.396  -0.394
 -0.393  -0.389  -0.389  -0.386  -0.386  -0.383  -0.379  -0.378
 -0.376  -0.373  -0.371  -0.369  -0.362  -0.359  -0.354  -0.353
 -0.352  -0.350  -0.349  -0.347  -0.345  -0.344  -0.343  -0.341
 -0.339  -0.338  -0.334  -0.332  -0.328  -0.324  -0.323  -0.316
 -0.314  -0.310  -0.308  -0.307  -0.303  -0.298  -0.297  -0.295
 -0.294  -0.293  -0.288  -0.286  -0.285  -0.280  -0.279  -0.278
 -0.274  -0.268  -0.267  -0.261  -0.253  -0.250  -0.248  -0.247
 -0.245  -0.242  -0.236  -0.229  -0.199  -0.193

          Ground-State Mulliken Net Atomic Charges

     Atom                 Charge (a.u.)
  ----------------------------------------
      1 C                     0.253203
      2 C                    -0.111285
      3 N                    -0.476293
      4 C                    -0.096851
      5 C                     0.049810
      6 C                     0.058437
      7 C                     0.042234
      8 C                     0.063814
      9 C                     0.184551
     10 N                    -0.541382
     11 N                    -0.561041
     12 C                     0.200643
     13 C                     0.361811
     14 S                     0.609182
     15 N                    -0.545201
     16 C                    -0.210683
     17 S                     0.332792
     18 C                    -0.125547
     19 C                    -0.247829
     20 S                     0.261057
     21 C                     0.177642
     22 C                     0.093946
     23 C                    -0.298241
     24 C                    -0.065254
     25 N                    -0.460559
     26 S                     0.244552
     27 C                     0.118884
     28 C                    -0.299668
     29 C                    -0.211926
     30 H                     0.104803
     31 H                     0.118366
     32 H                     0.111764
     33 H                     0.126504
     34 H                     0.135487
     35 H                     0.132326
     36 H                     0.127760
     37 H                     0.131489
     38 H                     0.116771
     39 C                    -0.188389
     40 H                     0.116238
     41 H                     0.093864
     42 H                     0.096146
     43 C                    -0.182798
     44 H                     0.088129
     45 C                    -0.186184
     46 H                     0.093441
     47 H                     0.092094
     48 H                     0.091256
     49 C                    -0.175878
     50 H                     0.097316
     51 C                    -0.324376
     52 H                     0.098922
     53 H                     0.103105
     54 H                     0.100945
     55 H                     0.104573
     56 C                     0.290114
     57 C                    -0.138595
     58 N                    -0.492437
     59 C                    -0.091627
     60 C                     0.086632
     61 C                     0.062148
     62 C                     0.052727
     63 C                     0.039251
     64 C                     0.219359
     65 N                    -0.539514
     66 N                    -0.556977
     67 C                     0.216759
     68 C                     0.317728
     69 S                     0.604885
     70 N                    -0.587288
     71 C                    -0.196382
     72 S                     0.331897
     73 C                    -0.132042
     74 C                    -0.267595
     75 S                     0.290705
     76 C                     0.185038
     77 C                     0.065276
     78 C                    -0.312152
     79 C                    -0.050517
     80 N                    -0.442085
     81 S                     0.257527
     82 C                     0.117313
     83 C                    -0.306268
     84 C                    -0.235452
     85 H                     0.081929
     86 H                     0.107200
     87 H                     0.118516
     88 H                     0.115625
     89 H                     0.132414
     90 H                     0.124247
     91 H                     0.108084
     92 H                     0.142553
     93 H                     0.098930
     94 C                    -0.176545
     95 H                     0.120039
     96 H                     0.095564
     97 H                     0.133279
     98 C                    -0.192152
     99 H                     0.083266
    100 C                    -0.184943
    101 H                     0.094547
    102 H                     0.090315
    103 H                     0.097120
    104 C                    -0.167503
    105 H                     0.092831
    106 C                    -0.332288
    107 H                     0.093919
    108 H                     0.101569
    109 H                     0.102862
    110 H                     0.105721
  ----------------------------------------
  Sum of atomic charges =     0.000000

                    Cartesian Multipole Moments
 -----------------------------------------------------------------
    Charge (ESU x 10^10)
                 0.0000
    Dipole Moment (Debye)
         X       1.5915      Y      -1.9271      Z      -2.5624
       Tot       3.5795
    Quadrupole Moments (Debye-Ang)
        XX    -409.3122     XY     -14.4047     YY    -433.1591
        XZ      17.3196     YZ      -5.5384     ZZ    -432.4693

 Total job time:  83.72s(wall), 988.67s(cpu)
        *  Thank you very much for using Q-Chem.  Have a nice day.  *
