 Q-Chem 4.4, Q-Chem, Inc., Pleasanton, CA (2016)
 Q-Chem 4.4.2 for Intel X86 Linux

User input:
--------------------------------------------------------------
$comment
SP
$end

$rem
MEM_STATIC 5000
MEM_TOTAL 20000
JOBTYPE SP
EXCHANGE B3LYP
BASIS 6-31g(d,p)
$end

$molecule
0 1
C         -22.548000     -3.019000      8.137000
C         -22.943000     -4.079000      7.378000
N         -22.825000     -2.987000      9.450000
C         -23.725000     -5.107000      7.970000
C         -23.630000     -3.856000     10.039000
C         -24.181000     -4.947000      9.291000
C         -25.190000     -5.832000     10.003000
C         -26.096000     -5.302000     11.021000
C         -25.316000     -7.194000      9.659000
N         -27.078000     -6.051000     11.549000
N         -24.573000     -7.870000      8.777000
C         -26.371000     -7.918000     10.194000
C         -27.217000     -7.309000     11.156000
S         -25.152000     -9.389000      8.599000
N         -26.255000     -9.236000      9.860000
C         -28.374000     -7.970000     11.842000
S         -28.956000     -7.362000     13.508000
C         -29.222000     -8.961000     11.308000
C         -30.236000     -8.597000     13.430000
S         -29.294000     -9.704000      9.792000
C         -30.162000     -9.348000     12.276000
C         -31.212000     -8.956000     14.420000
C         -30.739000    -10.594000     10.325000
C         -30.989000    -10.388000     11.662000
N         -31.823000     -8.016000     15.059000
S         -31.364000    -10.604000     15.052000
C         -32.610000     -8.572000     16.046000
C         -32.539000     -9.909000     16.105000
C         -21.616000     -1.911000      7.681000
H         -22.646000     -4.212000      6.342000
H         -24.100000     -5.864000      7.288000
H         -23.685000     -3.677000     11.112000
H         -26.146000     -4.252000     11.305000
H         -31.195000    -11.231000      9.579000
H         -31.859000    -10.790000     12.169000
H         -33.246000     -7.970000     16.682000
H         -32.904000    -10.600000     16.852000
H         -22.181000     -1.131000      7.156000
C         -20.386000     -2.411000      6.854000
H         -21.366000     -1.412000      8.626000
H         -20.745000     -2.736000      5.870000
H         -19.886000     -3.274000      7.312000
C         -19.295000     -1.285000      6.592000
H         -19.030000     -0.788000      7.534000
C         -19.679000     -0.291000      5.456000
H         -18.341000     -1.747000      6.313000
H         -20.085000      0.613000      5.926000
H         -20.344000     -0.767000      4.724000
C         -18.410000      0.165000      4.646000
H         -18.432000      1.209000      4.310000
C         -18.097000     -0.723000      3.413000
H         -17.490000     -0.016000      5.216000
H         -17.003000     -0.704000      3.337000
H         -18.542000     -0.384000      2.469000
H         -18.412000     -1.763000      3.565000
C         -22.081000     -3.069000      2.351000
C         -23.038000     -2.712000      3.357000
N         -21.801000     -4.333000      2.067000
C         -23.800000     -3.726000      3.955000
C         -22.485000     -5.297000      2.706000
C         -23.597000     -5.068000      3.598000
C         -24.414000     -6.124000      4.207000
C         -25.808000     -5.982000      4.547000
C         -23.824000     -7.346000      4.634000
N         -26.587000     -7.015000      4.972000
N         -22.483000     -7.619000      4.518000
C         -24.561000     -8.301000      5.216000
C         -25.943000     -8.213000      5.136000
S         -22.331000     -9.036000      5.275000
N         -23.888000     -9.350000      5.703000
C         -26.855000     -9.254000      5.506000
S         -28.467000     -9.021000      6.128000
C         -26.682000    -10.573000      5.136000
C         -28.839000    -10.699000      6.064000
S         -25.609000    -11.300000      3.889000
C         -27.859000    -11.316000      5.335000
C         -30.143000    -11.200000      6.130000
C         -26.715000    -12.677000      3.790000
C         -27.789000    -12.564000      4.598000
N         -30.339000    -12.451000      6.473000
S         -31.574000    -10.228000      5.888000
C         -31.703000    -12.719000      6.451000
C         -32.539000    -11.654000      6.225000
C         -21.217000     -1.982000      1.664000
H         -23.263000     -1.702000      3.688000
H         -24.492000     -3.429000      4.737000
H         -22.273000     -6.299000      2.336000
H         -26.317000     -5.058000      4.273000
H         -26.594000    -13.441000      3.034000
H         -28.511000    -13.370000      4.666000
H         -32.015000    -13.746000      6.593000
H         -33.614000    -11.756000      6.293000
H         -20.482000     -1.756000      2.446000
C         -22.036000     -0.765000      1.145000
H         -20.679000     -2.588000      0.925000
H         -22.562000     -0.265000      1.968000
H         -22.772000     -1.122000      0.414000
C         -21.083000      0.115000      0.533000
H         -20.364000      0.498000      1.268000
C         -21.797000      1.323000     -0.148000
H         -20.500000     -0.390000     -0.247000
H         -21.816000      2.096000      0.630000
H         -22.806000      1.051000     -0.483000
C         -21.024000      2.033000     -1.298000
H         -20.962000      1.492000     -2.250000
C         -19.697000      2.635000     -0.810000
H         -21.734000      2.848000     -1.491000
H         -19.807000      3.146000      0.154000
H         -19.370000      3.429000     -1.492000
H         -18.912000      1.870000     -0.767000
$end

--------------------------------------------------------------

             Standard Nuclear Orientation (Angstroms)
    I     Atom           X                Y                Z
 ----------------------------------------------------------------
    1      C      -3.5850564807    -3.5701312660     0.5781783448
    2      C      -3.1658489380    -2.2783960545     0.6849078130
    3      N      -2.7063441110    -4.5780305006     0.6953350955
    4      C      -1.7794098323    -2.0058053637     0.8340819447
    5      C      -1.3970069975    -4.3929663732     0.7339950494
    6      C      -0.8585451437    -3.0650388283     0.7412935149
    7      C       0.6530422302    -2.9328437965     0.6646248475
    8      C       1.4738674414    -3.8945761669    -0.0697979328
    9      C       1.3070297491    -1.8362786530     1.2638753887
   10      N       2.7904414455    -3.7020120726    -0.2532671709
   11      N       0.7437158764    -0.8679586994     1.9932470005
   12      C       2.6581833619    -1.6515500823     1.0115159827
   13      C       3.3667062513    -2.6259231146     0.2627613439
   14      S       1.8559305570     0.2674251229     2.3781730717
   15      N       3.1444582638    -0.6300754205     1.7745770780
   16      C       4.8285381806    -2.5801540642    -0.0645284428
   17      S       5.7653523707    -4.1545205767    -0.4218703766
   18      C       5.6113441945    -1.4295078806    -0.2871696442
   19      C       7.2030284364    -3.1461704256    -0.7151731262
   20      S       5.2348227044     0.2175750465    -0.3161247638
   21      C       6.9418231644    -1.8049367232    -0.5306278437
   22      C       8.5520010378    -3.5493477744    -0.9967365221
   23      C       6.9176275754     0.5682827747    -0.7737117561
   24      C       7.6950603490    -0.5658219093    -0.7300099436
   25      N       8.7511334896    -4.5041509195    -1.8416857637
   26      S       9.9232740951    -3.0498656042     0.0075342401
   27      C      10.0934486014    -4.8209325803    -1.8643467399
   28      C      10.8355728405    -4.0907351453    -1.0204543774
   29      C      -5.0332964219    -4.0228153947     0.5345646713
   30      H      -3.8466158606    -1.4329212202     0.7152838185
   31      H      -1.5005050882    -0.9570231897     0.8014308323
   32      H      -0.8701335793    -5.3360201441     0.8734546715
   33      H       1.0703674483    -4.7297116173    -0.6402298175
   34      H       7.1432128427     1.6105738286    -0.9552651813
   35      H       8.7358613451    -0.5805072361    -1.0334413652
   36      H      10.4966258823    -5.5696807494    -2.5338392787
   37      H      11.8621772688    -4.2103658532    -0.7034577819
   38      H      -5.4165891134    -3.9724243122    -0.4919816995
   39      C      -5.9640654281    -3.2847315293     1.5522730109
   40      H      -4.9446227623    -5.1056313367     0.6900401290
   41      H      -6.1054559885    -2.2552266005     1.2017158671
   42      H      -5.5312353384    -3.2221981947     2.5588914567
   43      C      -7.4126028483    -3.9282350095     1.6724545956
   44      H      -7.3336658287    -5.0100593520     1.8398554286
   45      C      -8.3656797061    -3.5527500245     0.4991500617
   46      H      -7.8921095662    -3.5980225758     2.6011278729
   47      H      -8.3655864160    -4.3878701338    -0.2118537317
   48      H      -8.0948021903    -2.5808870258     0.0670242892
   49      C      -9.8494022819    -3.3987889297     0.9984098131
   50      H     -10.6098950160    -3.7458512628     0.2881179447
   51      C     -10.2238020093    -1.9551017519     1.4254861258
   52      H      -9.9963600787    -3.8986100346     1.9641443879
   53      H     -10.9477382871    -2.0927538156     2.2378537612
   54      H     -10.6642676304    -1.3342845223     0.6351330377
   55      H      -9.3606646864    -1.4077608121     1.8246613472
   56      C      -7.0461749839     0.9461053477    -0.5718871124
   57      C      -6.1032669908     0.1046076719    -1.2487476432
   58      N      -6.6632505348     1.8683127287     0.2996944458
   59      C      -4.7336616653     0.3607947976    -1.0906546046
   60      C      -5.3469638596     2.0493501223     0.4999139522
   61      C      -4.2999751774     1.3997565264    -0.2527425828
   62      C      -2.8668833700     1.6814155196    -0.1098367291
   63      C      -1.9034418511     1.5668460918    -1.1764455074
   64      C      -2.3042321439     1.9648955505     1.1656144342
   65      N      -0.6084681417     1.9736721548    -1.0664880321
   66      N      -3.0373838987     1.9890082684     2.3267229912
   67      C      -0.9920507951     2.1946385339     1.3045974170
   68      C      -0.2380437653     2.4413496205     0.1667595381
   69      S      -1.9135252691     2.2017428817     3.4650233755
   70      N      -0.5445443999     2.3145493530     2.5599294136
   71      C       1.1125862103     2.9189654799     0.1641595402
   72      S       2.3146152113     2.5652974182    -1.0481779469
   73      C       1.5445275781     3.9597284078     0.9621753186
   74      C       3.4524911815     3.6692524024    -0.3813303861
   75      S       0.6054420253     5.1899646315     1.8784199140
   76      C       2.7952399590     4.4416279027     0.5373572198
   77      C       4.5711980669     4.1349715108    -1.0794518772
   78      C       2.0047223188     6.2690209357     1.7958478091
   79      C       3.0472342308     5.7476873677     1.1172542458
   80      N       5.5858943337     4.6357917662    -0.4156472689
   81      S       4.7677075986     3.9963037244    -2.8095571483
   82      C       6.5614696195     5.0437096615    -1.3182323630
   83      C       6.3494254546     4.7361528721    -2.6390817464
   84      C      -8.5687369927     0.6997043780    -0.7172332219
   85      H      -6.3508598506    -0.7141988095    -1.9184787249
   86      H      -4.0435300632    -0.3136774804    -1.5880503404
   87      H      -5.1174893030     2.8964304871     1.1446187556
   88      H      -2.2632556607     1.3246421862    -2.1763476478
   89      H       1.9423130037     7.2958142032     2.1300239051
   90      H       3.9817744900     6.2926101136     1.0448822553
   91      H       7.4099092145     5.5907611159    -0.9269243516
   92      H       7.1040241446     4.9258526748    -3.3909113826
   93      H      -8.7140776393    -0.1760414537    -0.0732065652
   94      C      -9.0390067987     0.5308031835    -2.1908443294
   95      H      -8.9665531605     1.5487997731    -0.1483920255
   96      H      -8.5423541204    -0.3240875953    -2.6667675098
   97      H      -8.7910404854     1.4437630250    -2.7462928285
   98      C     -10.4580683317     0.3321807840    -2.1278641090
   99      H     -10.7080347266    -0.5963795698    -1.5995010985
  100      C     -11.0773596986     0.2785479393    -3.5583964298
  101      H     -10.9630720938     1.1463730806    -1.5936580585
  102      H     -11.0704182333    -0.7882990386    -3.8132755024
  103      H     -10.4905807958     0.8753525917    -4.2681884599
  104      C     -12.5880484109     0.6354915879    -3.6789777148
  105      H     -12.8483528363     1.6954471026    -3.5714374295
  106      C     -13.4710902933    -0.3309560138    -2.8741839106
  107      H     -12.7183217229     0.4279258046    -4.7492670728
  108      H     -13.1577989566    -1.3745019417    -2.9981896956
  109      H     -14.4964133443    -0.3169202446    -3.2627770631
  110      H     -13.4980210723    -0.0472914698    -1.8148878426
 ----------------------------------------------------------------

   10   -5663.4681474650      8.70E-06 Convergence criterion met
 Total energy in the final basis set = -5663.4681474650

                    Orbital Energies (a.u.)
 --------------------------------------------------------------

 Alpha MOs
 -- Occupied --
-89.000 -88.984 -88.932 -88.931 -88.921 -88.919 -88.917 -88.902
-14.396 -14.394 -14.372 -14.366 -14.362 -14.346 -14.340 -14.336
-14.334 -14.316 -10.270 -10.263 -10.260 -10.258 -10.257 -10.254
-10.249 -10.245 -10.244 -10.243 -10.238 -10.238 -10.237 -10.236
-10.235 -10.234 -10.234 -10.234 -10.233 -10.231 -10.230 -10.224
-10.223 -10.222 -10.221 -10.221 -10.221 -10.219 -10.218 -10.217
-10.215 -10.214 -10.205 -10.205 -10.203 -10.203 -10.200 -10.189
-10.187 -10.186 -10.185 -10.183 -10.181 -10.180 -10.180 -10.180
-10.178 -10.176 -10.173 -10.173  -8.056  -8.038  -7.993  -7.991
 -7.981  -7.977  -7.977  -7.963  -6.020  -6.015  -6.014  -6.003
 -5.998  -5.996  -5.957  -5.955  -5.953  -5.951  -5.950  -5.947
 -5.945  -5.942  -5.942  -5.941  -5.938  -5.938  -5.938  -5.934
 -5.933  -5.928  -5.924  -5.919  -1.056  -1.019  -0.976  -0.973
 -0.965  -0.954  -0.947  -0.937  -0.925  -0.916  -0.901  -0.879
 -0.856  -0.844  -0.834  -0.823  -0.822  -0.820  -0.811  -0.808
 -0.806  -0.800  -0.795  -0.787  -0.784  -0.781  -0.773  -0.758
 -0.757  -0.745  -0.742  -0.737  -0.735  -0.719  -0.717  -0.705
 -0.697  -0.685  -0.685  -0.671  -0.666  -0.655  -0.653  -0.646
 -0.636  -0.633  -0.627  -0.619  -0.616  -0.605  -0.603  -0.595
 -0.593  -0.591  -0.588  -0.587  -0.582  -0.568  -0.566  -0.565
 -0.563  -0.546  -0.535  -0.532  -0.526  -0.518  -0.517  -0.512
 -0.511  -0.509  -0.498  -0.495  -0.492  -0.485  -0.484  -0.475
 -0.475  -0.470  -0.466  -0.463  -0.461  -0.455  -0.453  -0.452
 -0.447  -0.445  -0.444  -0.441  -0.440  -0.439  -0.438  -0.437
 -0.430  -0.428  -0.425  -0.424  -0.420  -0.419  -0.415  -0.412
 -0.409  -0.407  -0.406  -0.404  -0.403  -0.400  -0.399  -0.398
 -0.397  -0.395  -0.391  -0.390  -0.387  -0.384  -0.382  -0.381
 -0.379  -0.377  -0.372  -0.370  -0.367  -0.364  -0.362  -0.361
 -0.356  -0.354  -0.351  -0.350  -0.349  -0.346  -0.345  -0.343
 -0.340  -0.337  -0.334  -0.330  -0.328  -0.328  -0.326  -0.319
 -0.318  -0.314  -0.313  -0.308  -0.307  -0.306  -0.298  -0.295
 -0.293  -0.292  -0.292  -0.289  -0.288  -0.286  -0.283  -0.279
 -0.277  -0.269  -0.268  -0.260  -0.258  -0.257  -0.254  -0.249
 -0.240  -0.238  -0.236  -0.225  -0.204  -0.186

          Ground-State Mulliken Net Atomic Charges

     Atom                 Charge (a.u.)
  ----------------------------------------
      1 C                     0.273585
      2 C                    -0.135939
      3 N                    -0.477457
      4 C                    -0.058723
      5 C                     0.069526
      6 C                     0.014390
      7 C                     0.016114
      8 C                     0.060054
      9 C                     0.254644
     10 N                    -0.493573
     11 N                    -0.591293
     12 C                     0.217936
     13 C                     0.260657
     14 S                     0.633278
     15 N                    -0.562960
     16 C                    -0.220382
     17 S                     0.329784
     18 C                    -0.113553
     19 C                    -0.185175
     20 S                     0.297625
     21 C                     0.116457
     22 C                     0.031740
     23 C                    -0.310600
     24 C                    -0.077561
     25 N                    -0.411213
     26 S                     0.264287
     27 C                     0.117850
     28 C                    -0.295517
     29 C                    -0.228825
     30 H                     0.099313
     31 H                     0.103815
     32 H                     0.110299
     33 H                     0.119376
     34 H                     0.142788
     35 H                     0.105689
     36 H                     0.113227
     37 H                     0.127292
     38 H                     0.104428
     39 C                    -0.194409
     40 H                     0.122984
     41 H                     0.100710
     42 H                     0.102452
     43 C                    -0.189346
     44 H                     0.100117
     45 C                    -0.175302
     46 H                     0.091935
     47 H                     0.098127
     48 H                     0.096236
     49 C                    -0.187010
     50 H                     0.091882
     51 C                    -0.334866
     52 H                     0.098200
     53 H                     0.099240
     54 H                     0.111038
     55 H                     0.108441
     56 C                     0.251216
     57 C                    -0.111994
     58 N                    -0.477914
     59 C                    -0.097918
     60 C                     0.098486
     61 C                     0.024800
     62 C                     0.024422
     63 C                     0.065244
     64 C                     0.213843
     65 N                    -0.503419
     66 N                    -0.530900
     67 C                     0.259620
     68 C                     0.259476
     69 S                     0.629751
     70 N                    -0.568914
     71 C                    -0.229385
     72 S                     0.345525
     73 C                    -0.123622
     74 C                    -0.194398
     75 S                     0.246896
     76 C                     0.117581
     77 C                     0.024699
     78 C                    -0.297759
     79 C                    -0.040432
     80 N                    -0.416922
     81 S                     0.279617
     82 C                     0.100990
     83 C                    -0.303191
     84 C                    -0.249838
     85 H                     0.095330
     86 H                     0.109642
     87 H                     0.110677
     88 H                     0.117295
     89 H                     0.137082
     90 H                     0.121003
     91 H                     0.113688
     92 H                     0.136606
     93 H                     0.128468
     94 C                    -0.169745
     95 H                     0.122929
     96 H                     0.096984
     97 H                     0.106248
     98 C                    -0.168867
     99 H                     0.101778
    100 C                    -0.186671
    101 H                     0.094882
    102 H                     0.091082
    103 H                     0.086474
    104 C                    -0.183296
    105 H                     0.093351
    106 C                    -0.317544
    107 H                     0.093124
    108 H                     0.100922
    109 H                     0.101934
    110 H                     0.109254
  ----------------------------------------
  Sum of atomic charges =     0.000000

                    Cartesian Multipole Moments
 -----------------------------------------------------------------
    Charge (ESU x 10^10)
                 0.0000
    Dipole Moment (Debye)
         X       0.2640      Y       4.4989      Z      -1.2122
       Tot       4.6668
    Quadrupole Moments (Debye-Ang)
        XX    -388.2994     XY      20.4738     YY    -437.3597
        XZ      -0.0933     YZ      -1.2120     ZZ    -441.4482

 Total job time:  104.32s(wall), 1269.04s(cpu)
        *  Thank you very much for using Q-Chem.  Have a nice day.  *
