 Q-Chem 4.4, Q-Chem, Inc., Pleasanton, CA (2016)
 Q-Chem 4.4.2 for Intel X86 Linux

User input:
--------------------------------------------------------------
$comment
SP
$end

$rem
MEM_STATIC 5000
MEM_TOTAL 20000
JOBTYPE SP
EXCHANGE B3LYP
BASIS 6-31g(d,p)
$end

$molecule
0 1
C          -3.255000    -13.671000    -14.522000
C          -2.389000    -12.852000    -15.312000
N          -3.274000    -13.520000    -13.220000
C          -1.560000    -11.933000    -14.715000
C          -2.513000    -12.588000    -12.650000
C          -1.601000    -11.747000    -13.296000
C          -0.789000    -10.824000    -12.434000
C          -1.434000    -10.226000    -11.368000
C           0.512000    -10.394000    -12.621000
N          -0.891000     -9.351000    -10.469000
N           1.191000    -10.646000    -13.719000
C           1.113000     -9.537000    -11.706000
C           0.405000     -9.198000    -10.547000
S           2.634000     -9.908000    -13.549000
N           2.377000     -9.215000    -12.043000
C           0.919000     -8.392000     -9.445000
S          -0.120000     -7.165000     -8.609000
C           2.188000     -8.533000     -8.855000
C           1.196000     -6.903000     -7.370000
S           3.411000     -9.771000     -9.008000
C           2.275000     -7.698000     -7.705000
C           1.096000     -6.207000     -6.153000
C           4.065000     -9.230000     -7.401000
C           3.338000     -8.161000     -6.875000
N           2.133000     -5.443000     -5.823000
S          -0.192000     -6.415000     -4.914000
C           1.982000     -4.985000     -4.531000
C           0.804000     -5.321000     -3.919000
C          -4.238000    -14.663000    -15.023000
H          -2.411000    -12.975000    -16.391000
H          -0.880000    -11.371000    -15.349000
H          -2.567000    -12.656000    -11.564000
H          -2.457000    -10.521000    -11.138000
H           4.945000     -9.673000     -6.954000
H           3.569000     -7.637000     -5.955000
H           2.712000     -4.360000     -4.033000
H           0.443000     -4.929000     -2.977000
H          -4.124000    -14.890000    -16.090000
C          -5.703000    -14.074000    -14.990000
H          -4.206000    -15.601000    -14.454000
H          -5.666000    -13.163000    -15.601000
H          -6.149000    -13.766000    -14.036000
C          -6.590000    -15.164000    -15.582000
H          -6.006000    -16.025000    -15.930000
C          -7.469000    -14.666000    -16.730000
H          -7.244000    -15.542000    -14.787000
H          -7.857000    -13.693000    -16.406000
H          -8.327000    -15.341000    -16.836000
C          -6.609000    -14.609000    -18.045000
H          -5.838000    -13.832000    -17.967000
C          -7.618000    -14.329000    -19.191000
H          -6.124000    -15.575000    -18.231000
H          -8.324000    -15.162000    -19.294000
H          -7.053000    -14.278000    -20.131000
H          -8.187000    -13.393000    -19.138000
C          -3.038000     -9.574000      0.606000
C          -2.540000     -9.281000     -0.673000
N          -3.943000     -8.802000      1.235000
C          -2.972000     -8.093000     -1.304000
C          -4.388000     -7.719000      0.578000
C          -3.915000     -7.279000     -0.675000
C          -4.503000     -6.090000     -1.274000
C          -5.886000     -5.839000     -1.307000
C          -3.743000     -5.083000     -1.970000
N          -6.510000     -4.800000     -1.967000
N          -2.399000     -5.118000     -2.185000
C          -4.278000     -3.960000     -2.512000
C          -5.717000     -3.839000     -2.513000
S          -1.927000     -3.711000     -2.870000
N          -3.343000     -3.128000     -3.096000
C          -6.380000     -2.746000     -3.292000
S          -5.512000     -1.432000     -4.050000
C          -7.723000     -2.508000     -3.400000
C          -6.988000     -0.607000     -4.626000
S          -9.110000     -3.354000     -2.689000
C          -8.051000     -1.367000     -4.137000
C          -7.170000      0.649000     -5.306000
C         -10.161000     -2.107000     -3.409000
C          -9.513000     -1.140000     -4.087000
N          -8.387000      0.859000     -5.937000
S          -6.149000      2.091000     -5.169000
C          -8.543000      2.164000     -6.305000
C          -7.459000      2.953000     -6.005000
C          -2.573000    -10.759000      1.467000
H          -1.806000     -9.907000     -1.173000
H          -2.642000     -7.848000     -2.310000
H          -5.214000     -7.170000      1.028000
H          -6.522000     -6.522000     -0.746000
H         -11.231000     -2.201000     -3.281000
H         -10.086000     -0.371000     -4.593000
H          -9.441000      2.530000     -6.785000
H          -7.316000      4.011000     -6.180000
H          -1.540000    -10.925000      1.137000
C          -3.392000    -12.050000      1.311000
H          -2.538000    -10.475000      2.526000
H          -2.700000    -12.850000      1.600000
H          -3.532000    -12.253000      0.242000
C          -4.708000    -12.076000      2.242000
H          -4.394000    -11.922000      3.282000
C          -5.525000    -13.467000      2.299000
H          -5.217000    -11.138000      1.988000
H          -4.959000    -14.265000      2.795000
H          -5.755000    -13.800000      1.279000
C          -6.762000    -13.255000      3.135000
H          -7.141000    -14.262000      3.348000
C          -7.832000    -12.280000      2.599000
H          -6.567000    -12.957000      4.173000
H          -8.591000    -12.140000      3.380000
H          -8.346000    -12.760000      1.758000
H          -7.518000    -11.307000      2.201000
$end

--------------------------------------------------------------

             Standard Nuclear Orientation (Angstroms)
    I     Atom           X                Y                Z
 ----------------------------------------------------------------
    1      C      -9.6820323554     0.3516228919     2.7697415519
    2      C     -10.0958923328     1.1034832983     1.6259571105
    3      N      -8.5520464434    -0.3116648279     2.7304065890
    4      C      -9.3345367316     1.1110276884     0.4820638765
    5      C      -7.7878234043    -0.2544145932     1.6416777168
    6      C      -8.0862200473     0.4107537872     0.4480062926
    7      C      -7.1059278233     0.2687810931    -0.6803499941
    8      C      -5.7627870268     0.2905966314    -0.3555702485
    9      C      -7.3583439429     0.2258027006    -2.0393602812
   10      N      -4.7095559801     0.1878790746    -1.2209190024
   11      N      -8.5491061518     0.4594426060    -2.5469494422
   12      C      -6.3169239292     0.0799291256    -2.9487778174
   13      C      -5.0228459508    -0.1173826945    -2.4528985666
   14      S      -8.3856425089     0.3735680235    -4.1661153366
   15      N      -6.7383509080     0.0622735143    -4.2282451210
   16      C      -3.8366921360    -0.3806871397    -3.2603302335
   17      S      -2.2370183017     0.3706644620    -2.8597551537
   18      C      -3.7663202747    -1.2868319685    -4.3337785789
   19      C      -1.4410030343    -0.6509061338    -4.1475339437
   20      S      -4.8718182431    -2.5200124277    -4.8895862767
   21      C      -2.4162044795    -1.4058760606    -4.7700237435
   22      C      -0.0641173023    -0.8431886444    -4.3542175597
   23      C      -3.4599533524    -3.3254189153    -5.7024847452
   24      C      -2.2742958855    -2.6133265647    -5.5151165104
   25      N       0.3460582162    -0.8614050387    -5.6188871636
   26      S       1.1479981448    -1.2744421423    -3.0963918312
   27      C       1.6677029049    -1.2512495449    -5.6746148754
   28      C       2.2798712687    -1.4387127850    -4.4641474335
   29      C     -10.3662348821     0.2891325879     4.0847761006
   30      H     -11.0214770359     1.6681497779     1.6915217662
   31      H      -9.7142452718     1.6513525549    -0.3805313143
   32      H      -6.9401820834    -0.9333307171     1.7283557881
   33      H      -5.4745394328     0.3057485258     0.6947333955
   34      H      -3.5671615487    -4.2243076625    -6.2949064048
   35      H      -1.3134512036    -2.8694630705    -5.9458235892
   36      H       2.2164693513    -1.3603380507    -6.6011590380
   37      H       3.3393712226    -1.5918567047    -4.3049124266
   38      H     -11.3733234904     0.7234937300     4.0739625364
   39      C      -9.6450065057     1.2142877212     5.1422034543
   40      H     -10.4247357305    -0.7359861444     4.4725108495
   41      H      -9.6524929582     2.2205477748     4.7040303633
   42      H      -8.5993680004     1.0239398160     5.4147906720
   43      C     -10.4797424314     1.1016367032     6.4133677563
   44      H     -11.3736654668     0.4834153255     6.2644216761
   45      C     -10.9049723914     2.4587954403     6.9753718875
   46      H      -9.8783514912     0.5879010971     7.1729924426
   47      H     -10.0202434233     3.1019518135     6.8988635041
   48      H     -11.1336060845     2.3432075694     8.0418572734
   49      C     -12.1494231206     2.9795621157     6.1677714588
   50      H     -11.8657935008     3.2161274539     5.1344055606
   51      C     -12.6572888184     4.2253139622     6.9423499053
   52      H     -12.9447133952     2.2243598466     6.1551258331
   53      H     -13.0079052778     3.9403279523     7.9417422570
   54      H     -13.5285249914     4.6226628087     6.4052396512
   55      H     -11.9631890533     5.0684262089     7.0426158290
   56      C       4.5992347245    -5.8291321489     0.8902310523
   57      C       3.6041480825    -5.0314583130     0.3043871937
   58      N       5.7529126641    -5.3284574123     1.3687726072
   59      C       3.8507951636    -3.6472457423     0.1656436301
   60      C       5.9253842720    -3.9994598828     1.2876423961
   61      C       5.0369194560    -3.1028748435     0.6598657335
   62      C       5.3498820205    -1.6814955792     0.6610574891
   63      C       5.8146627431    -0.9887865605     1.7928313602
   64      C       5.1401148357    -0.8130830942    -0.4693948470
   65      N       6.0070212394     0.3741881869     1.8918012889
   66      N       4.6031853657    -1.1885217834    -1.6629351835
   67      C       5.4495043722     0.5079421546    -0.4863773879
   68      C       5.8841636123     1.1081273699     0.7530628294
   69      S       4.6922378401     0.0631358270    -2.7103514728
   70      N       5.1900279991     1.1213831429    -1.6962811715
   71      C       6.0203216726     2.5949221601     0.8624302582
   72      S       5.8988003026     3.6823587335    -0.5003970440
   73      C       6.4076814731     3.3088883811     1.9634123744
   74      C       6.2621226355     5.1450139949     0.4585677462
   75      S       6.8776593463     2.7705051565     3.5864559051
   76      C       6.5172445969     4.6856777643     1.7510897043
   77      C       6.4418959422     6.5182764062     0.0650046537
   78      C       7.2440402841     4.4708408401     3.9771393724
   79      C       7.0559173219     5.3396748603     2.9650058849
   80      N       6.3625325211     7.4799519397     1.0611128886
   81      S       7.0674811368     7.1079776205    -1.4846629372
   82      C       6.8121449032     8.6925859507     0.6250481444
   83      C       7.1996802887     8.6935116622    -0.6930536984
   84      C       4.5300698616    -7.3604676521     0.9997700792
   85      H       2.6766640104    -5.4435057515    -0.0837135719
   86      H       3.0918281265    -2.9874091945    -0.2461157252
   87      H       6.7948914413    -3.5800257824     1.7918341432
   88      H       6.0592254248    -1.5880218102     2.6685095033
   89      H       7.5711227325     4.7080481813     4.9805683680
   90      H       7.2128448192     6.3985340073     3.1379713940
   91      H       6.8559676355     9.5623311667     1.2672185482
   92      H       7.5937454118     9.5068653341    -1.2877018996
   93      H       3.9102465789    -7.6504005350     0.1422719617
   94      C       3.9188073462    -7.9023582469     2.3014961336
   95      H       5.5231889666    -7.8022058833     0.8516357541
   96      H       3.5406049719    -8.8961285821     2.0335997268
   97      H       2.9884057322    -7.3590701499     2.5082831747
   98      C       4.9894995631    -8.0087988553     3.5021549418
   99      H       5.8254495465    -8.6319258114     3.1603766193
  100      C       4.4944671644    -8.7505592828     4.8476486774
  101      H       5.4231768208    -7.0020697793     3.5453012466
  102      H       4.3156705743    -9.8217679701     4.6936365753
  103      H       3.5563156124    -8.2978454802     5.1927731164
  104      C       5.5971676389    -8.6574559132     5.8720472454
  105      H       5.3217953389    -9.3728256693     6.6565695259
  106      C       5.9690893929    -7.2556686326     6.4007131408
  107      H       6.5398562594    -9.1335926631     5.5738778972
  108      H       6.8658871385    -7.3516862478     7.0269530478
  109      H       5.1681109783    -6.9143428958     7.0669017933
  110      H       6.0945453231    -6.4309392481     5.6881043758
 ----------------------------------------------------------------

    9   -5663.5072612587      6.41E-06 Convergence criterion met
 Total energy in the final basis set = -5663.5072612587

                    Orbital Energies (a.u.)
 --------------------------------------------------------------

 Alpha MOs
 -- Occupied --
-88.998 -88.990 -88.932 -88.930 -88.925 -88.922 -88.915 -88.904
-14.391 -14.384 -14.383 -14.373 -14.357 -14.352 -14.347 -14.345
-14.330 -14.321 -10.277 -10.272 -10.270 -10.258 -10.257 -10.256
-10.254 -10.252 -10.244 -10.244 -10.243 -10.241 -10.238 -10.235
-10.235 -10.233 -10.232 -10.232 -10.231 -10.231 -10.230 -10.227
-10.227 -10.226 -10.226 -10.223 -10.221 -10.219 -10.215 -10.213
-10.212 -10.211 -10.211 -10.211 -10.203 -10.202 -10.199 -10.192
-10.187 -10.185 -10.182 -10.181 -10.181 -10.180 -10.178 -10.176
-10.173 -10.173 -10.170 -10.167  -8.054  -8.046  -7.992  -7.989
 -7.983  -7.981  -7.974  -7.963  -6.019  -6.013  -6.012  -6.011
 -6.005  -6.003  -5.956  -5.953  -5.952  -5.950  -5.949  -5.947
 -5.946  -5.946  -5.944  -5.942  -5.940  -5.939  -5.938  -5.935
 -5.930  -5.928  -5.924  -5.919  -1.051  -1.043  -0.973  -0.966
 -0.954  -0.951  -0.949  -0.941  -0.911  -0.908  -0.901  -0.896
 -0.843  -0.839  -0.835  -0.831  -0.816  -0.812  -0.807  -0.801
 -0.798  -0.797  -0.796  -0.794  -0.784  -0.782  -0.770  -0.769
 -0.749  -0.743  -0.742  -0.731  -0.723  -0.720  -0.712  -0.704
 -0.694  -0.691  -0.679  -0.676  -0.659  -0.654  -0.650  -0.650
 -0.639  -0.636  -0.628  -0.625  -0.615  -0.611  -0.599  -0.597
 -0.589  -0.588  -0.586  -0.577  -0.577  -0.573  -0.569  -0.562
 -0.556  -0.548  -0.545  -0.540  -0.525  -0.522  -0.515  -0.510
 -0.509  -0.507  -0.500  -0.499  -0.490  -0.486  -0.482  -0.481
 -0.472  -0.472  -0.470  -0.469  -0.461  -0.453  -0.451  -0.448
 -0.447  -0.440  -0.437  -0.436  -0.434  -0.431  -0.428  -0.425
 -0.424  -0.423  -0.422  -0.421  -0.420  -0.419  -0.414  -0.412
 -0.411  -0.410  -0.406  -0.403  -0.401  -0.401  -0.398  -0.396
 -0.395  -0.393  -0.391  -0.388  -0.387  -0.386  -0.384  -0.382
 -0.380  -0.379  -0.377  -0.372  -0.365  -0.363  -0.360  -0.354
 -0.352  -0.350  -0.349  -0.349  -0.347  -0.346  -0.344  -0.340
 -0.338  -0.334  -0.332  -0.330  -0.329  -0.328  -0.327  -0.320
 -0.317  -0.313  -0.310  -0.304  -0.304  -0.303  -0.296  -0.294
 -0.292  -0.290  -0.289  -0.289  -0.286  -0.285  -0.283  -0.281
 -0.281  -0.277  -0.271  -0.269  -0.254  -0.252  -0.249  -0.248
 -0.246  -0.244  -0.236  -0.234  -0.198  -0.197

          Ground-State Mulliken Net Atomic Charges

     Atom                 Charge (a.u.)
  ----------------------------------------
      1 C                     0.274193
      2 C                    -0.129872
      3 N                    -0.473024
      4 C                    -0.060788
      5 C                     0.052784
      6 C                     0.040491
      7 C                     0.071253
      8 C                     0.033766
      9 C                     0.217045
     10 N                    -0.497871
     11 N                    -0.552593
     12 C                     0.253947
     13 C                     0.275149
     14 S                     0.596961
     15 N                    -0.556840
     16 C                    -0.226421
     17 S                     0.308155
     18 C                    -0.113350
     19 C                    -0.191420
     20 S                     0.259419
     21 C                     0.152858
     22 C                     0.003592
     23 C                    -0.306963
     24 C                    -0.051169
     25 N                    -0.406146
     26 S                     0.268709
     27 C                     0.117231
     28 C                    -0.299580
     29 C                    -0.230020
     30 H                     0.086914
     31 H                     0.112978
     32 H                     0.101195
     33 H                     0.114805
     34 H                     0.133431
     35 H                     0.114731
     36 H                     0.116565
     37 H                     0.127734
     38 H                     0.098354
     39 C                    -0.164937
     40 H                     0.123596
     41 H                     0.091816
     42 H                     0.113369
     43 C                    -0.188293
     44 H                     0.090486
     45 C                    -0.169084
     46 H                     0.087255
     47 H                     0.093806
     48 H                     0.087441
     49 C                    -0.173952
     50 H                     0.096452
     51 C                    -0.319485
     52 H                     0.097208
     53 H                     0.105077
     54 H                     0.090925
     55 H                     0.105743
     56 C                     0.269085
     57 C                    -0.125849
     58 N                    -0.475150
     59 C                    -0.054890
     60 C                     0.069445
     61 C                     0.049251
     62 C                     0.038104
     63 C                     0.057360
     64 C                     0.232931
     65 N                    -0.525095
     66 N                    -0.597809
     67 C                     0.184267
     68 C                     0.312991
     69 S                     0.629984
     70 N                    -0.537251
     71 C                    -0.236918
     72 S                     0.327376
     73 C                    -0.105036
     74 C                    -0.226336
     75 S                     0.272498
     76 C                     0.134137
     77 C                     0.023462
     78 C                    -0.301829
     79 C                    -0.038967
     80 N                    -0.430949
     81 S                     0.278335
     82 C                     0.142134
     83 C                    -0.309699
     84 C                    -0.224610
     85 H                     0.097070
     86 H                     0.114846
     87 H                     0.098383
     88 H                     0.115249
     89 H                     0.125290
     90 H                     0.121897
     91 H                     0.121377
     92 H                     0.129912
     93 H                     0.088547
     94 C                    -0.185519
     95 H                     0.117750
     96 H                     0.090689
     97 H                     0.089973
     98 C                    -0.179322
     99 H                     0.092954
    100 C                    -0.176295
    101 H                     0.121888
    102 H                     0.092286
    103 H                     0.093636
    104 C                    -0.175951
    105 H                     0.084553
    106 C                    -0.317340
    107 H                     0.092120
    108 H                     0.099070
    109 H                     0.099662
    110 H                     0.112671
  ----------------------------------------
  Sum of atomic charges =     0.000000

                    Cartesian Multipole Moments
 -----------------------------------------------------------------
    Charge (ESU x 10^10)
                 0.0000
    Dipole Moment (Debye)
         X      -1.3148      Y       1.2625      Z      -1.8682
       Tot       2.6102
    Quadrupole Moments (Debye-Ang)
        XX    -406.0513     XY      16.7162     YY    -410.7460
        XZ     -11.8557     YZ       9.8951     ZZ    -436.0639

 Total job time:  79.98s(wall), 932.18s(cpu)
        *  Thank you very much for using Q-Chem.  Have a nice day.  *
