 Q-Chem 4.4, Q-Chem, Inc., Pleasanton, CA (2016)
 Q-Chem 4.4.2 for Intel X86 Linux

User input:
--------------------------------------------------------------
$comment
SP
$end

$rem
MEM_STATIC 5000
MEM_TOTAL 20000
JOBTYPE SP
EXCHANGE B3LYP
BASIS 6-31g(d,p)
$end

$molecule
0 1
C         -13.602000     12.350000     -7.959000
C         -13.890000     12.979000     -6.733000
N         -13.112000     12.956000     -9.069000
C         -13.720000     14.409000     -6.754000
C         -12.785000     14.236000     -9.030000
C         -13.097000     15.029000     -7.893000
C         -12.789000     16.478000     -7.959000
C         -11.694000     16.948000     -8.662000
C         -13.465000     17.527000     -7.278000
N         -11.274000     18.246000     -8.742000
N         -14.580000     17.327000     -6.601000
C         -13.147000     18.827000     -7.463000
C         -11.948000     19.220000     -8.109000
S         -15.014000     18.832000     -6.071000
N         -13.804000     19.721000     -6.684000
C         -11.407000     20.602000     -8.162000
S         -11.850000     21.972000     -7.182000
C         -10.400000     21.007000     -9.058000
C         -10.523000     22.995000     -7.786000
S          -9.473000     20.138000    -10.282000
C          -9.894000     22.320000     -8.822000
C         -10.273000     24.349000     -7.337000
C          -8.507000     21.630000    -10.576000
C          -8.789000     22.627000     -9.621000
N         -10.905000     24.634000     -6.274000
S          -9.461000     25.680000     -8.200000
C         -10.849000     25.978000     -5.961000
C         -10.138000     26.661000     -6.900000
C         -13.885000     10.878000     -7.959000
H         -14.224000     12.469000     -5.834000
H         -14.031000     15.024000     -5.915000
H         -12.538000     14.771000     -9.946000
H         -11.117000     16.229000     -9.243000
H          -7.800000     21.621000    -11.395000
H          -8.245000     23.544000     -9.425000
H         -11.288000     26.357000     -5.048000
H         -10.010000     27.732000     -6.980000
H         -14.867000     10.625000     -7.541000
C         -12.865000     10.017000     -7.152000
H         -13.943000     10.432000     -8.960000
H         -12.784000     10.348000     -6.109000
H         -11.918000     10.153000     -7.688000
C         -13.109000      8.474000     -7.206000
H         -14.035000      8.232000     -6.670000
C         -11.973000      7.758000     -6.459000
H         -13.199000      8.238000     -8.273000
H         -11.955000      7.944000     -5.378000
H         -10.995000      8.112000     -6.807000
C         -12.125000      6.255000     -6.822000
H         -12.983000      5.770000     -6.340000
C         -10.904000      5.387000     -6.564000
H         -12.335000      6.113000     -7.889000
H         -10.061000      5.682000     -7.201000
H         -11.101000      4.315000     -6.688000
H         -10.749000      5.548000     -5.490000
C         -18.347000     21.960000     -5.115000
C         -19.033000     21.836000     -3.884000
N         -17.985000     20.922000     -5.848000
C         -19.316000     20.580000     -3.404000
C         -18.362000     19.694000     -5.430000
C         -18.915000     19.507000     -4.168000
C         -19.531000     18.168000     -3.797000
C         -20.511000     17.553000     -4.611000
C         -19.316000     17.524000     -2.529000
N         -21.251000     16.500000     -4.222000
N         -18.430000     18.000000     -1.621000
C         -19.999000     16.359000     -2.161000
C         -21.017000     15.857000     -3.037000
S         -18.444000     16.952000     -0.379000
N         -19.706000     15.978000     -0.898000
C         -22.006000     14.892000     -2.615000
S         -22.303000     14.337000     -0.935000
C         -23.073000     14.435000     -3.377000
C         -23.497000     13.224000     -1.416000
S         -23.477000     14.807000     -5.052000
C         -23.895000     13.553000     -2.704000
C         -23.975000     12.140000     -0.593000
C         -24.956000     13.918000     -4.775000
C         -24.960000     13.184000     -3.575000
N         -24.831000     11.227000     -1.049000
S         -23.375000     11.883000      0.998000
C         -25.028000     10.266000     -0.020000
C         -24.435000     10.532000      1.189000
C         -18.113000     23.364000     -5.657000
H         -19.437000     22.741000     -3.441000
H         -19.906000     20.518000     -2.494000
H         -18.218000     18.904000     -6.166000
H         -20.826000     18.046000     -5.529000
H         -25.714000     13.912000     -5.547000
H         -25.816000     12.540000     -3.412000
H         -25.619000      9.408000     -0.311000
H         -24.516000      9.989000      2.121000
H         -18.020000     24.042000     -4.799000
C         -19.218000     24.049000     -6.478000
H         -17.191000     23.433000     -6.247000
H         -19.866000     24.510000     -5.723000
H         -19.754000     23.290000     -7.061000
C         -18.614000     25.232000     -7.298000
H         -17.976000     25.814000     -6.622000
C         -19.771000     26.083000     -7.876000
H         -17.964000     24.930000     -8.129000
H         -20.501000     26.322000     -7.093000
H         -20.413000     25.505000     -8.553000
C         -19.284000     27.327000     -8.663000
H         -18.604000     27.089000     -9.490000
C         -18.551000     28.383000     -7.893000
H         -20.164000     27.660000     -9.227000
H         -18.390000     29.201000     -8.606000
H         -17.619000     27.974000     -7.484000
H         -19.212000     28.717000     -7.084000
$end

--------------------------------------------------------------

             Standard Nuclear Orientation (Angstroms)
    I     Atom           X                Y                Z
 ----------------------------------------------------------------
    1      C       0.6701712528     6.2865295417    -1.3415024010
    2      C       0.9172960857     5.3478564596    -0.3219519304
    3      N      -0.4736759731     6.3970580259    -2.0618030175
    4      C      -0.1395467549     4.3860529359    -0.1423462730
    5      C      -1.5106883003     5.6306492510    -1.7718495332
    6      C      -1.3899957814     4.5751850269    -0.8282444318
    7      C      -2.5661394726     3.6951020953    -0.6258560643
    8      C      -3.8558215921     4.1858045984    -0.7261809561
    9      C      -2.5535160431     2.3301252727    -0.2285942829
   10      N      -5.0108712725     3.4914809012    -0.4995119474
   11      N      -1.4381101888     1.6307963301    -0.1371458815
   12      C      -3.6842864204     1.5959719375    -0.1406952830
   13      C      -4.9688491281     2.1952767636    -0.1506137201
   14      S      -1.9399341165     0.1092895413     0.2720861277
   15      N      -3.5444221157     0.3358255734     0.3390912502
   16      C      -6.2470470297     1.5064607091     0.1610857624
   17      S      -6.4807296990    -0.0255178541     0.9560594047
   18      C      -7.5115212023     2.0369625836    -0.1560306640
   19      C      -8.2455368293     0.1708167686     1.0945603389
   20      S      -8.0145988568     3.5502836891    -0.9106418919
   21      C      -8.6101873484     1.3100812379     0.3919448909
   22      C      -9.1229363542    -0.7953529054     1.7223367598
   23      C      -9.7335319546     3.0986972623    -0.6156932451
   24      C      -9.8364295148     1.9517846409     0.1964406915
   25      N      -8.4899555787    -1.6505025614     2.4141983094
   26      S     -10.8560092928    -1.0873498832     1.4275996660
   27      C      -9.2875260180    -2.6970997338     2.8336703026
   28      C     -10.5591682938    -2.5479182769     2.3706348662
   29      C       1.8197269907     7.2148763978    -1.5936268150
   30      H       1.8155598222     5.3116024648     0.2876913321
   31      H      -0.0177090686     3.5348933108     0.5206393006
   32      H      -2.3755231314     5.5983625690    -2.4331424222
   33      H      -3.9822502052     5.2186112111    -1.0498741849
   34      H     -10.5020894261     3.7358211692    -1.0329264417
   35      H     -10.7152689611     1.5546709182     0.6916001799
   36      H      -8.8992552922    -3.4679735608     3.4855371497
   37      H     -11.3759411867    -3.2526887782     2.4481305551
   38      H       2.7837220477     6.6986010987    -1.6786582540
   39      C       2.0350953668     8.3008628539    -0.4948912328
   40      H       1.7636477858     7.7493266476    -2.5504439623
   41      H       2.1679532273     7.8569372342     0.4997191598
   42      H       1.1250294011     8.9110129931    -0.5406923873
   43      C       3.1851227334     9.3192831566    -0.7839554871
   44      H       4.1511446442     8.8015769664    -0.7379340955
   45      C       3.2069661183    10.3824727763     0.3252386794
   46      H       2.9864850099     9.6920907785    -1.7958065295
   47      H       3.4904987740     9.9993114409     1.3133063006
   48      H       2.2062968671    10.8040622699     0.4795997780
   49      C       4.1518236581    11.5006660833    -0.1951169276
   50      H       5.2124038822    11.2198975584    -0.1879319643
   51      C       4.0295660280    12.8456580312     0.5026500335
   52      H       3.9692839113    11.7287933939    -1.2521837046
   53      H       3.0435783308    13.2961143676     0.3342447192
   54      H       4.8129795302    13.5565997674     0.2124877819
   55      H       4.2379923552    12.5676208751     1.5431671194
   56      C      -1.4632015996    -4.5222520131    -0.0867424343
   57      C      -0.4619317775    -5.1438324710     0.6958363016
   58      N      -1.2995621140    -3.3474687276    -0.6688793174
   59      C       0.7311442359    -4.4905667468     0.8903575596
   60      C      -0.0878587186    -2.7587120480    -0.5689921115
   61      C       0.8805061933    -3.2581177143     0.2948859921
   62      C       2.3018532976    -2.7228973115     0.2371839142
   63      C       3.0265746022    -2.6761132459    -0.9768223798
   64      C       3.0746039320    -2.4061529102     1.4082152720
   65      N       4.3475482508    -2.4362104631    -1.0489699682
   66      N       2.5383322362    -2.4290469978     2.6523714234
   67      C       4.4240277217    -2.0420914945     1.3330306886
   68      C       5.0752867736    -2.0888948787     0.0565609121
   69      S       3.7146507035    -1.9449782012     3.6638140879
   70      N       4.9716726331    -1.8730649154     2.5568338046
   71      C       6.5126606541    -2.0767417602    -0.0891738791
   72      S       7.7179461879    -2.2405202309     1.2295745407
   73      C       7.2101554953    -2.2144609713    -1.2818667840
   74      C       9.0367824401    -2.0313168754     0.1747423759
   75      S       6.5813388497    -2.3482554698    -2.9231813969
   76      C       8.5816834360    -2.2204132370    -1.1224532387
   77      C      10.3757848107    -1.7084567831     0.6033482697
   78      C       8.2305106901    -2.6619472340    -3.4093096907
   79      C       9.1780509225    -2.3971590587    -2.4039108991
   80      N      11.3538948990    -1.4460114104    -0.2619054974
   81      S      10.7696406011    -1.5198332701     2.2666668762
   82      C      12.5095261796    -1.0901212487     0.4857772804
   83      C      12.4172109958    -1.2077916736     1.8502249994
   84      C      -2.7455800197    -5.3021439696    -0.3456055717
   85      H      -0.6229968874    -6.1765238807     0.9892583229
   86      H       1.5055801122    -5.0235616729     1.4346088640
   87      H       0.0531779299    -1.9039499041    -1.2293119893
   88      H       2.5528573594    -3.0240420116    -1.8930841043
   89      H       8.4278333955    -2.9442533584    -4.4349563170
   90      H      10.2185518500    -2.4822952396    -2.6939982148
   91      H      13.3434404982    -0.7439035726    -0.1099124291
   92      H      13.1858606896    -1.0706100424     2.5988189135
   93      H      -2.9196546926    -5.9551335792     0.5191484846
   94      C      -2.7957384893    -6.3054758377    -1.5096933220
   95      H      -3.6163107277    -4.6445025897    -0.4564245666
   96      H      -2.3867879907    -7.2298289593    -1.0845100719
   97      H      -2.1751687111    -5.9306029840    -2.3328758619
   98      C      -4.2802393656    -6.6253209052    -1.8711643182
   99      H      -4.8148652730    -6.8263583140    -0.9349468759
  100      C      -4.3118362676    -7.8425382140    -2.8273639099
  101      H      -4.8241773391    -5.8009951425    -2.3495820415
  102      H      -3.6932177267    -8.6578031060    -2.4326941028
  103      H      -3.7776285776    -7.6467373436    -3.7659059511
  104      C      -5.7477872230    -8.2882525201    -3.2061218945
  105      H      -6.3516332964    -7.4942880335    -3.6621518428
  106      C      -6.6188070694    -8.8079963662    -2.1031641611
  107      H      -5.6135774578    -8.9491641973    -4.0713204231
  108      H      -7.5352686981    -9.1534673087    -2.5972915849
  109      H      -6.7966780076    -8.0214096243    -1.3596392948
  110      H      -6.0972325090    -9.6579251286    -1.6465033715
 ----------------------------------------------------------------

    9   -5663.5171122767      6.80E-06 Convergence criterion met
 Total energy in the final basis set = -5663.5171122767

                    Orbital Energies (a.u.)
 --------------------------------------------------------------

 Alpha MOs
 -- Occupied --
-88.989 -88.978 -88.928 -88.925 -88.925 -88.917 -88.911 -88.907
-14.387 -14.383 -14.382 -14.373 -14.352 -14.345 -14.342 -14.336
-14.331 -14.327 -10.270 -10.267 -10.264 -10.257 -10.257 -10.256
-10.243 -10.242 -10.242 -10.241 -10.241 -10.236 -10.233 -10.233
-10.232 -10.231 -10.230 -10.230 -10.229 -10.229 -10.229 -10.229
-10.228 -10.227 -10.226 -10.225 -10.221 -10.217 -10.215 -10.214
-10.212 -10.212 -10.210 -10.202 -10.202 -10.201 -10.199 -10.198
-10.184 -10.182 -10.181 -10.180 -10.179 -10.179 -10.178 -10.177
-10.174 -10.173 -10.171 -10.167  -8.044  -8.034  -7.989  -7.988
 -7.985  -7.975  -7.970  -7.965  -6.009  -6.004  -6.002  -5.999
 -5.993  -5.991  -5.953  -5.952  -5.950  -5.949  -5.948  -5.946
 -5.945  -5.945  -5.942  -5.940  -5.936  -5.934  -5.932  -5.931
 -5.930  -5.927  -5.926  -5.922  -1.041  -1.031  -0.980  -0.964
 -0.954  -0.949  -0.949  -0.937  -0.918  -0.908  -0.899  -0.898
 -0.849  -0.836  -0.834  -0.825  -0.810  -0.808  -0.807  -0.806
 -0.804  -0.801  -0.798  -0.790  -0.787  -0.787  -0.768  -0.764
 -0.754  -0.747  -0.742  -0.739  -0.726  -0.712  -0.711  -0.708
 -0.695  -0.690  -0.675  -0.665  -0.654  -0.649  -0.647  -0.644
 -0.635  -0.630  -0.630  -0.620  -0.613  -0.605  -0.597  -0.597
 -0.593  -0.592  -0.583  -0.580  -0.578  -0.577  -0.570  -0.566
 -0.551  -0.540  -0.539  -0.533  -0.523  -0.521  -0.515  -0.514
 -0.511  -0.501  -0.500  -0.498  -0.494  -0.485  -0.475  -0.475
 -0.474  -0.473  -0.472  -0.467  -0.466  -0.461  -0.450  -0.447
 -0.445  -0.442  -0.440  -0.438  -0.437  -0.435  -0.434  -0.431
 -0.427  -0.427  -0.423  -0.420  -0.420  -0.414  -0.413  -0.412
 -0.410  -0.409  -0.407  -0.403  -0.402  -0.398  -0.397  -0.392
 -0.392  -0.392  -0.391  -0.390  -0.389  -0.386  -0.384  -0.380
 -0.379  -0.377  -0.376  -0.372  -0.365  -0.364  -0.357  -0.355
 -0.352  -0.351  -0.349  -0.347  -0.345  -0.344  -0.343  -0.338
 -0.334  -0.333  -0.331  -0.329  -0.325  -0.324  -0.323  -0.319
 -0.318  -0.317  -0.312  -0.309  -0.302  -0.301  -0.298  -0.298
 -0.297  -0.292  -0.290  -0.288  -0.287  -0.284  -0.281  -0.279
 -0.275  -0.266  -0.264  -0.263  -0.254  -0.253  -0.252  -0.249
 -0.248  -0.236  -0.234  -0.225  -0.194  -0.190

          Ground-State Mulliken Net Atomic Charges

     Atom                 Charge (a.u.)
  ----------------------------------------
      1 C                     0.283505
      2 C                    -0.107294
      3 N                    -0.485833
      4 C                    -0.076408
      5 C                     0.074141
      6 C                     0.040082
      7 C                     0.061718
      8 C                     0.042447
      9 C                     0.222338
     10 N                    -0.532483
     11 N                    -0.556381
     12 C                     0.159658
     13 C                     0.296936
     14 S                     0.608950
     15 N                    -0.511714
     16 C                    -0.228578
     17 S                     0.361781
     18 C                    -0.120648
     19 C                    -0.245170
     20 S                     0.282330
     21 C                     0.153331
     22 C                     0.087188
     23 C                    -0.323805
     24 C                    -0.069897
     25 N                    -0.423426
     26 S                     0.257388
     27 C                     0.127836
     28 C                    -0.312007
     29 C                    -0.241581
     30 H                     0.103406
     31 H                     0.116973
     32 H                     0.111827
     33 H                     0.107297
     34 H                     0.133720
     35 H                     0.101611
     36 H                     0.122224
     37 H                     0.128191
     38 H                     0.100860
     39 C                    -0.186111
     40 H                     0.105577
     41 H                     0.087463
     42 H                     0.105457
     43 C                    -0.173240
     44 H                     0.093878
     45 C                    -0.171136
     46 H                     0.100476
     47 H                     0.094858
     48 H                     0.095056
     49 C                    -0.181359
     50 H                     0.091647
     51 C                    -0.315699
     52 H                     0.091826
     53 H                     0.102949
     54 H                     0.097471
     55 H                     0.097730
     56 C                     0.282029
     57 C                    -0.114905
     58 N                    -0.482077
     59 C                    -0.027209
     60 C                     0.061464
     61 C                     0.022235
     62 C                    -0.013277
     63 C                     0.074428
     64 C                     0.205127
     65 N                    -0.515964
     66 N                    -0.537910
     67 C                     0.229373
     68 C                     0.296999
     69 S                     0.598052
     70 N                    -0.581362
     71 C                    -0.225304
     72 S                     0.320471
     73 C                    -0.115393
     74 C                    -0.227378
     75 S                     0.297332
     76 C                     0.182332
     77 C                     0.085438
     78 C                    -0.296271
     79 C                    -0.092391
     80 N                    -0.443910
     81 S                     0.273245
     82 C                     0.107256
     83 C                    -0.302527
     84 C                    -0.239606
     85 H                     0.090356
     86 H                     0.110910
     87 H                     0.113853
     88 H                     0.116563
     89 H                     0.126821
     90 H                     0.118986
     91 H                     0.114362
     92 H                     0.141207
     93 H                     0.094279
     94 C                    -0.170763
     95 H                     0.118830
     96 H                     0.091913
     97 H                     0.106443
     98 C                    -0.176119
     99 H                     0.095646
    100 C                    -0.177385
    101 H                     0.103237
    102 H                     0.086018
    103 H                     0.091700
    104 C                    -0.184600
    105 H                     0.090254
    106 C                    -0.303661
    107 H                     0.085845
    108 H                     0.102348
    109 H                     0.106421
    110 H                     0.098883
  ----------------------------------------
  Sum of atomic charges =     0.000000

                    Cartesian Multipole Moments
 -----------------------------------------------------------------
    Charge (ESU x 10^10)
                 0.0000
    Dipole Moment (Debye)
         X       1.4627      Y      -3.7625      Z       2.5937
       Tot       4.7983
    Quadrupole Moments (Debye-Ang)
        XX    -372.6993     XY      20.7616     YY    -432.4236
        XZ       9.2838     YZ       0.1382     ZZ    -439.0517

 Total job time:  79.54s(wall), 919.95s(cpu)
        *  Thank you very much for using Q-Chem.  Have a nice day.  *
