 Q-Chem 4.4, Q-Chem, Inc., Pleasanton, CA (2016)
 Q-Chem 4.4.2 for Intel X86 Linux

User input:
--------------------------------------------------------------
$comment
SP
$end

$rem
MEM_STATIC 5000
MEM_TOTAL 20000
JOBTYPE SP
EXCHANGE B3LYP
BASIS 6-31g(d,p)
$end

$molecule
0 1
O          27.846000    -30.758000     -7.232000
C          29.043000    -31.030000     -8.022000
H          29.848000    -30.373000     -7.670000
H          28.750000    -30.586000     -8.982000
H          29.315000    -32.092000     -8.035000
O          28.892000    -29.876000     -5.350000
C          27.867000    -30.242000     -5.922000
C          26.519000    -30.118000     -5.350000
H          26.716000    -29.837000     -4.308000
H          26.000000    -31.084000     -5.389000
C          25.707000    -28.914000     -5.874000
H          26.343000    -28.022000     -5.933000
H          25.268000    -29.064000     -6.868000
C          24.679000    -28.526000     -4.822000
H          24.139000    -29.458000     -4.617000
H          25.096000    -28.131000     -3.887000
C          23.618000    -27.422000     -5.237000
C          22.600000    -28.092000     -6.100000
C          21.489000    -28.722000     -5.489000
H          21.396000    -28.498000     -4.430000
C          20.495000    -29.391000     -6.288000
H          19.620000    -29.823000     -5.811000
C          20.753000    -29.480000     -7.634000
H          20.031000    -30.091000     -8.168000
C          21.902000    -28.923000     -8.252000
H          22.062000    -29.063000     -9.317000
C          22.758000    -28.270000     -7.475000
H          23.692000    -27.884000     -7.874000
C          22.708000    -22.393000     -7.404000
C          20.847000    -22.653000     -5.808000
C          22.512000    -19.724000     -2.742000
C          27.218000    -23.297000     -5.171000
C          23.930000    -22.180000     -0.646000
C          21.710000    -23.235000     -6.793000
C          26.955000    -22.450000     -2.535000
C          22.367000    -19.531000     -5.136000
C          22.100000    -25.092000     -2.850000
C          27.070000    -24.252000     -4.123000
C          23.363000    -26.286000     -4.326000
C          23.288000    -25.267000     -2.176000
C          25.960000    -24.610000     -2.165000
C          26.115000    -21.869000     -1.579000
C          21.401000    -24.769000     -5.115000
C          24.520000    -20.123000     -1.744000
C          24.032000    -26.025000     -5.574000
C          25.428000    -25.486000     -5.557000
C          23.607000    -20.897000     -1.079000
C          25.881000    -20.007000     -5.518000
C          24.493000    -19.073000     -3.962000
C          23.756000    -19.134000     -5.185000
C          21.897000    -20.509000     -6.062000
C          25.545000    -24.455000     -6.492000
C          22.103000    -25.616000     -4.165000
C          20.945000    -21.296000     -5.436000
C          26.950000    -23.816000     -2.792000
C          20.691000    -23.594000     -4.790000
C          23.795000    -24.392000     -1.206000
C          26.045000    -22.046000     -6.669000
C          21.724000    -19.834000     -3.892000
C          24.133000    -25.965000     -3.084000
C          24.112000    -20.621000     -7.048000
C          25.088000    -24.007000     -1.271000
C          21.367000    -23.958000     -2.446000
C          26.468000    -20.306000     -3.207000
C          27.190000    -21.482000     -3.527000
C          21.815000    -23.049000     -1.426000
C          26.449000    -23.351000     -6.309000
C          26.184000    -25.357000     -4.317000
C          26.593000    -21.182000     -5.800000
C          23.383000    -25.082000     -6.576000
C          20.686000    -21.861000     -3.024000
C          25.471000    -25.527000     -3.094000
C          23.046000    -23.270000     -0.773000
C          24.817000    -21.764000     -7.299000
C          22.351000    -20.698000     -1.729000
C          22.726000    -20.982000     -7.068000
C          23.877000    -19.387000     -2.722000
C          20.654000    -23.188000     -3.395000
C          21.439000    -21.742000     -1.838000
C          22.035000    -24.543000     -6.335000
C          24.318000    -24.157000     -7.104000
C          25.811000    -19.580000     -4.194000
C          20.857000    -20.876000     -4.058000
C          25.200000    -22.677000     -0.878000
C          27.263000    -21.906000     -4.868000
C          25.815000    -20.563000     -1.962000
C          23.981000    -22.865000     -7.527000
C          24.614000    -19.738000     -6.114000
O          25.962000    -32.107000    -14.698000
C          24.825000    -31.667000    -15.460000
H          24.445000    -32.489000    -16.079000
H          25.107000    -30.819000    -16.097000
H          23.939000    -31.370000    -14.885000
O          27.172000    -32.907000    -16.534000
C          27.060000    -32.547000    -15.362000
C          28.181000    -32.818000    -14.390000
H          27.982000    -33.826000    -14.006000
H          28.177000    -32.194000    -13.488000
C          29.620000    -32.685000    -14.973000
H          30.273000    -33.144000    -14.221000
H          29.712000    -33.195000    -15.940000
C          30.066000    -31.202000    -15.034000
H          30.979000    -31.045000    -15.622000
H          29.286000    -30.770000    -15.672000
C          30.181000    -30.401000    -13.791000
C          31.200000    -30.927000    -12.854000
C          32.512000    -30.978000    -13.297000
H          32.759000    -30.424000    -14.198000
C          33.530000    -31.698000    -12.715000
H          34.509000    -31.698000    -13.185000
C          33.211000    -32.307000    -11.481000
H          34.047000    -32.807000    -11.001000
C          31.962000    -32.167000    -10.883000
H          31.723000    -32.610000     -9.921000
C          30.889000    -31.564000    -11.622000
H          29.875000    -31.688000    -11.252000
C          27.352000    -27.945000     -9.793000
C          29.257000    -26.518000     -9.995000
C          27.178000    -23.018000    -11.933000
C          25.037000    -28.462000    -14.221000
C          28.098000    -23.808000    -15.122000
C          28.697000    -27.763000    -10.071000
C          25.424000    -26.141000    -15.697000
C          26.469000    -24.436000    -10.072000
C          30.661000    -26.572000    -13.699000
C          26.101000    -28.364000    -15.154000
C          29.972000    -28.854000    -13.863000
C          30.078000    -26.647000    -14.961000
C          27.639000    -27.042000    -16.119000
C          26.003000    -24.817000    -15.727000
C          30.351000    -27.731000    -11.584000
C          26.106000    -23.138000    -13.870000
C          28.931000    -29.724000    -13.183000
C          27.575000    -29.651000    -13.807000
C          27.515000    -22.994000    -14.096000
C          24.103000    -25.984000    -12.017000
C          24.906000    -23.946000    -11.876000
C          25.191000    -24.601000    -10.679000
C          27.119000    -25.522000     -9.509000
C          26.561000    -29.694000    -12.816000
C          30.623000    -27.827000    -12.964000
C          28.516000    -25.363000     -9.696000
C          26.286000    -27.217000    -15.859000
C          30.227000    -26.485000    -11.017000
C          29.481000    -25.607000    -15.569000
C          24.637000    -28.369000    -11.976000
C          27.418000    -23.608000    -10.673000
C          29.640000    -27.991000    -15.074000
C          25.255000    -26.963000    -10.126000
C          28.208000    -25.756000    -16.199000
C          30.754000    -25.330000    -13.068000
C          24.385000    -24.883000    -14.098000
C          24.372000    -26.140000    -14.747000
C          30.036000    -24.240000    -13.667000
C          25.231000    -29.100000    -13.021000
C          27.355000    -28.876000    -14.964000
C          24.051000    -27.249000    -12.669000
C          28.584000    -29.491000    -11.804000
C          29.656000    -24.175000    -11.498000
C          28.334000    -28.123000    -15.599000
C          29.384000    -24.380000    -14.904000
C          25.269000    -28.191000    -10.754000
C          28.177000    -22.964000    -12.911000
C          26.551000    -26.800000     -9.529000
C          25.914000    -23.105000    -12.466000
C          30.461000    -25.242000    -11.702000
C          29.433000    -23.508000    -12.683000
C          29.303000    -28.515000    -11.062000
C          27.203000    -29.497000    -11.588000
C          24.172000    -24.826000    -12.686000
C          28.690000    -24.186000    -10.430000
C          27.403000    -24.620000    -16.007000
C          24.192000    -27.358000    -14.047000
C          25.360000    -24.038000    -14.693000
C          26.546000    -28.815000    -10.560000
C          24.611000    -25.831000    -10.696000
$end

--------------------------------------------------------------

             Standard Nuclear Orientation (Angstroms)
    I     Atom           X                Y                Z
 ----------------------------------------------------------------
    1      O      -1.8816404537    -5.0845353979    -1.1249753723
    2      C      -3.0882590330    -4.9105574704    -1.9279051855
    3      H      -2.7939657479    -4.5633923895    -2.9261265382
    4      H      -3.5097039078    -4.0129987337    -1.4574187013
    5      H      -3.7253901632    -5.8026718222    -1.9417942536
    6      O      -0.3699834409    -5.3785107430    -2.8692332581
    7      C      -0.6095435127    -5.3577109428    -1.6634375290
    8      C       0.4106841507    -5.5356258247    -0.6207746833
    9      H       1.2903134678    -5.8653880141    -1.1873813925
   10      H       0.1005548239    -6.3173938870     0.0839922977
   11      C       0.9022576976    -4.2235770388     0.0276229041
   12      H       1.0547923238    -3.4534910347    -0.7387593335
   13      H       0.2166020778    -3.8047222883     0.7744120772
   14      C       2.3071038921    -4.4446506022     0.5675910972
   15      H       2.2127297883    -5.3290840832     1.2087774556
   16      H       3.0757508164    -4.6250345978    -0.1944997897
   17      C       2.9291295754    -3.2707079073     1.4346000927
   18      C       2.3091620444    -3.3488369318     2.7908925081
   19      C       2.8981517930    -4.1870278658     3.7681688426
   20      H       3.8729673015    -4.5682478819     3.4771155421
   21      C       2.3196787475    -4.2993283721     5.0822295459
   22      H       2.8119098223    -4.9031869024     5.8390924426
   23      C       1.1241812347    -3.6528271647     5.2797716572
   24      H       0.6786126232    -3.8646768491     6.2474231046
   25      C       0.4792944132    -2.8730415355     4.2855738097
   26      H      -0.4842001611    -2.4192020454     4.4980189144
   27      C       1.0849931029    -2.7596255579     3.1095041207
   28      H       0.6087611164    -2.2377371588     2.2840414663
   29      C       4.0581437022     2.1492024642     1.8404678869
   30      C       5.8852102415     1.1054962732     3.1252411150
   31      C       9.0986208146     1.8831298680    -0.0085904824
   32      C       3.6498979752     0.0947015480    -2.8238612623
   33      C       8.9903824685    -1.3429529353    -1.4286433712
   34      C       4.4997143392     1.1303723610     2.7598642069
   35      C       6.2310532884    -0.6099999964    -3.5828783782
   36      C       7.3746057895     3.3405019520     0.8240852061
   37      C       6.5227744769    -2.5682828101     1.5872706690
   38      C       4.0554660155    -1.2717657695    -2.8011756985
   39      C       4.2993313439    -2.8013184656     1.1385212761
   40      C       6.5135381996    -3.1026455355     0.3181701336
   41      C       5.8327610284    -2.6080635004    -2.3016170818
   42      C       7.5846292630    -0.6205169786    -3.2295817970
   43      C       5.1739871962    -1.0602562175     2.8639004773
   44      C       8.9215490587     0.9692879526    -2.0872457080
   45      C       3.1972965002    -1.9212084114     0.8485014568
   46      C       2.9469753083    -1.5041415204    -0.5667796140
   47      C       9.4066946913    -0.0231249985    -1.2781596497
   48      C       5.5079994387     3.0771268297    -2.2036384069
   49      C       7.7132471926     3.0506173163    -1.6068004141
   50      C       7.0052338620     3.6738186294    -0.5330424120
   51      C       6.3455642430     3.0264070943     1.7607163587
   52      C       2.6791136624    -0.1340919773    -0.6124894390
   53      C       5.2337148243    -2.2996124199     2.1068391760
   54      C       6.8085578585     2.0448674724     2.6208127968
   55      C       5.3580244857    -1.6208383728    -3.1980972894
   56      C       6.2772312416    -0.2328398163     3.1615322554
   57      C       7.5121921782    -2.8997106436    -0.6436415219
   58      C       3.5390523825     1.9790783831    -1.5503734540
   59      C       8.4429330577     2.4266928957     1.1005338571
   60      C       5.1379380641    -3.2166022058    -0.0288617733
   61      C       4.6783120367     3.4208569210     0.0415175875
   62      C       7.1607863420    -2.5659743655    -1.9043687069
   63      C       7.6763672687    -1.8175594435     1.8907490004
   64      C       6.9471150301     1.5666690574    -3.3961796568
   65      C       5.8427408166     0.7354770027    -3.7062399167
   66      C       8.7533114761    -1.6118382786     0.9605581726
   67      C       3.0240182700     0.6785455486    -1.7483512542
   68      C       3.6946295953    -2.0796611014    -1.6783403542
   69      C       4.4376604144     2.2264631212    -2.5164300757
   70      C       3.1241060250    -0.5740314616     1.5515031782
   71      C       8.5164179925     0.2726258787     2.2381595648
   72      C       4.8386630148    -2.8688279581    -1.3599047919
   73      C       8.6886382109    -2.1744247008    -0.3316975630
   74      C       3.6506798029     2.5805308039    -0.2814359833
   75      C       9.4723478591     0.5198172129     0.0411357746
   76      C       5.0102834433     3.1550203585     1.4093051833
   77      C       8.7627771578     2.1291796830    -1.3516699762
   78      C       7.5836172947    -0.6433314589     2.6746214918
   79      C       9.2180028104    -0.2821059713     1.1482892432
   80      C       4.0898851263    -0.2240282354     2.6052937025
   81      C       2.8123449153     0.4710916479     0.6464304206
   82      C       6.7816750320     2.7232768117    -2.6426664786
   83      C       8.1278831496     1.6563342762     2.1832619637
   84      C       8.0819477248    -1.6609355907    -2.4223064667
   85      C       4.5560981702     1.1009682904    -3.2653852705
   86      C       8.0427056627     0.6912307261    -3.1209127066
   87      C       3.2462346584     1.7933715524     0.8047893331
   88      C       5.6546246329     3.6500528336    -0.9062861623
   89      O      -7.6773604337    -2.1533426114     3.2256742071
   90      C      -7.6256592012    -1.3494570684     4.4165176126
   91      H      -8.3715524618    -1.6997206128     5.1405367376
   92      H      -7.8130628377    -0.2974973802     4.1662024285
   93      H      -6.6929834167    -1.3924557591     4.9927961855
   94      O      -9.9682112173    -1.8594423055     2.8506791439
   95      C      -8.8306479636    -2.1868186631     2.5122968685
   96      C      -8.6285245468    -2.9614992188     1.2340628676
   97      H      -8.7495818037    -4.0131957602     1.5211177844
   98      H      -7.6130913881    -2.9230831449     0.8212484959
   99      C      -9.5651227457    -2.5631378251     0.0540666753
  100      H      -9.4504535812    -3.3681212805    -0.6817638890
  101      H     -10.6085930093    -2.4722543612     0.3805065700
  102      C      -9.0506033381    -1.2908507249    -0.6659897906
  103      H      -9.7797790447    -0.8592724477    -1.3631303644
  104      H      -9.0411733881    -0.5676276301     0.1579807375
  105      C      -7.7260457837    -1.2898489509    -1.3333886829
  106      C      -7.6384055570    -2.2582497449    -2.4503153111
  107      C      -8.5079840924    -2.0878149468    -3.5156693135
  108      H      -9.0337958404    -1.1401164561    -3.5871925717
  109      C      -8.7935677930    -3.0278677957    -4.4790957981
  110      H      -9.5328308498    -2.7934050737    -5.2392657560
  111      C      -8.0068777180    -4.2001701242    -4.4319367449
  112      H      -8.1947796246    -4.8964454871    -5.2438415992
  113      C      -6.9959523938    -4.3805942316    -3.4924251002
  114      H      -6.3706731062    -5.2679535588    -3.4716107558
  115      C      -6.8701253629    -3.4531947803    -2.4037760217
  116      H      -6.2570331888    -3.7373587630    -1.5529876714
  117      C      -2.3118141236    -1.3251531339    -0.4943236402
  118      C      -2.4886651497    -0.0525194914    -2.5080975418
  119      C      -1.4911179498     3.9799005776    -0.7552219126
  120      C      -5.1553431083     0.6750413990     3.1315917950
  121      C      -4.7262745578     5.0181511090    -0.4453533019
  122      C      -2.9498163923    -1.0483238419    -1.6925521862
  123      C      -5.3129017892     3.4174662231     2.7196848318
  124      C      -0.4646558026     1.7959775832    -0.3633267549
  125      C      -5.9475684363     1.8736207607    -2.6485246868
  126      C      -6.2409806105     1.2402062609     2.4145360839
  127      C      -6.9401459210     0.0550887756    -1.4582002117
  128      C      -6.7514274889     2.5030673463    -1.7020757345
  129      C      -6.9277568460     2.8434788307     0.9995419252
  130      C      -4.9029777495     4.5365959368     1.9019880874
  131      C      -4.7458462003    -0.2372415816    -2.7613512766
  132      C      -2.6601448219     4.9453808681     0.8624235928
  133      C      -6.4420579861    -1.0237037731    -0.5142213740
  134      C      -6.3802670027    -0.5988758656     0.9172618160
  135      C      -3.3004534179     5.1609076354    -0.4027428447
  136      C      -1.8534667180     1.5893372211     2.7680928915
  137      C      -1.0424764816     3.2126923784     1.5331245236
  138      C      -0.5365238678     2.0097957263     1.0431137105
  139      C      -0.8060554370     0.5653683654    -0.8999013003
  140      C      -5.2410600554    -1.1500367911     1.5580076044
  141      C      -5.9767237832     0.4214442280    -2.5646957909
  142      C      -1.4038824577     0.7727055946    -2.1693394148
  143      C      -6.2973596103     2.5824127958     2.2092021463
  144      C      -3.6403851037     0.5078199203    -3.0963439963
  145      C      -6.4880465866     3.7182100197    -1.1904784480
  146      C      -3.2002118033    -0.4505180430     2.7862636579
  147      C      -0.8867180778     2.7985891852    -1.2374087942
  148      C      -7.3366447953     1.4415194097    -0.9661506822
  149      C      -1.2928334142    -0.2778194836     1.3325295390
  150      C      -6.5719257557     3.9578095163     0.2149347888
  151      C      -4.8762794042     2.5765162668    -3.2031882940
  152      C      -3.0465577368     3.6335846944     2.9090612885
  153      C      -4.1696788409     2.9262104695     3.3985913606
  154      C      -4.5352995357     3.8312560370    -2.5934458579
  155      C      -4.6041430589    -0.5133816598     2.7210931487
  156      C      -6.8203723249     0.6821503767     1.3083539689
  157      C      -2.9680903243     0.8776143853     3.2963899871
  158      C      -5.1159475438    -1.5650772824    -0.6713354042
  159      C      -2.6610621023     2.7227579301    -2.9275895252
  160      C      -7.3174214720     1.6394029049     0.4335484234
  161      C      -5.3254753507     4.3938583301    -1.5766008151
  162      C      -2.3954515239    -0.9726507761     1.7842006351
  163      C      -2.6090330555     4.5335971506    -1.3885361486
  164      C      -1.2366074990    -0.4882767696    -0.0870268625
  165      C      -1.4718927508     4.2191505051     0.5981974104
  166      C      -3.6523429248     1.9190656546    -3.3743232905
  167      C      -3.1752168790     3.9280609134    -2.5012884766
  168      C      -4.3263812230    -1.1582418036    -1.7809168199
  169      C      -4.4260242903    -1.6596133761     0.5406554502
  170      C      -1.8322407837     2.9236472911     2.6565039273
  171      C      -1.4639964118     2.1560283208    -2.3621230960
  172      C      -5.5560078409     4.8260498508     0.6501985159
  173      C      -4.1541285971     1.5268498360     3.6164720785
  174      C      -3.4653993835     4.6467553139     2.0053290435
  175      C      -3.0356747812    -1.6275775888     0.6801507944
  176      C      -0.9365018408     0.9951643377     1.8555974128
 ----------------------------------------------------------------

    9   -5804.2412297803      8.96E-06 Convergence criterion met
 Total energy in the final basis set = -5804.2412297803

                    Orbital Energies (a.u.)
 --------------------------------------------------------------

 Alpha MOs
 -- Occupied --
-19.204 -19.180 -19.142 -19.135 -10.324 -10.316 -10.251 -10.248
-10.247 -10.244 -10.243 -10.239 -10.238 -10.238 -10.236 -10.236
-10.232 -10.232 -10.231 -10.230 -10.228 -10.228 -10.228 -10.228
-10.227 -10.227 -10.226 -10.224 -10.224 -10.223 -10.223 -10.223
-10.223 -10.222 -10.222 -10.222 -10.222 -10.222 -10.222 -10.221
-10.221 -10.221 -10.221 -10.220 -10.220 -10.220 -10.220 -10.219
-10.219 -10.219 -10.219 -10.219 -10.219 -10.219 -10.219 -10.218
-10.218 -10.218 -10.218 -10.218 -10.218 -10.218 -10.218 -10.217
-10.217 -10.217 -10.217 -10.216 -10.216 -10.216 -10.216 -10.216
-10.216 -10.216 -10.216 -10.216 -10.216 -10.216 -10.215 -10.215
-10.215 -10.215 -10.215 -10.215 -10.215 -10.215 -10.215 -10.215
-10.215 -10.215 -10.215 -10.215 -10.215 -10.214 -10.214 -10.214
-10.214 -10.214 -10.214 -10.214 -10.214 -10.213 -10.213 -10.213
-10.213 -10.213 -10.213 -10.213 -10.213 -10.213 -10.212 -10.212
-10.212 -10.211 -10.211 -10.211 -10.211 -10.210 -10.210 -10.210
-10.210 -10.210 -10.210 -10.210 -10.209 -10.207 -10.207 -10.207
-10.206 -10.206 -10.205 -10.205 -10.205 -10.205 -10.205 -10.204
-10.203 -10.202 -10.202 -10.202 -10.200 -10.199 -10.199 -10.199
-10.199 -10.195 -10.194 -10.189  -1.099  -1.070  -1.016  -0.999
 -0.988  -0.984  -0.971  -0.970  -0.968  -0.967  -0.964  -0.959
 -0.939  -0.939  -0.933  -0.931  -0.928  -0.927  -0.926  -0.923
 -0.921  -0.919  -0.903  -0.897  -0.896  -0.891  -0.890  -0.885
 -0.881  -0.875  -0.860  -0.859  -0.846  -0.843  -0.840  -0.840
 -0.837  -0.835  -0.826  -0.822  -0.813  -0.807  -0.801  -0.800
 -0.799  -0.797  -0.797  -0.795  -0.792  -0.790  -0.790  -0.783
 -0.774  -0.772  -0.772  -0.769  -0.769  -0.768  -0.765  -0.765
 -0.758  -0.754  -0.750  -0.741  -0.738  -0.735  -0.720  -0.720
 -0.717  -0.716  -0.715  -0.714  -0.712  -0.711  -0.711  -0.709
 -0.709  -0.708  -0.708  -0.706  -0.704  -0.700  -0.678  -0.674
 -0.663  -0.661  -0.659  -0.656  -0.653  -0.648  -0.640  -0.633
 -0.632  -0.630  -0.628  -0.626  -0.625  -0.622  -0.621  -0.619
 -0.617  -0.616  -0.616  -0.614  -0.614  -0.612  -0.611  -0.609
 -0.608  -0.608  -0.603  -0.601  -0.575  -0.567  -0.567  -0.565
 -0.564  -0.562  -0.561  -0.560  -0.558  -0.558  -0.554  -0.554
 -0.543  -0.542  -0.538  -0.534  -0.532  -0.528  -0.527  -0.526
 -0.525  -0.524  -0.522  -0.520  -0.519  -0.518  -0.515  -0.514
 -0.511  -0.508  -0.505  -0.499  -0.498  -0.493  -0.489  -0.488
 -0.487  -0.485  -0.484  -0.483  -0.481  -0.478  -0.477  -0.476
 -0.475  -0.475  -0.473  -0.473  -0.472  -0.470  -0.469  -0.468
 -0.468  -0.466  -0.466  -0.465  -0.464  -0.463  -0.462  -0.460
 -0.459  -0.458  -0.457  -0.455  -0.452  -0.450  -0.446  -0.445
 -0.444  -0.443  -0.443  -0.442  -0.438  -0.438  -0.437  -0.435
 -0.434  -0.433  -0.433  -0.432  -0.430  -0.429  -0.429  -0.428
 -0.427  -0.425  -0.424  -0.423  -0.422  -0.421  -0.419  -0.419
 -0.418  -0.417  -0.417  -0.417  -0.416  -0.415  -0.415  -0.414
 -0.413  -0.411  -0.411  -0.410  -0.404  -0.402  -0.402  -0.400
 -0.398  -0.397  -0.394  -0.392  -0.391  -0.388  -0.385  -0.383
 -0.380  -0.380  -0.378  -0.372  -0.371  -0.371  -0.370  -0.367
 -0.366  -0.365  -0.362  -0.362  -0.361  -0.361  -0.359  -0.359
 -0.359  -0.359  -0.357  -0.357  -0.356  -0.355  -0.354  -0.353
 -0.353  -0.351  -0.350  -0.349  -0.347  -0.347  -0.346  -0.345
 -0.344  -0.343  -0.342  -0.341  -0.340  -0.340  -0.339  -0.336
 -0.336  -0.332  -0.332  -0.331  -0.329  -0.328  -0.326  -0.323
 -0.315  -0.310  -0.307  -0.293  -0.290  -0.288  -0.275  -0.274
 -0.272  -0.272  -0.269  -0.268  -0.266  -0.266  -0.265  -0.265
 -0.264  -0.262  -0.262  -0.261  -0.261  -0.259  -0.257  -0.256
 -0.256  -0.248  -0.245  -0.244  -0.225  -0.221  -0.216  -0.215
 -0.212  -0.208  -0.207  -0.206  -0.206  -0.197

          Ground-State Mulliken Net Atomic Charges

     Atom                 Charge (a.u.)
  ----------------------------------------
      1 O                    -0.496889
      2 C                    -0.090522
      3 H                     0.139244
      4 H                     0.130542
      5 H                     0.121560
      6 O                    -0.466287
      7 C                     0.581434
      8 C                    -0.240925
      9 H                     0.139748
     10 H                     0.129332
     11 C                    -0.186369
     12 H                     0.120543
     13 H                     0.121771
     14 C                    -0.182773
     15 H                     0.115589
     16 H                     0.111646
     17 C                    -0.017801
     18 C                     0.112329
     19 C                    -0.128607
     20 H                     0.084769
     21 C                    -0.080336
     22 H                     0.096487
     23 C                    -0.098552
     24 H                     0.083068
     25 C                    -0.081534
     26 H                     0.096784
     27 C                    -0.105045
     28 H                     0.082148
     29 C                    -0.029464
     30 C                    -0.006870
     31 C                     0.008123
     32 C                    -0.000552
     33 C                     0.006434
     34 C                    -0.011626
     35 C                     0.033383
     36 C                    -0.021494
     37 C                    -0.000393
     38 C                    -0.004470
     39 C                    -0.092086
     40 C                    -0.001420
     41 C                     0.000453
     42 C                    -0.002545
     43 C                     0.003001
     44 C                     0.027340
     45 C                    -0.068680
     46 C                     0.032547
     47 C                     0.007340
     48 C                    -0.002283
     49 C                    -0.019313
     50 C                    -0.006586
     51 C                     0.028452
     52 C                    -0.005891
     53 C                     0.053698
     54 C                     0.000465
     55 C                    -0.011434
     56 C                     0.002483
     57 C                     0.011237
     58 C                     0.005397
     59 C                     0.004351
     60 C                     0.013777
     61 C                    -0.005083
     62 C                     0.026931
     63 C                    -0.003522
     64 C                    -0.002735
     65 C                    -0.017216
     66 C                    -0.003816
     67 C                    -0.012477
     68 C                    -0.024746
     69 C                     0.025975
     70 C                     0.015015
     71 C                    -0.018889
     72 C                     0.003971
     73 C                    -0.040760
     74 C                     0.008900
     75 C                    -0.010979
     76 C                    -0.020463
     77 C                     0.005101
     78 C                    -0.001671
     79 C                    -0.000218
     80 C                    -0.018387
     81 C                     0.027269
     82 C                    -0.000596
     83 C                     0.006893
     84 C                    -0.012597
     85 C                    -0.021070
     86 C                    -0.015696
     87 C                     0.030116
     88 C                     0.013451
     89 O                    -0.461896
     90 C                    -0.093158
     91 H                     0.127081
     92 H                     0.128196
     93 H                     0.127604
     94 O                    -0.484693
     95 C                     0.626849
     96 C                    -0.261987
     97 H                     0.137675
     98 H                     0.116651
     99 C                    -0.182034
    100 H                     0.105533
    101 H                     0.129312
    102 C                    -0.191552
    103 H                     0.109933
    104 H                     0.109421
    105 C                     0.015309
    106 C                     0.118984
    107 C                    -0.109885
    108 H                     0.084546
    109 C                    -0.076293
    110 H                     0.101906
    111 C                    -0.093334
    112 H                     0.091153
    113 C                    -0.089954
    114 H                     0.093122
    115 C                    -0.131403
    116 H                     0.099691
    117 C                    -0.018886
    118 C                     0.005066
    119 C                     0.020489
    120 C                     0.020196
    121 C                     0.021202
    122 C                     0.027946
    123 C                    -0.010032
    124 C                     0.018053
    125 C                     0.021568
    126 C                    -0.002240
    127 C                    -0.077010
    128 C                     0.074003
    129 C                     0.006074
    130 C                    -0.020687
    131 C                    -0.019395
    132 C                    -0.022452
    133 C                    -0.093216
    134 C                     0.010309
    135 C                    -0.027343
    136 C                     0.027490
    137 C                    -0.017450
    138 C                     0.017707
    139 C                     0.015758
    140 C                     0.017642
    141 C                     0.028262
    142 C                    -0.014776
    143 C                     0.018178
    144 C                     0.001129
    145 C                    -0.015861
    146 C                    -0.025137
    147 C                    -0.030413
    148 C                    -0.021420
    149 C                    -0.008405
    150 C                    -0.022680
    151 C                    -0.047761
    152 C                    -0.004290
    153 C                    -0.001831
    154 C                    -0.014103
    155 C                    -0.023921
    156 C                     0.000854
    157 C                    -0.000871
    158 C                     0.029142
    159 C                     0.027003
    160 C                     0.001696
    161 C                     0.006964
    162 C                     0.016123
    163 C                     0.039866
    164 C                    -0.016081
    165 C                    -0.001372
    166 C                     0.000172
    167 C                     0.007939
    168 C                     0.005421
    169 C                     0.012587
    170 C                    -0.004754
    171 C                    -0.015069
    172 C                    -0.016072
    173 C                    -0.023071
    174 C                     0.016762
    175 C                    -0.008098
    176 C                    -0.015105
  ----------------------------------------
  Sum of atomic charges =     0.000000

                    Cartesian Multipole Moments
 -----------------------------------------------------------------
    Charge (ESU x 10^10)
                 0.0000
    Dipole Moment (Debye)
         X      -3.1578      Y      -2.1540      Z       0.8868
       Tot       3.9240
    Quadrupole Moments (Debye-Ang)
        XX    -812.5545     XY       8.6921     YY    -799.8528
        XZ      21.8547     YZ     -10.0576     ZZ    -802.6893

 Total job time:  867.45s(wall), 7449.88s(cpu)
        *  Thank you very much for using Q-Chem.  Have a nice day.  *
