 Q-Chem 4.4, Q-Chem, Inc., Pleasanton, CA (2016)
 Q-Chem 4.4.2 for Intel X86 Linux

User input:
--------------------------------------------------------------
$comment
SP
$end

$rem
MEM_STATIC 5000
MEM_TOTAL 20000
JOBTYPE SP
EXCHANGE B3LYP
BASIS 6-31g(d,p)
$end

$molecule
0 1
O         -22.979000     28.399000      0.195000
C         -22.019000     27.440000      0.622000
H         -22.119000     26.504000      0.058000
H         -22.295000     27.153000      1.644000
H         -20.981000     27.779000      0.521000
O         -24.852000     27.105000      0.219000
C         -24.305000     28.156000      0.042000
C         -25.112000     29.360000     -0.452000
H         -24.989000     30.119000      0.331000
H         -26.186000     29.158000     -0.554000
C         -24.707000     29.840000     -1.850000
H         -25.041000     30.854000     -2.102000
H         -23.612000     29.911000     -1.875000
C         -25.172000     28.912000     -2.936000
H         -24.990000     27.889000     -2.584000
H         -26.268000     28.879000     -2.963000
C         -24.337000     29.102000     -4.262000
C         -24.823000     30.201000     -5.095000
C         -24.161000     31.433000     -5.108000
H         -23.168000     31.578000     -4.691000
C         -24.707000     32.565000     -5.706000
H         -24.113000     33.470000     -5.800000
C         -26.012000     32.449000     -6.364000
H         -26.451000     33.291000     -6.891000
C         -26.693000     31.191000     -6.383000
H         -27.610000     31.091000     -6.957000
C         -26.095000     30.095000     -5.771000
H         -26.647000     29.165000     -5.678000
C         -21.861000     26.943000     -8.711000
C         -20.301000     28.632000     -7.978000
C         -17.114000     25.783000     -6.424000
C         -22.919000     23.838000     -4.939000
C         -18.153000     26.039000     -3.084000
C         -21.632000     28.233000     -8.175000
C         -20.748000     23.568000     -3.261000
C         -18.535000     25.669000     -8.376000
C         -20.571000     29.164000     -4.049000
C         -22.890000     24.538000     -3.705000
C         -22.892000     28.697000     -4.164000
C         -20.865000     28.277000     -2.993000
C         -21.539000     25.672000     -2.332000
C         -19.380000     23.968000     -2.997000
C         -21.593000     29.408000     -6.267000
C         -17.686000     24.332000     -4.736000
C         -23.836000     27.925000     -5.039000
C         -24.007000     26.444000     -4.756000
C         -17.428000     25.589000     -4.166000
C         -20.495000     23.043000     -7.297000
C         -18.341000     23.752000     -6.985000
C         -18.865000     24.327000     -8.137000
C         -19.482000     26.574000     -8.833000
C         -23.929000     25.692000     -5.973000
C         -21.722000     29.329000     -4.838000
C         -19.212000     27.836000     -8.350000
C         -21.797000     24.398000     -2.889000
C         -20.279000     29.379000     -6.793000
C         -19.910000     27.367000     -2.578000
C         -22.775000     23.869000     -7.196000
C         -17.706000     26.387000     -7.506000
C         -22.203000     27.971000     -3.073000
C         -21.151000     24.772000     -8.798000
C         -20.206000     26.053000     -2.186000
C         -19.257000     29.161000     -4.601000
C         -19.588000     22.845000     -5.070000
C         -20.848000     22.869000     -4.506000
C         -18.263000     28.238000     -4.071000
C         -23.432000     24.381000     -6.068000
C         -23.404000     25.835000     -3.649000
C         -21.804000     23.001000     -6.732000
C         -23.465000     27.903000     -6.513000
C         -17.986000     28.480000     -6.336000
C         -22.488000     26.580000     -2.914000
C         -18.597000     27.317000     -3.042000
C         -22.439000     24.725000     -8.267000
C         -17.040000     26.494000     -5.203000
C         -20.795000     26.126000     -8.987000
C         -17.517000     24.447000     -6.107000
C         -19.111000     29.235000     -5.965000
C         -17.470000     27.850000     -5.147000
C         -22.458000     28.729000     -7.058000
C         -23.608000     26.572000     -7.040000
C         -19.391000     22.959000     -6.442000
C         -18.037000     27.717000     -7.518000
C         -19.156000     25.252000     -2.580000
C         -21.928000     23.007000     -5.356000
C         -18.696000     23.478000     -4.157000
C         -22.857000     26.073000     -8.165000
C         -20.139000     23.910000     -8.402000
O         -10.726000     11.463000     -7.314000
C         -11.291000     10.339000     -8.063000
H         -10.550000      9.936000     -8.765000
H         -12.086000     10.672000     -8.743000
H         -11.694000      9.621000     -7.339000
O         -12.591000     12.194000     -6.366000
C         -11.448000     12.324000     -6.579000
C         -10.588000     13.200000     -5.715000
H          -9.566000     13.266000     -6.108000
H         -10.559000     12.567000     -4.820000
C         -11.250000     14.583000     -5.477000
H         -12.329000     14.470000     -5.316000
H         -10.884000     15.154000     -4.614000
C         -11.073000     15.489000     -6.696000
H         -10.027000     15.736000     -6.916000
H         -11.444000     14.839000     -7.498000
C         -11.894000     16.739000     -6.559000
C         -11.273000     17.820000     -5.669000
C         -10.322000     18.766000     -6.183000
H         -10.085000     18.774000     -7.243000
C          -9.627000     19.640000     -5.365000
H          -8.956000     20.326000     -5.875000
C          -9.772000     19.615000     -3.962000
H          -9.436000     20.482000     -3.401000
C         -10.761000     18.756000     -3.453000
H         -11.036000     18.811000     -2.404000
C         -11.478000     17.849000     -4.274000
H         -12.219000     17.205000     -3.810000
C         -16.748000     19.192000     -6.290000
C         -15.384000     20.793000     -7.588000
C         -17.353000     19.997000    -11.693000
C         -16.489000     14.517000     -8.288000
C         -14.764000     17.716000    -12.742000
C         -15.494000     19.823000     -6.541000
C         -16.228000     14.864000    -11.108000
C         -18.261000     20.094000     -9.449000
C         -12.518000     18.824000     -9.625000
C         -15.230000     14.481000     -8.929000
C         -12.406000     17.299000     -7.854000
C         -12.439000     17.525000    -10.175000
C         -13.908000     15.235000    -10.567000
C         -16.057000     15.738000    -12.212000
C         -13.466000     19.569000     -7.506000
C         -17.207000     17.844000    -12.443000
C         -13.374000     16.723000     -6.800000
C         -14.189000     15.531000     -7.045000
C         -15.978000     18.481000    -12.772000
C         -19.103000     16.707000     -9.067000
C         -18.868000     18.218000    -10.775000
C         -19.051000     18.910000     -9.642000
C         -17.718000     20.374000     -8.212000
C         -15.468000     15.795000     -6.560000
C         -12.548000     18.750000     -8.220000
C         -16.519000     21.098000     -8.411000
C         -15.127000     14.582000    -10.319000
C         -14.104000     20.634000     -8.190000
C         -13.047000     17.311000    -11.431000
C         -17.846000     15.994000     -7.147000
C         -17.477000     20.611000    -10.440000
C         -12.484000     16.574000     -9.163000
C         -18.641000     18.301000     -7.254000
C         -13.677000     16.118000    -11.659000
C         -13.201000     19.860000    -10.304000
C         -18.079000     15.961000    -11.231000
C         -17.444000     14.924000    -10.523000
C         -13.748000     19.608000    -11.561000
C         -16.652000     15.289000     -7.148000
C         -14.128000     14.975000     -8.311000
C         -18.407000     15.676000     -8.392000
C         -14.309000     17.705000     -6.173000
C         -15.103000     21.013000    -10.412000
C         -13.301000     15.469000     -9.329000
C         -13.683000     18.339000    -12.183000
C         -17.974000     17.256000     -6.525000
C         -16.071000     19.822000    -12.255000
C         -17.843000     19.471000     -7.139000
C         -18.051000     18.741000    -11.818000
C         -14.001000     20.763000     -9.575000
C         -14.946000     20.352000    -11.635000
C         -14.336000     19.053000     -6.543000
C         -15.550000     17.064000     -6.004000
C         -18.881000     16.816000    -10.462000
C         -16.360000     21.158000     -9.798000
C         -14.792000     16.358000    -12.489000
C         -17.618000     14.809000     -9.088000
C         -17.205000     16.448000    -12.240000
C         -16.803000     17.785000     -6.010000
C         -19.194000     18.045000     -8.542000
$end

--------------------------------------------------------------

             Standard Nuclear Orientation (Angstroms)
    I     Atom           X                Y                Z
 ----------------------------------------------------------------
    1      O       9.5621952778     4.2051522697    -1.9592360874
    2      C       8.3825420345     4.9942169185    -2.0562165269
    3      H       7.5613603213     4.4219669580    -2.5060860374
    4      H       8.5869957474     5.7746152937    -2.7993222093
    5      H       8.0290220416     5.3803326854    -1.0926272839
    6      O       9.6270280090     3.3498045354    -4.0681026006
    7      C      10.0870199544     3.4650713057    -2.9679844334
    8      C      11.3525784674     2.6913883730    -2.5876196481
    9      H      12.0809188248     3.4649242855    -2.3129170528
   10      H      11.7794389007     2.1113887071    -3.4159158259
   11      C      11.1253259150     1.6384758537    -1.4974084282
   12      H      12.0379551060     1.2889907682    -0.9991874585
   13      H      10.5508851632     2.1112566367    -0.6904467476
   14      C      10.3797435069     0.4361600591    -2.0027287253
   15      H       9.5730993651     0.8061839661    -2.6476818528
   16      H      10.9705551023    -0.0825076907    -2.7675551266
   17      C       9.7011366762    -0.3661877486    -0.8248782404
   18      C      10.6124686494    -1.3004741082    -0.1657355905
   19      C      11.1913802115    -0.9824276110     1.0671248351
   20      H      10.8497105017    -0.1592589130     1.6889110556
   21      C      12.2248149837    -1.7331825285     1.6198667508
   22      H      12.5664025526    -1.5263965087     2.6304381114
   23      C      12.7027345986    -2.9112357071     0.8896417511
   24      H      13.4683462983    -3.5578247063     1.3081813445
   25      C      12.1059152033    -3.2670620822    -0.3609102071
   26      H      12.3977659980    -4.1949559963    -0.8448533834
   27      C      11.0746250653    -2.4794697762    -0.8604129705
   28      H      10.6894120053    -2.6688656151    -1.8574050038
   29      C       5.4326123330    -3.2762398890     1.1491416360
   30      C       6.0539700414    -1.8762556271     3.0139656664
   31      C       2.4344569446     0.8735818473     2.8520866803
   32      C       4.6170845136    -0.4658505241    -2.9036350657
   33      C       4.1100210157     3.3927417749     1.0781150619
   34      C       6.4485418306    -2.6618349400     1.9200053169
   35      C       3.6161913516     2.0027436432    -2.1922415634
   36      C       2.6370463769    -1.5114678566     2.5158777695
   37      C       7.6628819564     1.5220025001     1.7270277693
   38      C       5.4724944192     0.6663162183    -2.8953067517
   39      C       8.5895861779     0.3618877013    -0.1205944701
   40      C       7.4195163844     2.3093288557     0.5828112653
   41      C       5.9503303224     2.5291403863    -1.7560767624
   42      C       3.2190981533     2.8648085133    -1.0966681283
   43      C       7.8466281684    -0.9115554061     1.9869840096
   44      C       2.0777065572     2.0852957612     0.9320847136
   45      C       8.2939194189    -0.8639299348    -0.9346566856
   46      C       7.3133269984    -0.7261871615    -2.0845072990
   47      C       3.0604548928     2.7422652203     1.6897850756
   48      C       1.9940483775    -1.4984830811    -0.8735324990
   49      C       1.4029599922    -0.2316191546     0.9390378616
   50      C       1.8434748842    -1.4810727432     1.3598909949
   51      C       3.7593161872    -2.3228263120     2.5988893932
   52      C       6.3610563219    -1.7963074473    -2.0580472776
   53      C       8.2372028679     0.3035849814     1.3268262689
   54      C       4.7160744925    -1.7379640305     3.3997530876
   55      C       4.9577931406     1.8833387281    -2.5291868199
   56      C       6.9369659961    -0.7897719127     3.0648506586
   57      C       6.2776725915     3.0866820007     0.5175055183
   58      C       3.9611986652    -2.4143817956    -1.9608807828
   59      C       2.9547900447    -0.3432954974     3.2187840937
   60      C       7.9214710263     1.6273816506    -0.5003644116
   61      C       3.3155282048    -3.0894173916     0.3077367699
   62      C       5.5270939500     3.2696480838    -0.6534048606
   63      C       6.7665698579     1.6212463173     2.8306963277
   64      C       1.9139341366     0.8924743576    -1.1870388537
   65      C       2.7990460519     0.8288014178    -2.2447697524
   66      C       5.6228876875     2.5184650139     2.7420695621
   67      C       5.0325243410    -1.6906394268    -2.5036839516
   68      C       6.7894670221     0.5178284602    -2.4559031231
   69      C       2.8559298229    -1.5850209374    -2.0067322050
   70      C       7.6750916907    -2.0127884997    -0.1549277324
   71      C       5.0534545878     0.6280912353     3.9115784001
   72      C       7.0429500546     1.6054049998    -1.6269099851
   73      C       5.3686612012     3.2628093501     1.5588711836
   74      C       4.1525582010    -3.1969649052    -0.8017353197
   75      C       3.2693787016     2.0146995188     2.9030191800
   76      C       4.1168957820    -3.0631728097     1.4708765845
   77      C       1.7077643026     0.9408534294     1.6211576254
   78      C       6.3796536287     0.4716439086     3.4756755007
   79      C       4.5844816000     1.9055574765     3.4372142579
   80      C       7.6006632124    -2.0244491569     1.2549213484
   81      C       6.5806940919    -2.5814659158    -0.8956293540
   82      C       1.5270156448    -0.2402723477    -0.4789654237
   83      C       4.1753001854    -0.4691874079     3.8296124028
   84      C       4.2016685149     3.3706100145    -0.2895489762
   85      C       3.2957834660    -0.4127580944    -2.5907840859
   86      C       2.1410550459     2.1252329829    -0.5098060545
   87      C       5.4667945844    -3.2598538958    -0.2811013759
   88      C       2.1735807297    -2.3021181833     0.3186875969
   89      O     -12.5837732467     2.5917274833    -1.4095774894
   90      C     -13.3357285271     1.6401089674    -2.2296917841
   91      H     -14.2571164311     1.3371586683    -1.7163113730
   92      H     -12.8043180752     0.6836231337    -2.3194235035
   93      H     -13.4734875506     2.0863602099    -3.2216551302
   94      O     -10.7022779592     2.6162359760    -2.5803314419
   95      C     -11.3079211228     2.9443700999    -1.6346875580
   96      C     -10.8864117997     4.1251834178    -0.8091684491
   97      H     -11.5207212956     4.2365407799     0.0788292994
   98      H     -11.1585097359     4.9208159020    -1.5130765845
   99      C      -9.3700482811     4.0746382355    -0.4841086641
  100      H      -8.8013686226     3.7293629178    -1.3560716225
  101      H      -8.9051318401     5.0242396361    -0.1893615132
  102      C      -9.0885088185     3.0896254656     0.6510615320
  103      H      -9.5497322162     3.3708002782     1.6059116261
  104      H      -9.5959135858     2.1901940248     0.2810500652
  105      C      -7.6119677132     2.8739261568     0.8202069499
  106      C      -6.8879881771     3.9755060935     1.6003846697
  107      C      -6.8289221580     3.9693444594     3.0356498855
  108      H      -7.2384414974     3.1303481500     3.5908184217
  109      C      -6.3272694882     5.0347255608     3.7632024318
  110      H      -6.3102131486     4.8993656312     4.8413136370
  111      C      -5.8924435948     6.2208327866     3.1354006389
  112      H      -5.2600607722     6.8949595997     3.7054453790
  113      C      -5.8634861208     6.2076332337     1.7303845406
  114      H      -5.3862160715     7.0213016132     1.1926038528
  115      C      -6.3791040546     5.1288224147     0.9680956432
  116      H      -6.3358228496     5.1926685294    -0.1150310396
  117      C      -2.8690782761     0.9899114821    -1.0788387297
  118      C      -2.7428852900     0.4868511650     1.3376683876
  119      C      -3.3298917622    -4.0838412890     0.9829912216
  120      C      -7.1851671012    -0.7957241409    -3.1030898691
  121      C      -6.8567285219    -3.9118731075     1.7165663134
  122      C      -3.1579485325     1.3469175487     0.2712644676
  123      C      -7.8108265571    -3.1859202478    -1.6760499904
  124      C      -2.1430711151    -2.4878161596    -0.4003270851
  125      C      -6.4462738934    -0.0901485343     2.8183000767
  126      C      -8.0994554868    -0.8015241312    -2.0254530527
  127      C      -7.2278512223     1.5018796887     1.2921306837
  128      C      -7.6481800596    -0.5785278345     2.2587920547
  129      C      -8.6988083115    -1.6485339377    -0.0448989436
  130      C      -7.5203097851    -4.0718239287    -0.6070749330
  131      C      -4.7653785017     1.3928347684     1.8595294024
  132      C      -5.2877186969    -4.7423070840     0.0069986547
  133      C      -6.8461229168     1.9917282957    -0.1199769053
  134      C      -7.3752019189     1.3755337580    -1.3387852172
  135      C      -5.5783615868    -4.4660188191     1.3721515784
  136      C      -4.1993417371    -2.6126193983    -3.2433593186
  137      C      -3.6094213774    -3.9924643036    -1.5102603583
  138      C      -2.6663688376    -3.0461386835    -1.6159094365
  139      C      -1.9062968468    -1.1321372234    -0.3029075402
  140      C      -6.3133839549     1.2389226787    -2.2302121769
  141      C      -6.1145004607     1.1482992502     2.2381496874
  142      C      -2.0776951001    -0.7511295824     1.0486966238
  143      C      -8.4477749659    -1.9930115243    -1.3836264931
  144      C      -3.7545383782     0.5221780741     2.3383656638
  145      C      -7.8016243960    -1.9787606036     2.1649889203
  146      C      -4.9608701771    -0.3511027239    -3.5269695559
  147      C      -2.4493326297    -3.0058364399     0.8251870412
  148      C      -8.0947141361     0.2800699969     1.2618030465
  149      C      -2.7409567746    -0.7458765725    -2.5878949613
  150      C      -8.4322473212    -2.4964699480     1.0666152313
  151      C      -5.4310776663    -0.9773546847     3.2461643863
  152      C      -5.9361862014    -4.1015503133    -2.2164980636
  153      C      -6.9171628644    -3.2101127326    -2.6886016819
  154      C      -5.6490789147    -2.3519696954     3.1708581588
  155      C      -6.1893640302     0.1678988457    -3.1473615690
  156      C      -8.1782068672     0.2590264894    -1.1831973901
  157      C      -5.2191030243    -1.7229990875    -3.6576836114
  158      C      -5.3834936975     2.1551230667    -0.3762890506
  159      C      -3.4798487105    -1.9011446208     2.7002754637
  160      C      -8.5339956833    -0.2643050254     0.0673334748
  161      C      -6.8387442445    -2.9101447290     2.6468285460
  162      C      -3.7408052203     0.1785132444    -3.0506708814
  163      C      -4.3445386269    -4.0123247635     1.9604215908
  164      C      -2.2537786712    -0.2539160602    -1.3471043465
  165      C      -3.9435694902    -4.5418713880    -0.2392906913
  166      C      -4.0797362529    -0.6641329588     2.9959274293
  167      C      -4.4078234028    -2.9387098332     2.8403483028
  168      C      -4.4168217491     1.8471511650     0.5857045314
  169      C      -5.1315343450     1.7305397668    -1.6937747265
  170      C      -4.6104729245    -3.7547572053    -2.5128236408
  171      C      -2.4890017541    -1.9157584860     1.7022380175
  172      C      -7.8308920164    -3.7333460572     0.7531917350
  173      C      -6.5274162396    -2.0108079462    -3.4044868667
  174      C      -6.3217836300    -4.5958558598    -0.9413107637
  175      C      -3.8588674911     1.1791208430    -2.1013802337
  176      C      -2.9668722875    -2.1509615430    -2.6585165359
 ----------------------------------------------------------------

    9   -5804.2544077143      7.99E-06 Convergence criterion met
 Total energy in the final basis set = -5804.2544077143

                    Orbital Energies (a.u.)
 --------------------------------------------------------------

 Alpha MOs
 -- Occupied --
-19.190 -19.186 -19.132 -19.131 -10.316 -10.309 -10.252 -10.243
-10.242 -10.241 -10.239 -10.236 -10.234 -10.232 -10.232 -10.229
-10.226 -10.224 -10.222 -10.222 -10.222 -10.221 -10.220 -10.220
-10.220 -10.220 -10.220 -10.219 -10.219 -10.218 -10.218 -10.218
-10.218 -10.218 -10.218 -10.217 -10.217 -10.217 -10.217 -10.217
-10.217 -10.216 -10.216 -10.216 -10.216 -10.216 -10.216 -10.216
-10.216 -10.215 -10.215 -10.215 -10.215 -10.215 -10.215 -10.214
-10.214 -10.214 -10.214 -10.214 -10.214 -10.214 -10.214 -10.213
-10.213 -10.213 -10.213 -10.213 -10.213 -10.212 -10.212 -10.212
-10.212 -10.212 -10.212 -10.212 -10.212 -10.212 -10.212 -10.212
-10.212 -10.211 -10.211 -10.211 -10.211 -10.211 -10.211 -10.211
-10.211 -10.211 -10.210 -10.210 -10.210 -10.210 -10.210 -10.210
-10.210 -10.210 -10.210 -10.210 -10.209 -10.209 -10.209 -10.209
-10.209 -10.208 -10.208 -10.208 -10.208 -10.208 -10.208 -10.208
-10.207 -10.207 -10.207 -10.207 -10.207 -10.207 -10.207 -10.207
-10.206 -10.206 -10.206 -10.206 -10.205 -10.205 -10.205 -10.205
-10.204 -10.204 -10.203 -10.203 -10.203 -10.203 -10.202 -10.202
-10.202 -10.201 -10.201 -10.200 -10.199 -10.199 -10.198 -10.197
-10.197 -10.196 -10.192 -10.191  -1.105  -1.097  -1.022  -1.019
 -0.984  -0.981  -0.967  -0.964  -0.964  -0.962  -0.961  -0.959
 -0.936  -0.931  -0.928  -0.926  -0.926  -0.924  -0.922  -0.920
 -0.918  -0.916  -0.898  -0.896  -0.890  -0.890  -0.885  -0.883
 -0.871  -0.871  -0.849  -0.848  -0.842  -0.839  -0.839  -0.837
 -0.837  -0.833  -0.822  -0.818  -0.810  -0.803  -0.799  -0.797
 -0.794  -0.793  -0.793  -0.792  -0.790  -0.788  -0.784  -0.782
 -0.771  -0.768  -0.767  -0.765  -0.765  -0.764  -0.761  -0.759
 -0.752  -0.748  -0.746  -0.741  -0.733  -0.730  -0.715  -0.715
 -0.713  -0.713  -0.712  -0.711  -0.709  -0.708  -0.708  -0.706
 -0.706  -0.706  -0.705  -0.704  -0.703  -0.702  -0.674  -0.669
 -0.659  -0.657  -0.656  -0.655  -0.648  -0.644  -0.630  -0.628
 -0.626  -0.626  -0.624  -0.624  -0.621  -0.620  -0.616  -0.614
 -0.613  -0.613  -0.612  -0.611  -0.610  -0.608  -0.606  -0.606
 -0.602  -0.602  -0.601  -0.601  -0.569  -0.568  -0.563  -0.562
 -0.560  -0.558  -0.558  -0.557  -0.555  -0.553  -0.553  -0.551
 -0.536  -0.534  -0.531  -0.530  -0.528  -0.527  -0.524  -0.523
 -0.521  -0.520  -0.519  -0.518  -0.516  -0.516  -0.514  -0.511
 -0.506  -0.506  -0.504  -0.500  -0.494  -0.493  -0.488  -0.487
 -0.485  -0.481  -0.481  -0.478  -0.478  -0.476  -0.475  -0.473
 -0.472  -0.470  -0.469  -0.469  -0.468  -0.466  -0.465  -0.464
 -0.464  -0.463  -0.463  -0.461  -0.460  -0.459  -0.457  -0.456
 -0.455  -0.453  -0.451  -0.451  -0.448  -0.446  -0.442  -0.442
 -0.441  -0.440  -0.439  -0.438  -0.437  -0.435  -0.434  -0.433
 -0.429  -0.429  -0.428  -0.427  -0.427  -0.425  -0.425  -0.423
 -0.423  -0.422  -0.421  -0.420  -0.419  -0.419  -0.418  -0.417
 -0.415  -0.415  -0.415  -0.415  -0.414  -0.413  -0.411  -0.411
 -0.409  -0.408  -0.408  -0.407  -0.406  -0.400  -0.398  -0.397
 -0.393  -0.392  -0.390  -0.389  -0.389  -0.388  -0.387  -0.385
 -0.375  -0.375  -0.372  -0.371  -0.369  -0.368  -0.367  -0.365
 -0.363  -0.362  -0.360  -0.359  -0.358  -0.357  -0.356  -0.355
 -0.355  -0.355  -0.353  -0.350  -0.350  -0.350  -0.349  -0.347
 -0.347  -0.347  -0.346  -0.346  -0.344  -0.342  -0.341  -0.341
 -0.340  -0.339  -0.339  -0.337  -0.337  -0.336  -0.336  -0.334
 -0.332  -0.331  -0.330  -0.328  -0.327  -0.325  -0.323  -0.323
 -0.315  -0.305  -0.302  -0.297  -0.288  -0.279  -0.271  -0.269
 -0.269  -0.266  -0.266  -0.265  -0.264  -0.263  -0.263  -0.262
 -0.261  -0.260  -0.258  -0.257  -0.257  -0.256  -0.255  -0.254
 -0.247  -0.244  -0.243  -0.241  -0.220  -0.216  -0.209  -0.209
 -0.208  -0.207  -0.205  -0.203  -0.198  -0.198

          Ground-State Mulliken Net Atomic Charges

     Atom                 Charge (a.u.)
  ----------------------------------------
      1 O                    -0.466240
      2 C                    -0.087397
      3 H                     0.130161
      4 H                     0.120521
      5 H                     0.130101
      6 O                    -0.458775
      7 C                     0.592408
      8 C                    -0.238211
      9 H                     0.120743
     10 H                     0.124724
     11 C                    -0.192576
     12 H                     0.109370
     13 H                     0.118622
     14 C                    -0.189944
     15 H                     0.118824
     16 H                     0.111796
     17 C                     0.014115
     18 C                     0.093104
     19 C                    -0.108758
     20 H                     0.093530
     21 C                    -0.096413
     22 H                     0.095865
     23 C                    -0.097365
     24 H                     0.090931
     25 C                    -0.085151
     26 H                     0.097089
     27 C                    -0.102088
     28 H                     0.089627
     29 C                    -0.021665
     30 C                     0.025171
     31 C                    -0.028681
     32 C                     0.014296
     33 C                     0.006678
     34 C                    -0.028127
     35 C                    -0.003859
     36 C                    -0.007029
     37 C                    -0.015643
     38 C                     0.006892
     39 C                    -0.086532
     40 C                     0.025640
     41 C                    -0.042964
     42 C                    -0.031913
     43 C                     0.005391
     44 C                     0.020914
     45 C                    -0.084986
     46 C                     0.014130
     47 C                     0.005193
     48 C                    -0.014246
     49 C                     0.002196
     50 C                     0.010821
     51 C                     0.005223
     52 C                    -0.011850
     53 C                     0.028147
     54 C                    -0.011679
     55 C                    -0.005530
     56 C                    -0.012298
     57 C                     0.010132
     58 C                    -0.012494
     59 C                     0.053130
     60 C                     0.023117
     61 C                     0.018296
     62 C                    -0.028682
     63 C                    -0.023495
     64 C                     0.010452
     65 C                     0.001232
     66 C                    -0.017145
     67 C                     0.011933
     68 C                    -0.001605
     69 C                    -0.001735
     70 C                     0.055363
     71 C                    -0.019529
     72 C                     0.021098
     73 C                    -0.005191
     74 C                     0.004280
     75 C                    -0.011589
     76 C                     0.021178
     77 C                    -0.007353
     78 C                     0.028874
     79 C                    -0.004307
     80 C                    -0.004761
     81 C                     0.000713
     82 C                     0.017105
     83 C                    -0.020173
     84 C                     0.053886
     85 C                    -0.000438
     86 C                    -0.033583
     87 C                    -0.015105
     88 C                    -0.017327
     89 O                    -0.477370
     90 C                    -0.086153
     91 H                     0.130338
     92 H                     0.129642
     93 H                     0.133696
     94 O                    -0.437052
     95 C                     0.570911
     96 C                    -0.252447
     97 H                     0.116310
     98 H                     0.141535
     99 C                    -0.194789
    100 H                     0.128601
    101 H                     0.100692
    102 C                    -0.170357
    103 H                     0.110263
    104 H                     0.105288
    105 C                     0.023998
    106 C                     0.084052
    107 C                    -0.092142
    108 H                     0.089125
    109 C                    -0.095034
    110 H                     0.090117
    111 C                    -0.090579
    112 H                     0.097853
    113 C                    -0.097790
    114 H                     0.090497
    115 C                    -0.109715
    116 H                     0.092820
    117 C                    -0.023081
    118 C                    -0.017961
    119 C                    -0.027328
    120 C                    -0.038889
    121 C                     0.020124
    122 C                    -0.009025
    123 C                     0.011229
    124 C                     0.011498
    125 C                    -0.008247
    126 C                     0.005133
    127 C                    -0.116938
    128 C                     0.006991
    129 C                    -0.012064
    130 C                     0.015395
    131 C                     0.013318
    132 C                     0.007834
    133 C                    -0.089909
    134 C                     0.029152
    135 C                    -0.018055
    136 C                    -0.017203
    137 C                     0.000061
    138 C                     0.001610
    139 C                     0.013120
    140 C                     0.006772
    141 C                     0.011644
    142 C                    -0.014545
    143 C                    -0.007530
    144 C                    -0.011965
    145 C                    -0.003920
    146 C                     0.022697
    147 C                     0.010070
    148 C                     0.040962
    149 C                    -0.015598
    150 C                    -0.025604
    151 C                     0.002010
    152 C                    -0.038759
    153 C                     0.001110
    154 C                     0.001304
    155 C                     0.002424
    156 C                     0.041336
    157 C                     0.006144
    158 C                     0.030405
    159 C                     0.002665
    160 C                    -0.004660
    161 C                    -0.003584
    162 C                    -0.020768
    163 C                     0.003626
    164 C                     0.008547
    165 C                     0.003629
    166 C                     0.001708
    167 C                    -0.003654
    168 C                     0.042631
    169 C                    -0.004580
    170 C                     0.012020
    171 C                    -0.004868
    172 C                    -0.015746
    173 C                     0.007323
    174 C                     0.017320
    175 C                     0.014000
    176 C                    -0.002224
  ----------------------------------------
  Sum of atomic charges =     0.000000

                    Cartesian Multipole Moments
 -----------------------------------------------------------------
    Charge (ESU x 10^10)
                 0.0000
    Dipole Moment (Debye)
         X      -0.5185      Y       1.9956      Z       2.2444
       Tot       3.0477
    Quadrupole Moments (Debye-Ang)
        XX    -716.8886     XY     -22.6481     YY    -791.8269
        XZ       7.5915     YZ      11.4260     ZZ    -819.9598

 Total job time:  840.49s(wall), 7161.95s(cpu)
        *  Thank you very much for using Q-Chem.  Have a nice day.  *
