 Q-Chem 4.4, Q-Chem, Inc., Pleasanton, CA (2016)
 Q-Chem 4.4.2 for Intel X86 Linux

User input:
--------------------------------------------------------------
$comment
SP
$end

$rem
MEM_STATIC 5000
MEM_TOTAL 20000
JOBTYPE SP
EXCHANGE B3LYP
BASIS 6-31g(d,p)
$end

$molecule
0 1
O         -18.860000     -0.097000     10.389000
C         -20.210000     -0.123000      9.888000
H         -20.366000      0.764000      9.261000
H         -20.938000     -0.069000     10.707000
H         -20.372000     -1.063000      9.347000
O         -17.828000      0.822000      8.565000
C         -17.822000      0.498000      9.732000
C         -16.530000      0.673000     10.544000
H         -16.654000      1.415000     11.342000
H         -15.785000      1.043000      9.828000
C         -16.067000     -0.608000     11.238000
H         -16.811000     -0.873000     11.999000
H         -16.049000     -1.333000     10.414000
C         -14.726000     -0.439000     11.914000
H         -13.968000     -0.076000     11.209000
H         -14.816000      0.225000     12.783000
C         -14.247000     -1.806000     12.484000
C         -15.049000     -2.247000     13.699000
C         -16.138000     -3.134000     13.570000
H         -16.337000     -3.611000     12.615000
C         -16.894000     -3.473000     14.623000
H         -17.707000     -4.149000     14.373000
C         -16.713000     -2.758000     15.828000
H         -17.412000     -3.050000     16.606000
C         -15.652000     -1.814000     15.944000
H         -15.478000     -1.253000     16.858000
C         -14.805000     -1.527000     14.867000
H         -14.014000     -0.784000     14.819000
C         -10.079000     -4.667000     14.697000
C         -11.364000     -6.371000     13.548000
C          -8.539000     -7.296000     10.167000
C          -8.895000     -0.998000     11.497000
C         -10.322000     -5.151000      7.914000
C         -11.289000     -5.202000     14.376000
C          -8.674000     -2.130000      8.974000
C          -8.163000     -6.909000     12.523000
C         -13.360000     -4.824000     10.419000
C          -9.963000     -0.895000     10.561000
C         -13.487000     -2.730000     11.654000
C         -13.082000     -3.787000      9.547000
C         -11.129000     -1.922000      8.862000
C          -8.769000     -3.332000      8.185000
C         -13.004000     -4.935000     12.770000
C          -7.992000     -5.526000      8.661000
C         -12.754000     -2.055000     12.727000
C         -11.570000     -1.234000     12.310000
C          -9.278000     -6.006000      8.370000
C          -6.754000     -3.661000     12.089000
C          -6.935000     -5.619000     10.892000
C          -7.173000     -5.901000     12.237000
C          -9.045000     -6.634000     13.558000
C         -10.532000     -1.338000     13.263000
C         -13.560000     -4.235000     11.683000
C         -10.279000     -7.150000     13.196000
C          -9.838000     -1.465000      9.334000
C         -12.469000     -6.203000     12.650000
C         -12.210000     -4.083000      8.491000
C          -8.184000     -2.129000     13.259000
C          -8.865000     -7.640000     11.523000
C         -13.147000     -2.515000     10.138000
C          -7.913000     -4.450000     13.995000
C         -11.226000     -3.151000      8.174000
C         -12.861000     -6.117000     10.303000
C          -7.025000     -3.535000      9.647000
C          -7.633000     -2.272000      9.831000
C         -11.897000     -6.350000      9.278000
C          -9.150000     -1.176000     12.844000
C         -11.276000     -1.106000     10.955000
C          -7.261000     -2.389000     12.243000
C         -12.085000     -2.902000     13.813000
C         -11.190000     -7.522000     11.026000
C         -12.011000     -1.722000      9.900000
C         -11.595000     -5.307000      8.376000
C          -8.510000     -3.150000     14.165000
C          -9.580000     -7.038000      9.266000
C          -8.890000     -5.442000     14.298000
C          -7.558000     -6.296000      9.815000
C         -12.352000     -6.835000     11.406000
C         -10.888000     -7.227000      9.702000
C         -12.250000     -4.310000     13.808000
C         -10.815000     -2.382000     14.215000
C          -6.625000     -4.235000     10.798000
C         -10.167000     -7.626000     11.919000
C         -10.066000     -3.832000      7.835000
C          -7.747000     -1.683000     11.125000
C          -7.746000     -4.137000      8.622000
C          -9.820000     -3.290000     14.609000
C          -7.054000     -4.678000     12.952000
O         -11.098000      8.472000     10.304000
C         -10.966000      9.543000      9.399000
H         -11.983000      9.900000      9.194000
H         -10.508000      9.367000      8.418000
H         -10.364000     10.387000      9.757000
O          -8.917000      8.180000     11.046000
C         -10.109000      7.885000     11.085000
C         -10.644000      6.788000     11.959000
H          -9.921000      6.675000     12.776000
H         -10.496000      5.837000     11.432000
C         -12.161000      6.895000     12.417000
H         -12.300000      6.386000     13.379000
H         -12.254000      7.911000     12.821000
C         -13.260000      6.507000     11.431000
H         -14.286000      6.681000     11.776000
H         -13.148000      7.215000     10.600000
C         -13.142000      5.091000     10.831000
C         -13.430000      4.021000     11.840000
C         -14.711000      3.768000     12.324000
H         -15.579000      4.181000     11.819000
C         -14.927000      2.980000     13.439000
H         -15.939000      2.918000     13.827000
C         -13.853000      2.248000     13.999000
H         -14.094000      1.624000     14.854000
C         -12.574000      2.352000     13.437000
H         -11.746000      1.761000     13.818000
C         -12.343000      3.301000     12.369000
H         -11.358000      3.499000     11.957000
C         -10.160000      1.695000      7.632000
C         -12.464000      0.934000      7.395000
C         -13.138000      2.222000      3.133000
C          -9.941000      6.713000      6.498000
C         -14.938000      5.163000      4.053000
C         -11.445000      1.524000      8.175000
C         -11.935000      7.223000      4.521000
C         -11.152000      1.240000      4.237000
C         -15.137000      3.905000      7.937000
C         -11.193000      7.248000      6.857000
C         -13.628000      4.927000      9.403000
C         -15.079000      5.290000      7.620000
C         -13.430000      7.249000      6.474000
C         -12.933000      6.585000      3.818000
C         -13.468000      2.385000      8.842000
C         -12.975000      4.481000      2.694000
C         -12.155000      4.923000      9.655000
C         -11.286000      5.901000      8.962000
C         -14.297000      4.183000      3.188000
C          -9.268000      4.264000      4.125000
C         -10.881000      3.225000      2.958000
C         -10.302000      2.265000      3.691000
C         -10.951000      0.810000      5.550000
C         -10.092000      5.233000      8.442000
C         -14.212000      3.633000      8.936000
C         -12.239000      0.526000      6.082000
C         -12.182000      7.431000      5.937000
C         -13.721000      1.460000      7.801000
C         -15.315000      5.715000      6.255000
C          -8.715000      4.782000      6.433000
C         -12.577000      1.192000      3.984000
C         -14.135000      5.924000      8.406000
C          -9.038000      2.433000      5.760000
C         -14.509000      6.695000      5.709000
C         -15.389000      2.927000      6.888000
C         -10.924000      5.736000      3.233000
C         -10.629000      6.754000      4.128000
C         -15.608000      3.362000      5.567000
C          -9.392000      5.705000      7.286000
C         -11.875000      6.759000      7.990000
C          -8.971000      5.186000      5.148000
C         -11.387000      3.624000      9.364000
C         -14.507000      1.353000      5.460000
C         -13.234000      6.832000      7.773000
C         -15.554000      4.746000      5.280000
C          -8.791000      3.387000      6.778000
C         -14.372000      2.806000      3.502000
C          -9.907000      1.397000      6.268000
C         -12.261000      3.245000      2.648000
C         -14.726000      1.691000      6.836000
C         -15.086000      2.354000      4.705000
C         -12.030000      2.387000      9.068000
C         -10.123000      3.858000      8.752000
C         -10.262000      4.463000      3.178000
C         -13.247000      0.748000      5.132000
C         -14.270000      6.352000      4.350000
C          -9.735000      6.383000      5.188000
C         -12.307000      5.664000      3.019000
C          -9.443000      2.893000      7.933000
C          -9.246000      2.879000      4.476000
$end

--------------------------------------------------------------

             Standard Nuclear Orientation (Angstroms)
    I     Atom           X                Y                Z
 ----------------------------------------------------------------
    1      O      -0.1022627082     5.7402119963     4.1569176808
    2      C      -0.5161493114     6.4261531477     5.3537299536
    3      H      -1.6057431872     6.3358268415     5.4478593546
    4      H      -0.2868353414     7.4974901987     5.2961710601
    5      H       0.0234543221     6.0058318068     6.2108664008
    6      O      -1.6050478636     4.0151479448     4.2054129876
    7      C      -0.7739820263     4.6777903439     3.6247791743
    8      C      -0.3522753640     4.2629894385     2.2072684337
    9      H      -0.6414706545     5.0167135077     1.4649678804
   10      H      -0.8995931638     3.3341411304     2.0016837879
   11      C       1.1573585933     4.0826411508     2.0477510043
   12      H       1.6346049703     5.0614656968     2.1782132742
   13      H       1.4037540502     3.3952399091     2.8673202885
   14      C       1.5276937246     3.5442179704     0.6851173891
   15      H       0.9935713864     2.6111167747     0.4674169379
   16      H       1.3447884569     4.3007548412    -0.0884164668
   17      C       3.0562857043     3.2554221251     0.6300399933
   18      C       3.8913188859     4.5264329973     0.5959673029
   19      C       4.4402485115     5.0690392436     1.7764696230
   20      H       4.3769818665     4.5137187494     2.7074752516
   21      C       5.1172766406     6.2252460551     1.7672652063
   22      H       5.4668893928     6.5304566163     2.7496411205
   23      C       5.0882255565     7.0023175673     0.5877199975
   24      H       5.6036561237     7.9525376769     0.6904919471
   25      C       4.4794205480     6.4845348883    -0.5919284920
   26      H       4.4466114498     7.0505244258    -1.5187361346
   27      C       3.8499211715     5.2342164749    -0.6038196690
   28      H       3.2987328898     4.7717231832    -1.4176534563
   29      C       7.2063342108     0.9320471425    -2.1688776696
   30      C       7.9577441353     0.8037581902     0.1319845753
   31      C       7.5951040137    -3.6337382213     0.7987144608
   32      C       2.6869520005    -1.1892324404    -2.5916948512
   33      C       4.4046079997    -3.2677851350     2.3933732089
   34      C       7.3407558842     1.5187451633    -0.9477788833
   35      C       2.5195368724    -3.1863202600    -0.6735169618
   36      C       8.4212419462    -2.3460121167    -1.0724185105
   37      C       4.8442929447     0.6489216364     2.6717312802
   38      C       1.9984741797    -0.9606583026    -1.3665086802
   39      C       3.5835662871     1.9681641099     1.0604095894
   40      C       3.5737444063     0.1121006671     2.5689370260
   41      C       1.9201605493    -1.3806121710     0.8958776095
   42      C       3.1805810674    -3.8688047117     0.4098045719
   43      C       6.0984161810     1.8424644071     1.0380579461
   44      C       5.4289914727    -4.6152308930     0.5871167405
   45      C       3.6095496971     2.2415281474    -0.3779366712
   46      C       2.8756906918     1.2696087286    -1.2534991212
   47      C       5.5183277522    -3.9411927055     1.8145402823
   48      C       5.6011657077    -2.9801930782    -3.1624246150
   49      C       6.7155203500    -4.0166811040    -1.4352186911
   50      C       7.5573119069    -3.0507438175    -1.9861679931
   51      C       8.5367938811    -0.9764927712    -1.2617291351
   52      C       3.5685554530     1.0739322582    -2.4692779421
   53      C       4.8958276969     1.7207271020     1.7589365534
   54      C       8.6318458715    -0.3937014627    -0.0081839983
   55      C       1.9366155405    -1.9491142127    -0.4363568525
   56      C       7.2250489333     1.0977413372     1.3288073066
   57      C       3.4651090310    -1.2676691580     2.7870415540
   58      C       4.6047661871    -0.8491286596    -3.6384250763
   59      C       8.4828987901    -2.6083823439     0.3256248713
   60      C       2.7349334225     0.8039984230     1.6805882045
   61      C       7.0104383089    -1.0809743132    -3.2369686838
   62      C       2.6518495003    -2.0036455314     1.9301187375
   63      C       5.9891938926    -0.0717318223     2.9944794975
   64      C       4.3039033818    -4.2913733138    -1.5343589383
   65      C       3.2008119381    -3.4528699583    -1.8150551973
   66      C       5.8540127601    -1.4872021601     3.1057439761
   67      C       3.4366589799    -0.1872199269    -3.1790860053
   68      C       2.1715414486     0.2228077982    -0.6642397085
   69      C       4.4911975065    -2.2340699357    -3.4941170156
   70      C       4.9564104953     2.2470302167    -1.1061548511
   71      C       7.8003282350    -1.1616666430     2.0884830954
   72      C       2.1023800395    -0.0251577520     0.7380569026
   73      C       4.5677253832    -2.0595787750     3.0032413183
   74      C       5.8702145567    -0.2516379016    -3.5326034436
   75      C       6.7922251327    -3.3702600591     1.9158584803
   76      C       7.8703701092    -0.3718176471    -2.3492659623
   77      C       6.7057871105    -4.3750833469    -0.0648756332
   78      C       7.2079584965     0.0913420877     2.3022123957
   79      C       6.9666265728    -2.1593541634     2.5791623696
   80      C       6.1545908645     2.0674433592    -0.3700662942
   81      C       4.8820337946     1.6634531572    -2.4095388781
   82      C       5.5133162697    -4.0128514406    -2.1935607532
   83      C       8.4627701089    -1.3839924801     0.9194937945
   84      C       3.2579624036    -3.2280254764     1.6896964035
   85      C       3.2792540297    -2.4263220669    -2.8021718392
   86      C       4.2387403440    -4.5278862825    -0.1658979801
   87      C       6.0054410845     0.9762316302    -2.8947271240
   88      C       6.8468060402    -2.4283754395    -3.0486904708
   89      O      -6.4416792174     1.7171981906    -4.6357376771
   90      C      -7.7790677303     1.2757527562    -4.6385473067
   91      H      -8.3375307291     1.9813675609    -4.0108612177
   92      H      -8.0185639634     0.2777746833    -4.2515300973
   93      H      -8.2555577208     1.2318674041    -5.6254289434
   94      O      -5.5140636226     0.4954523507    -6.3791410758
   95      C      -5.4166581677     1.3468407826    -5.4987662038
   96      C      -4.1312545267     2.0639491157    -5.2038032935
   97      H      -3.5413841681     2.0156546560    -6.1272249769
   98      H      -3.5293148829     1.4187735870    -4.5515370884
   99      C      -4.2352090624     3.5076788783    -4.5500909508
  100      H      -3.3610860022     4.1098713199    -4.8277942800
  101      H      -4.9432966030     4.0480599695    -5.1909663765
  102      C      -4.5245722578     3.6233854187    -3.0556271883
  103      H      -4.6667562637     4.6436794374    -2.6804461336
  104      H      -5.5143259425     3.1663066079    -2.9297875903
  105      C      -3.5567972245     2.8556211681    -2.1320853427
  106      C      -2.1946624147     3.4792928844    -2.0927489693
  107      C      -1.9380008212     4.6867074878    -1.4481554527
  108      H      -2.6639300699     5.1038254339    -0.7567385416
  109      C      -0.7607104242     5.3835031192    -1.6463678871
  110      H      -0.6752614743     6.3702588022    -1.2019090039
  111      C       0.2993149277     4.7794723419    -2.3635799014
  112      H       1.2080346728     5.3658294066    -2.4578975434
  113      C       0.1353571477     3.4926523881    -2.8924591436
  114      H       0.9519508535     2.9893040087    -3.4022052849
  115      C      -1.1577052691     2.8485612843    -2.8045828874
  116      H      -1.3767870002     1.8957530789    -3.2771637999
  117      C      -1.6605032616    -2.1099812135    -0.5810846353
  118      C      -1.4529713883    -0.7019661970     1.3983421088
  119      C      -4.6763800453    -2.6130879992     3.8953631515
  120      C      -6.5268328326    -1.9210190825    -2.2536188859
  121      C      -7.0713399369    -0.0638036577     3.1874101417
  122      C      -1.4480683510    -0.8449223948    -0.0067915097
  123      C      -8.1964736277    -1.5713878229     0.0343327303
  124      C      -3.0073753055    -3.6077943160     2.3616361478
  125      C      -4.1816892387     2.2667817880     1.4768805971
  126      C      -7.0102211515    -0.6464308989    -1.9009565896
  127      C      -4.1573841158     2.2827423189    -0.8618959041
  128      C      -5.5270748980     2.3182330435     1.0193129014
  129      C      -7.5243204569     0.7816224135    -0.2135844785
  130      C      -8.1203080039    -1.4057501211     1.3996238895
  131      C      -2.1852867681     1.2686636922     0.5108974491
  132      C      -6.8239121530    -2.5309901002     3.0564729434
  133      C      -3.8160484087     1.3415767915    -1.9713761361
  134      C      -4.8631118731     0.4640564268    -2.5419110702
  135      C      -6.5295063503    -1.2962454148     3.7414946840
  136      C      -5.4105002293    -4.4410193711    -0.1358230827
  137      C      -5.2950384895    -4.1943982620     2.0933080519
  138      C      -4.0291041274    -4.3684193539     1.6917400619
  139      C      -1.9864336367    -3.0211417443     1.6114449261
  140      C      -4.3482784534    -0.8970918380    -2.6983781628
  141      C      -3.3378715380     2.1487033133     0.3806875659
  142      C      -1.6812912164    -1.7848241028     2.2447148470
  143      C      -7.7490204785    -0.4496996685    -0.7724698252
  144      C      -1.9071930879     0.6040825080     1.7292203761
  145      C      -6.5733103560     1.7238385050     1.8265504742
  146      C      -4.6945253059    -3.2877862092    -2.1503776695
  147      C      -3.2967835278    -2.7141440986     3.4637115399
  148      C      -5.5688122673     2.2443929958    -0.3604311471
  149      C      -3.0149398310    -3.9709941760    -0.4808632171
  150      C      -7.5624399462     0.9864751232     1.2052052423
  151      C      -3.8610892036     1.5851321932     2.7230581316
  152      C      -7.3570931800    -3.4546159289     0.8350363989
  153      C      -7.7784401026    -2.8936769929    -0.3617042918
  154      C      -4.8928216778     1.0079305119     3.4876451578
  155      C      -5.1977640179    -2.0481747837    -2.6483548904
  156      C      -6.1540672781     0.4730955827    -1.9408940687
  157      C      -5.6878843228    -3.8212654144    -1.3702399887
  158      C      -2.7080628872     0.3085232540    -1.7123887377
  159      C      -3.0310013093    -0.3086385473     3.7325978635
  160      C      -6.5220123639     1.3659421028    -0.9576644388
  161      C      -6.2238391962     1.0810758036     3.0145879391
  162      C      -3.3299660194    -3.3102719367    -1.6939805334
  163      C      -5.1950238302    -1.3352001477     4.2083875329
  164      C      -2.0043230684    -3.2224978721     0.2297196720
  165      C      -5.6636880548    -3.3558137188     3.1711640079
  166      C      -2.7112825132     0.7945840423     2.8745414497
  167      C      -4.3429457305    -0.1397701656     4.1295264533
  168      C      -1.8666012453     0.3384953915    -0.5624852738
  169      C      -3.0108596896    -0.9709798586    -2.2584490653
  170      C      -6.1766508588    -4.2541821487     1.0054705102
  171      C      -2.4709496392    -1.5845377506     3.3867187666
  172      C      -7.8668417519    -0.1220143840     2.0420096119
  173      C      -6.8244425956    -2.9712102898    -1.4314492823
  174      C      -7.6010389143    -2.5728171276     1.8964460055
  175      C      -2.4546562323    -2.2003214618    -1.7647457772
  176      C      -4.0372219843    -4.5307276807     0.2488446715
 ----------------------------------------------------------------

    9   -5804.2596910844      9.82E-06 Convergence criterion met
 Total energy in the final basis set = -5804.2596910844

                    Orbital Energies (a.u.)
 --------------------------------------------------------------

 Alpha MOs
 -- Occupied --
-19.196 -19.192 -19.140 -19.133 -10.326 -10.317 -10.251 -10.248
-10.246 -10.244 -10.241 -10.235 -10.235 -10.233 -10.232 -10.231
-10.231 -10.230 -10.229 -10.229 -10.228 -10.226 -10.226 -10.226
-10.226 -10.225 -10.225 -10.224 -10.223 -10.223 -10.223 -10.223
-10.222 -10.221 -10.221 -10.221 -10.221 -10.221 -10.220 -10.220
-10.220 -10.220 -10.219 -10.219 -10.219 -10.219 -10.219 -10.218
-10.218 -10.218 -10.218 -10.218 -10.218 -10.218 -10.218 -10.217
-10.217 -10.217 -10.217 -10.217 -10.217 -10.217 -10.217 -10.217
-10.217 -10.217 -10.216 -10.216 -10.216 -10.216 -10.216 -10.216
-10.216 -10.216 -10.216 -10.216 -10.215 -10.215 -10.215 -10.215
-10.215 -10.215 -10.215 -10.214 -10.214 -10.214 -10.214 -10.214
-10.214 -10.214 -10.214 -10.214 -10.214 -10.213 -10.213 -10.213
-10.213 -10.213 -10.212 -10.212 -10.212 -10.212 -10.212 -10.212
-10.212 -10.211 -10.211 -10.211 -10.211 -10.211 -10.210 -10.210
-10.210 -10.210 -10.210 -10.210 -10.209 -10.209 -10.209 -10.209
-10.209 -10.208 -10.208 -10.208 -10.208 -10.208 -10.208 -10.207
-10.207 -10.207 -10.206 -10.206 -10.206 -10.206 -10.205 -10.205
-10.205 -10.204 -10.204 -10.204 -10.203 -10.202 -10.201 -10.198
-10.196 -10.194 -10.191 -10.191  -1.091  -1.089  -1.013  -1.013
 -0.983  -0.979  -0.966  -0.964  -0.962  -0.961  -0.960  -0.954
 -0.933  -0.932  -0.931  -0.925  -0.924  -0.923  -0.922  -0.920
 -0.919  -0.912  -0.899  -0.896  -0.888  -0.887  -0.882  -0.881
 -0.875  -0.874  -0.859  -0.857  -0.843  -0.839  -0.838  -0.835
 -0.834  -0.831  -0.821  -0.818  -0.807  -0.804  -0.798  -0.796
 -0.795  -0.793  -0.793  -0.792  -0.791  -0.786  -0.781  -0.781
 -0.773  -0.770  -0.768  -0.767  -0.766  -0.765  -0.764  -0.760
 -0.757  -0.756  -0.749  -0.741  -0.733  -0.731  -0.717  -0.715
 -0.713  -0.713  -0.713  -0.712  -0.710  -0.710  -0.708  -0.708
 -0.707  -0.706  -0.705  -0.704  -0.702  -0.701  -0.672  -0.671
 -0.659  -0.655  -0.654  -0.653  -0.649  -0.646  -0.634  -0.632
 -0.630  -0.627  -0.624  -0.623  -0.623  -0.621  -0.619  -0.618
 -0.617  -0.613  -0.612  -0.612  -0.611  -0.610  -0.609  -0.605
 -0.604  -0.604  -0.602  -0.599  -0.580  -0.568  -0.567  -0.565
 -0.562  -0.561  -0.557  -0.556  -0.556  -0.554  -0.553  -0.552
 -0.539  -0.537  -0.533  -0.531  -0.530  -0.529  -0.526  -0.524
 -0.522  -0.520  -0.519  -0.517  -0.516  -0.514  -0.512  -0.511
 -0.508  -0.505  -0.499  -0.498  -0.496  -0.493  -0.487  -0.485
 -0.483  -0.482  -0.481  -0.480  -0.479  -0.478  -0.476  -0.473
 -0.473  -0.472  -0.471  -0.468  -0.467  -0.467  -0.467  -0.466
 -0.464  -0.464  -0.462  -0.462  -0.460  -0.460  -0.459  -0.458
 -0.457  -0.454  -0.451  -0.451  -0.450  -0.449  -0.444  -0.444
 -0.442  -0.441  -0.441  -0.439  -0.438  -0.435  -0.435  -0.434
 -0.433  -0.431  -0.429  -0.428  -0.427  -0.425  -0.425  -0.424
 -0.424  -0.422  -0.421  -0.421  -0.419  -0.419  -0.418  -0.417
 -0.417  -0.416  -0.415  -0.414  -0.413  -0.413  -0.412  -0.412
 -0.412  -0.410  -0.409  -0.407  -0.402  -0.397  -0.396  -0.395
 -0.395  -0.394  -0.393  -0.392  -0.391  -0.386  -0.384  -0.383
 -0.381  -0.381  -0.377  -0.376  -0.371  -0.370  -0.369  -0.366
 -0.365  -0.364  -0.363  -0.362  -0.360  -0.360  -0.359  -0.358
 -0.356  -0.356  -0.355  -0.354  -0.353  -0.353  -0.353  -0.350
 -0.349  -0.348  -0.347  -0.347  -0.346  -0.345  -0.343  -0.343
 -0.341  -0.341  -0.340  -0.339  -0.337  -0.337  -0.335  -0.333
 -0.332  -0.329  -0.327  -0.326  -0.326  -0.326  -0.322  -0.319
 -0.312  -0.310  -0.300  -0.299  -0.287  -0.286  -0.272  -0.272
 -0.270  -0.269  -0.268  -0.267  -0.267  -0.266  -0.264  -0.264
 -0.263  -0.262  -0.261  -0.259  -0.258  -0.257  -0.256  -0.254
 -0.251  -0.246  -0.245  -0.244  -0.220  -0.217  -0.214  -0.213
 -0.209  -0.208  -0.207  -0.204  -0.199  -0.198

          Ground-State Mulliken Net Atomic Charges

     Atom                 Charge (a.u.)
  ----------------------------------------
      1 O                    -0.473365
      2 C                    -0.082207
      3 H                     0.132860
      4 H                     0.124448
      5 H                     0.128688
      6 O                    -0.460707
      7 C                     0.583250
      8 C                    -0.255239
      9 H                     0.113394
     10 H                     0.138893
     11 C                    -0.189183
     12 H                     0.124684
     13 H                     0.106680
     14 C                    -0.163962
     15 H                     0.107516
     16 H                     0.110044
     17 C                    -0.004055
     18 C                     0.084899
     19 C                    -0.088631
     20 H                     0.089318
     21 C                    -0.084158
     22 H                     0.092119
     23 C                    -0.095006
     24 H                     0.092554
     25 C                    -0.110233
     26 H                     0.087192
     27 C                    -0.086779
     28 H                     0.098103
     29 C                    -0.013251
     30 C                    -0.007426
     31 C                    -0.019085
     32 C                     0.010976
     33 C                    -0.008818
     34 C                    -0.018351
     35 C                    -0.004234
     36 C                    -0.011687
     37 C                     0.044431
     38 C                    -0.007594
     39 C                    -0.078096
     40 C                     0.021321
     41 C                    -0.025213
     42 C                    -0.004491
     43 C                     0.034195
     44 C                    -0.021955
     45 C                    -0.099172
     46 C                     0.037098
     47 C                     0.009296
     48 C                     0.030188
     49 C                     0.011573
     50 C                    -0.001775
     51 C                     0.011755
     52 C                    -0.024264
     53 C                    -0.000603
     54 C                    -0.006421
     55 C                     0.008196
     56 C                    -0.005881
     57 C                    -0.015405
     58 C                     0.002047
     59 C                    -0.025119
     60 C                    -0.030441
     61 C                    -0.025603
     62 C                    -0.014846
     63 C                    -0.018801
     64 C                    -0.003900
     65 C                    -0.001229
     66 C                    -0.019318
     67 C                    -0.029356
     68 C                     0.019555
     69 C                    -0.007130
     70 C                     0.022279
     71 C                     0.012412
     72 C                     0.048032
     73 C                     0.017884
     74 C                    -0.002979
     75 C                     0.019736
     76 C                     0.005512
     77 C                    -0.015747
     78 C                    -0.022278
     79 C                    -0.004457
     80 C                    -0.005777
     81 C                    -0.014945
     82 C                    -0.014867
     83 C                     0.043494
     84 C                     0.018452
     85 C                    -0.002871
     86 C                     0.013422
     87 C                     0.036284
     88 C                     0.004225
     89 O                    -0.466696
     90 C                    -0.088914
     91 H                     0.122425
     92 H                     0.125486
     93 H                     0.123896
     94 O                    -0.466664
     95 C                     0.614138
     96 C                    -0.274359
     97 H                     0.141318
     98 H                     0.144215
     99 C                    -0.191709
    100 H                     0.109149
    101 H                     0.109073
    102 C                    -0.178724
    103 H                     0.107902
    104 H                     0.125823
    105 C                    -0.004775
    106 C                     0.113023
    107 C                    -0.103127
    108 H                     0.092154
    109 C                    -0.091944
    110 H                     0.096207
    111 C                    -0.098059
    112 H                     0.095468
    113 C                    -0.097186
    114 H                     0.100615
    115 C                    -0.114979
    116 H                     0.099323
    117 C                    -0.014908
    118 C                     0.000823
    119 C                    -0.019588
    120 C                    -0.016988
    121 C                    -0.022563
    122 C                     0.046366
    123 C                    -0.024985
    124 C                    -0.009735
    125 C                     0.000956
    126 C                    -0.016738
    127 C                    -0.107700
    128 C                    -0.002839
    129 C                    -0.009948
    130 C                     0.019627
    131 C                    -0.022660
    132 C                    -0.000246
    133 C                    -0.057667
    134 C                    -0.003912
    135 C                    -0.003566
    136 C                    -0.007584
    137 C                     0.037881
    138 C                     0.000986
    139 C                     0.006542
    140 C                     0.005475
    141 C                     0.050131
    142 C                    -0.008617
    143 C                     0.015275
    144 C                    -0.008823
    145 C                     0.008122
    146 C                    -0.007510
    147 C                    -0.011382
    148 C                     0.022821
    149 C                     0.003166
    150 C                    -0.019380
    151 C                     0.021271
    152 C                     0.013664
    153 C                    -0.043154
    154 C                     0.006224
    155 C                    -0.000892
    156 C                     0.029190
    157 C                     0.015322
    158 C                     0.006276
    159 C                     0.009852
    160 C                     0.004590
    161 C                     0.006489
    162 C                     0.010708
    163 C                     0.001068
    164 C                     0.011286
    165 C                    -0.017880
    166 C                     0.002259
    167 C                    -0.005284
    168 C                    -0.027450
    169 C                     0.021047
    170 C                    -0.002230
    171 C                     0.015467
    172 C                     0.001063
    173 C                     0.023787
    174 C                     0.018491
    175 C                    -0.031636
    176 C                    -0.023540
  ----------------------------------------
  Sum of atomic charges =     0.000000

                    Cartesian Multipole Moments
 -----------------------------------------------------------------
    Charge (ESU x 10^10)
                 0.0000
    Dipole Moment (Debye)
         X       0.0858      Y       7.2874      Z       0.5839
       Tot       7.3112
    Quadrupole Moments (Debye-Ang)
        XX    -818.5414     XY      -2.8122     YY    -768.9579
        XZ       6.8300     YZ       0.3026     ZZ    -820.9660

 Total job time:  873.32s(wall), 7514.84s(cpu)
        *  Thank you very much for using Q-Chem.  Have a nice day.  *
