 Q-Chem 4.4, Q-Chem, Inc., Pleasanton, CA (2016)
 Q-Chem 4.4.2 for Intel X86 Linux

User input:
--------------------------------------------------------------
$comment
SP
$end

$rem
MEM_STATIC 5000
MEM_TOTAL 20000
JOBTYPE SP
EXCHANGE B3LYP
BASIS 6-31g(d,p)
$end

$molecule
0 1
O          30.240000    -11.146000      8.457000
C          31.270000    -10.468000      9.217000
H          31.956000     -9.950000      8.535000
H          31.848000    -11.234000      9.747000
H          30.749000     -9.831000      9.942000
O          29.366000    -12.192000     10.341000
C          29.350000    -11.952000      9.156000
C          28.325000    -12.504000      8.195000
H          27.474000    -12.820000      8.812000
H          28.789000    -13.427000      7.828000
C          27.846000    -11.574000      7.012000
H          27.247000    -10.749000      7.416000
H          28.719000    -11.112000      6.535000
C          27.069000    -12.538000      6.082000
H          27.626000    -13.117000      5.335000
H          26.570000    -13.237000      6.764000
C          25.902000    -11.803000      5.282000
C          26.471000    -10.826000      4.282000
C          26.538000    -11.154000      2.893000
H          26.214000    -12.103000      2.477000
C          27.084000    -10.280000      1.957000
H          27.243000    -10.587000      0.927000
C          27.407000     -8.974000      2.376000
H          27.636000     -8.149000      1.709000
C          27.130000     -8.590000      3.682000
H          27.278000     -7.546000      3.941000
C          26.834000     -9.516000      4.706000
H          26.630000     -9.162000      5.712000
C          21.664000     -8.542000      6.203000
C          21.080000     -9.630000      4.054000
C          17.767000    -12.250000      5.719000
C          22.723000    -11.928000      9.713000
C          19.789000    -15.093000      5.932000
C          22.077000     -9.088000      4.947000
C          21.106000    -14.239000      9.204000
C          18.339000     -9.910000      6.197000
C          22.731000    -13.248000      3.810000
C          23.267000    -13.069000      9.094000
C          24.551000    -12.430000      5.152000
C          23.025000    -14.199000      4.822000
C          22.828000    -14.642000      7.560000
C          20.198000    -14.805000      8.366000
C          22.941000    -10.852000      3.951000
C          18.226000    -13.809000      7.284000
C          24.793000    -11.323000      6.166000
C          24.504000    -11.605000      7.650000
C          18.690000    -14.273000      6.050000
C          19.477000    -10.536000      9.481000
C          17.885000    -11.477000      8.039000
C          18.284000    -10.204000      7.540000
C          19.356000     -9.066000      5.671000
C          23.834000    -10.496000      8.188000
C          23.523000    -12.107000      4.082000
C          19.745000     -9.620000      4.406000
C          22.461000    -14.131000      8.786000
C          21.610000    -10.708000      3.391000
C          22.025000    -15.016000      5.331000
C          21.803000     -9.915000      9.382000
C          18.077000    -10.954000      5.247000
C          24.078000    -13.720000      5.651000
C          20.232000     -8.820000      7.961000
C          21.960000    -15.253000      6.737000
C          21.365000    -13.108000      3.319000
C          19.226000    -12.987000      9.367000
C          20.529000    -13.126000      9.830000
C          20.370000    -13.977000      3.814000
C          23.012000    -10.633000      9.342000
C          24.181000    -12.924000      8.052000
C          20.791000    -10.739000      9.861000
C          24.085000    -10.026000      5.967000
C          19.462000    -11.894000      3.491000
C          23.903000    -13.865000      7.067000
C          20.694000    -14.904000      4.846000
C          21.558000     -8.865000      8.476000
C          18.364000    -13.365000      5.081000
C          20.330000     -8.647000      6.597000
C          17.656000    -12.526000      7.088000
C          20.812000    -11.840000      3.033000
C          19.192000    -13.195000      3.919000
C          23.236000     -9.855000      4.864000
C          23.597000     -9.558000      7.220000
C          18.694000    -11.687000      9.164000
C          18.935000    -10.771000      4.159000
C          20.595000    -15.293000      7.138000
C          21.339000    -11.966000     10.065000
C          18.988000    -14.033000      8.433000
C          22.487000     -8.764000      7.341000
C          19.201000     -9.628000      8.458000
O          24.113000    -14.218000     12.310000
C          23.832000    -13.122000     13.096000
H          24.614000    -12.371000     12.928000
H          23.706000    -13.456000     14.133000
H          22.898000    -12.623000     12.807000
O          22.006000    -14.954000     12.709000
C          23.071000    -15.068000     12.129000
C          23.554000    -16.289000     11.294000
H          24.305000    -16.897000     11.813000
H          24.145000    -15.862000     10.474000
C          22.351000    -17.200000     10.896000
H          22.130000    -17.929000     11.686000
H          21.462000    -16.565000     10.800000
C          22.615000    -17.864000      9.546000
H          21.604000    -18.151000      9.231000
H          22.832000    -17.135000      8.755000
C          23.667000    -19.001000      9.526000
C          23.303000    -20.021000     10.633000
C          22.226000    -20.858000     10.513000
H          21.632000    -20.744000      9.611000
C          21.899000    -21.768000     11.518000
H          20.914000    -22.227000     11.547000
C          22.687000    -21.799000     12.702000
H          22.270000    -22.238000     13.604000
C          23.876000    -21.089000     12.725000
H          24.546000    -21.006000     13.576000
C          24.159000    -20.091000     11.743000
H          25.053000    -19.488000     11.865000
C          28.912000    -20.420000      8.998000
C          27.702000    -22.293000      7.946000
C          28.895000    -21.457000      3.678000
C          27.378000    -16.077000      6.833000
C          25.784000    -19.909000      2.939000
C          27.826000    -21.335000      8.951000
C          26.761000    -16.578000      4.149000
C          30.196000    -21.227000      5.716000
C          24.147000    -21.196000      6.440000
C          26.039000    -16.275000      6.473000
C          24.109000    -19.547000      8.133000
C          23.840000    -19.964000      5.834000
C          24.690000    -17.422000      5.141000
C          26.715000    -17.677000      3.238000
C          25.632000    -21.554000      8.314000
C          28.204000    -19.477000      2.722000
C          25.131000    -18.769000      9.015000
C          25.632000    -17.482000      8.528000
C          27.092000    -20.409000      2.717000
C          30.279000    -17.757000      5.747000
C          30.132000    -19.409000      4.213000
C          30.669000    -19.982000      5.359000
C          29.849000    -21.539000      7.045000
C          26.980000    -17.368000      8.776000
C          24.488000    -20.968000      7.805000
C          28.739000    -22.403000      7.043000
C          25.775000    -16.524000      5.128000
C          26.364000    -22.471000      7.545000
C          24.136000    -19.693000      4.526000
C          29.184000    -17.073000      7.826000
C          29.316000    -21.969000      4.943000
C          23.820000    -18.970000      6.791000
C          30.345000    -19.254000      7.620000
C          24.555000    -18.397000      4.169000
C          24.868000    -22.096000      5.639000
C          28.899000    -17.380000      3.828000
C          28.098000    -16.488000      4.580000
C          25.271000    -21.806000      4.356000
C          27.835000    -16.609000      8.035000
C          25.183000    -16.962000      7.288000
C          29.543000    -16.771000      6.498000
C          26.348000    -19.492000      9.499000
C          27.039000    -22.784000      5.330000
C          24.323000    -17.731000      6.484000
C          24.895000    -20.581000      3.732000
C          29.590000    -18.352000      8.393000
C          27.550000    -21.613000      3.309000
C          29.951000    -20.533000      8.016000
C          29.211000    -20.132000      3.388000
C          25.957000    -22.709000      6.232000
C          26.623000    -22.274000      4.163000
C          26.511000    -20.817000      9.130000
C          27.420000    -18.578000      9.366000
C          29.925000    -18.041000      4.460000
C          28.402000    -22.645000      5.700000
C          25.605000    -18.568000      3.189000
C          28.430000    -16.122000      5.879000
C          28.015000    -18.076000      2.988000
C          28.707000    -19.035000      9.205000
C          30.705000    -18.956000      6.312000
$end

--------------------------------------------------------------

             Standard Nuclear Orientation (Angstroms)
    I     Atom           X                Y                Z
 ----------------------------------------------------------------
    1      O       0.3834807571     5.0999632050    -5.2537135405
    2      C       0.3792650782     5.7054894818    -6.5695798545
    3      H       0.4342202790     6.7975021608    -6.4772097581
    4      H      -0.5795371648     5.4624589610    -7.0422048906
    5      H       1.1965474935     5.2337158110    -7.1284305118
    6      O      -0.0105251249     2.9693608230    -6.0979533493
    7      C       0.2008196189     3.7247542332    -5.1777385945
    8      C       0.3077666461     3.2918119271    -3.7355273433
    9      H       0.5124453259     2.2137265392    -3.7597044882
   10      H      -0.7173217020     3.3945469710    -3.3606228362
   11      C       1.3500320759     4.0405862246    -2.8152829056
   12      H       2.3677829745     3.7786135586    -3.1286444071
   13      H       1.2547138247     5.1233174264    -2.9626246025
   14      C       0.9764706648     3.5739826508    -1.3867669004
   15      H       0.1877477990     4.1095477694    -0.8440098233
   16      H       0.6673889207     2.5289683886    -1.5098102554
   17      C       2.2348786393     3.5430515730    -0.4082135610
   18      C       2.7378431339     4.9403116312    -0.1380635160
   19      C       2.4300535929     5.6060653513     1.0880814928
   20      H       1.8180849474     5.1763939026     1.8751709560
   21      C       2.8596709483     6.9046742302     1.3471797515
   22      H       2.5179344282     7.4450985856     2.2255803815
   23      C       3.7699470050     7.4956188173     0.4484539894
   24      H       4.3330398275     8.4024327895     0.6448461814
   25      C       4.2404570490     6.7555722640    -0.6289374889
   26      H       5.0290645904     7.1934526337    -1.2333214129
   27      C       3.6293791479     5.5581183221    -1.0606270252
   28      H       4.0351889519     5.0212590624    -1.9127235798
   29      C       7.2908862497     1.5821922646    -0.2216021576
   30      C       6.7098395705     1.8682287694     2.1707959854
   31      C       6.3489464256    -2.5575149275     3.1169158866
   32      C       3.8755912308    -1.1783978743    -2.5925679984
   33      C       2.8618170438    -2.5733740947     2.8798944494
   34      C       6.6101327854     2.3148015582     0.8011780455
   35      C       2.8411052556    -3.0794115104    -0.7136116597
   36      C       7.9841669542    -1.3522782075     1.7367976774
   37      C       2.7818781744     1.4925017568     2.7232536606
   38      C       2.6250416719    -0.9803729187    -1.9778404834
   39      C       2.4574695134     2.3887853596     0.5155574125
   40      C       1.8244925639     0.7002695388     2.0371327489
   41      C       1.5582664307    -1.1565845567    -0.0154067791
   42      C       2.8715879407    -3.5056032310     0.5765415960
   43      C       4.6641736742     2.6585303952     1.7734442764
   44      C       4.7923314301    -3.8201236497     2.0809834707
   45      C       3.2452748124     2.5025864078    -0.7800587083
   46      C       3.1665647749     1.3503256712    -1.7956378163
   47      C       4.1517932281    -3.0266747362     3.0367541720
   48      C       6.8277605288    -2.6677181414    -1.3297831482
   49      C       6.9239980666    -3.4065237493     0.8937756233
   50      C       7.7666382325    -2.2692998531     0.7343693474
   51      C       8.1281197639     0.0327643120     1.4465636203
   52      C       4.4600935536     1.0949427136    -2.2749997292
   53      C       3.2960950103     2.4152002418     1.7812676992
   54      C       7.4539514133     0.7500136943     2.4903607071
   55      C       2.1845104821    -1.8566469160    -1.0236810876
   56      C       5.5196464091     2.1097767796     2.8092690054
   57      C       1.6937149164    -0.6511648236     2.3253902221
   58      C       6.0627487831    -0.7117366339    -2.5107197981
   59      C       7.2598145451    -1.4865597939     2.9690160196
   60      C       1.6414731063     1.1923417810     0.7143100901
   61      C       7.8455189902    -0.5143861385    -0.9393859155
   62      C       1.5291200570    -1.5839133791     1.2576268286
   63      C       3.6531863816     0.8793636716     3.7190049833
   64      C       4.9221560987    -3.9024081156    -0.3666578065
   65      C       4.0864919218    -3.3170823244    -1.3103516666
   66      C       3.4763066539    -0.4846736962     4.0325757428
   67      C       4.7970105219    -0.1784511144    -2.8145589151
   68      C       2.2438230789     0.2985750799    -1.5764063032
   69      C       5.9328118964    -2.0580985765    -2.1898040383
   70      C       4.7180279090     2.7152740815    -0.6860572738
   71      C       5.7152131093     0.0179793960     4.0807395601
   72      C       1.6142752525     0.2197743718    -0.3392927342
   73      C       2.5223492848    -1.2561367999     3.3086012836
   74      C       7.0754660716     0.1011997971    -1.9658353582
   75      C       5.0908821332    -2.3002132146     3.7150363301
   76      C       7.9384457871     0.3886934749     0.0978415535
   77      C       6.1772725018    -3.5196090526     2.1131425266
   78      C       5.0164161204     1.2346790177     3.8228543169
   79      C       4.7781952028    -1.0030919593     4.2483573707
   80      C       5.3311932986     2.8147022492     0.5712387314
   81      C       5.3751046763     1.8964529703    -1.6478052188
   82      C       6.3003270303    -3.5638146364    -0.3514151313
   83      C       6.9412743908    -0.2036281367     3.4229053596
   84      C       2.2479815493    -2.7730417439     1.5655844344
   85      C       4.6066992604    -2.3526671663    -2.2356693028
   86      C       4.1828640766    -4.0297913836     0.8417861554
   87      C       6.6494574731     1.4219285688    -1.4803879504
   88      C       7.7393731382    -1.8765912397    -0.6296048311
   89      O       1.1936378662    -2.7007868262    -4.6925839578
   90      C       2.2612376053    -2.8291810995    -5.5538148837
   91      H       2.4565548759    -1.8484207216    -6.0051564893
   92      H       2.0501189702    -3.6443504916    -6.2564732531
   93      H       3.1932589640    -3.0894566665    -5.0356731887
   94      O       1.7413253306    -4.7234848544    -3.8270915385
   95      C       1.0598696204    -3.7142640682    -3.8003984747
   96      C      -0.2233270042    -3.4756325497    -2.9531580005
   97      H      -1.1457623130    -3.5199201536    -3.5449161515
   98      H      -0.1915913111    -2.4148973897    -2.6741530434
   99      C      -0.3187270161    -4.5087375912    -1.7873420584
  100      H      -0.8064058759    -5.4341344375    -2.1192938720
  101      H       0.7015211544    -4.7823293856    -1.4923790088
  102      C      -1.0155170750    -3.8816863021    -0.5813643245
  103      H      -0.6965425932    -4.5413314772     0.2352374897
  104      H      -0.5256295961    -2.9585153188    -0.2467352855
  105      C      -2.5441579422    -3.6606391002    -0.7008140362
  106      C      -3.1962892123    -4.9944190475    -1.1413828260
  107      C      -3.3000270457    -6.0600567155    -0.2878297682
  108      H      -2.8754741907    -5.9208943562     0.7020311872
  109      C      -3.8806208508    -7.2611948468    -0.6943171886
  110      H      -3.7201288999    -8.1721882730    -0.1232827666
  111      C      -4.3435257592    -7.3837228173    -2.0338943391
  112      H      -4.4814212774    -8.3744627406    -2.4577259456
  113      C      -4.4073086114    -6.2447190994    -2.8193574371
  114      H      -4.7093758008    -6.2125143985    -3.8622899710
  115      C      -3.7290893629    -5.0465674153    -2.4387418925
  116      H      -3.7195731095    -4.2164706463    -3.1377252937
  117      C      -6.6201144202    -0.3733969784    -2.2445070180
  118      C      -7.5127319314    -1.4899706334    -0.2356689828
  119      C      -7.4651475386     2.0868492536     2.5106129075
  120      C      -2.1472376320     1.7505692113    -1.0679991081
  121      C      -4.4563359486     1.0437384986     4.0853251887
  122      C      -6.7840887725    -1.5214837009    -1.4236298717
  123      C      -2.2194251005     2.5791206437     1.6047967115
  124      C      -7.9950510406     1.9673395706     0.1433645652
  125      C      -4.6336308969    -2.6234322622     2.3207957577
  126      C      -1.5729976145     0.9286976113    -0.0899906850
  127      C      -3.2406387724    -2.8319754306     0.4226448975
  128      C      -3.4355035530    -1.9363695937     2.5886478759
  129      C      -1.7828486979     0.2034082318     1.9931684156
  130      C      -3.1088869402     2.5481367801     2.7218175869
  131      C      -5.7551467972    -2.7937172913     0.1857383593
  132      C      -5.4306090927     3.0437933809     3.0172964868
  133      C      -3.1572756765    -2.2537641383    -1.0217976578
  134      C      -2.3592516851    -1.0458846438    -1.2425324215
  135      C      -5.5945024129     1.8465768399     3.8204182294
  136      C      -5.1466899768     3.5983143585    -0.9860204405
  137      C      -6.4404413614     3.5888244470     0.8660017776
  138      C      -7.2168682936     3.0644871670    -0.1597884718
  139      C      -8.0664803809     0.8468926937    -0.7072179678
  140      C      -3.0082968424    -0.1942096893    -2.1056628610
  141      C      -4.6342780870    -3.0381766605     0.9571694653
  142      C      -8.1747664416    -0.3194283079     0.0716077190
  143      C      -1.6323832174     1.3762490575     1.2279216994
  144      C      -6.9222812079    -2.2792656346     0.7698708445
  145      C      -3.3701777486    -0.8817927839     3.4578551535
  146      C      -3.9762295410     1.9990320937    -2.4217922211
  147      C      -8.1269390055     1.4439267294     1.4205245248
  148      C      -2.5972999996    -2.0248650136     1.4960050414
  149      C      -6.4353990216     1.9203629829    -2.1161541401
  150      C      -2.5196679449     0.2012021766     3.1639487240
  151      C      -5.7804546624    -2.0911048361     2.9314222905
  152      C      -4.0671622358     3.8752105705     1.1322426083
  153      C      -2.8827812981     3.3107655777     0.6017592019
  154      C      -5.7583586995    -0.9673080534     3.7246376203
  155      C      -2.8454456832     1.1584016813    -2.1161022202
  156      C      -1.6753906045    -0.4326049042    -0.1627995918
  157      C      -3.9197627682     3.1226811148    -1.5745063300
  158      C      -4.4326332853    -2.0075152042    -1.7640229822
  159      C      -7.5513367556    -0.7264774538     2.3986608811
  160      C      -1.8407702988    -0.9373192290     1.1392334366
  161      C      -4.5279696580    -0.3214344445     4.0414452717
  162      C      -5.2680953178     1.3808357368    -2.6884044470
  163      C      -6.8525489822     1.2850445890     3.4859868300
  164      C      -7.2855983003     0.8409275409    -1.8714639011
  165      C      -6.5337611978     3.0744353031     2.1995272617
  166      C      -6.8936678622    -1.9437815793     2.1237148994
  167      C      -6.8941654299    -0.1352903852     3.4054720345
  168      C      -5.6269624966    -2.2971138651    -1.1252230521
  169      C      -4.2614139651    -0.7698934515    -2.4282859887
  170      C      -5.1857330869     3.9351433919     0.3358580856
  171      C      -8.1880463075     0.0794907397     1.4193722528
  172      C      -3.2395998923     1.3954791603     3.5480600064
  173      C      -2.7632319341     2.9895835281    -0.7451376170
  174      C      -4.1583440756     3.4072209481     2.4529028921
  175      C      -5.3522512758     0.0042644753    -2.7474919815
  176      C      -6.3828597065     3.0317932543    -1.2847514866
 ----------------------------------------------------------------

    9   -5804.3073256324      7.82E-06 Convergence criterion met
 Total energy in the final basis set = -5804.3073256324

                    Orbital Energies (a.u.)
 --------------------------------------------------------------

 Alpha MOs
 -- Occupied --
-19.190 -19.188 -19.140 -19.138 -10.316 -10.314 -10.245 -10.242
-10.241 -10.240 -10.239 -10.237 -10.236 -10.232 -10.231 -10.231
-10.228 -10.227 -10.227 -10.226 -10.225 -10.225 -10.225 -10.223
-10.223 -10.222 -10.222 -10.222 -10.222 -10.222 -10.222 -10.222
-10.221 -10.221 -10.221 -10.221 -10.221 -10.221 -10.221 -10.220
-10.220 -10.220 -10.220 -10.219 -10.219 -10.219 -10.219 -10.219
-10.219 -10.219 -10.219 -10.218 -10.218 -10.218 -10.218 -10.218
-10.218 -10.217 -10.217 -10.217 -10.217 -10.217 -10.217 -10.217
-10.217 -10.217 -10.217 -10.217 -10.217 -10.217 -10.217 -10.217
-10.217 -10.216 -10.216 -10.216 -10.216 -10.216 -10.216 -10.216
-10.215 -10.215 -10.215 -10.215 -10.215 -10.215 -10.215 -10.215
-10.215 -10.215 -10.215 -10.215 -10.214 -10.214 -10.214 -10.214
-10.214 -10.214 -10.214 -10.214 -10.214 -10.214 -10.214 -10.214
-10.213 -10.213 -10.213 -10.213 -10.213 -10.213 -10.213 -10.213
-10.213 -10.212 -10.212 -10.212 -10.212 -10.212 -10.212 -10.212
-10.212 -10.212 -10.212 -10.212 -10.211 -10.211 -10.210 -10.210
-10.210 -10.209 -10.207 -10.206 -10.206 -10.204 -10.202 -10.201
-10.201 -10.201 -10.201 -10.200 -10.199 -10.199 -10.198 -10.197
-10.196 -10.196 -10.196 -10.187  -1.107  -1.086  -1.015  -1.014
 -0.986  -0.984  -0.968  -0.967  -0.965  -0.963  -0.963  -0.962
 -0.934  -0.931  -0.930  -0.928  -0.927  -0.926  -0.925  -0.925
 -0.923  -0.921  -0.897  -0.895  -0.893  -0.890  -0.889  -0.883
 -0.875  -0.873  -0.853  -0.853  -0.848  -0.843  -0.843  -0.840
 -0.838  -0.838  -0.822  -0.818  -0.804  -0.804  -0.800  -0.798
 -0.797  -0.797  -0.796  -0.796  -0.796  -0.794  -0.784  -0.783
 -0.777  -0.773  -0.772  -0.771  -0.770  -0.770  -0.762  -0.761
 -0.751  -0.749  -0.742  -0.740  -0.733  -0.732  -0.722  -0.718
 -0.717  -0.717  -0.715  -0.714  -0.713  -0.713  -0.712  -0.711
 -0.709  -0.709  -0.707  -0.707  -0.696  -0.694  -0.675  -0.674
 -0.663  -0.662  -0.661  -0.658  -0.648  -0.645  -0.636  -0.634
 -0.628  -0.627  -0.624  -0.624  -0.622  -0.622  -0.620  -0.618
 -0.617  -0.617  -0.616  -0.615  -0.614  -0.611  -0.610  -0.610
 -0.607  -0.606  -0.604  -0.604  -0.568  -0.566  -0.564  -0.563
 -0.562  -0.561  -0.560  -0.559  -0.558  -0.557  -0.554  -0.552
 -0.538  -0.536  -0.535  -0.533  -0.532  -0.530  -0.529  -0.528
 -0.526  -0.524  -0.522  -0.520  -0.517  -0.516  -0.516  -0.515
 -0.507  -0.506  -0.504  -0.498  -0.494  -0.491  -0.489  -0.487
 -0.486  -0.486  -0.484  -0.483  -0.482  -0.480  -0.478  -0.475
 -0.474  -0.473  -0.471  -0.470  -0.470  -0.468  -0.468  -0.467
 -0.466  -0.466  -0.465  -0.465  -0.462  -0.462  -0.459  -0.457
 -0.456  -0.455  -0.454  -0.454  -0.450  -0.448  -0.445  -0.444
 -0.443  -0.442  -0.441  -0.441  -0.440  -0.439  -0.436  -0.434
 -0.432  -0.431  -0.430  -0.430  -0.428  -0.428  -0.426  -0.425
 -0.425  -0.424  -0.424  -0.423  -0.422  -0.421  -0.420  -0.420
 -0.418  -0.418  -0.417  -0.417  -0.417  -0.416  -0.415  -0.414
 -0.413  -0.412  -0.410  -0.410  -0.404  -0.402  -0.401  -0.398
 -0.394  -0.394  -0.392  -0.392  -0.391  -0.387  -0.386  -0.382
 -0.378  -0.375  -0.374  -0.373  -0.371  -0.369  -0.369  -0.366
 -0.364  -0.364  -0.363  -0.362  -0.361  -0.361  -0.360  -0.359
 -0.359  -0.357  -0.356  -0.355  -0.355  -0.354  -0.354  -0.354
 -0.352  -0.350  -0.350  -0.349  -0.347  -0.347  -0.345  -0.345
 -0.345  -0.343  -0.341  -0.340  -0.339  -0.338  -0.336  -0.335
 -0.334  -0.334  -0.333  -0.331  -0.330  -0.328  -0.324  -0.321
 -0.318  -0.304  -0.299  -0.297  -0.289  -0.282  -0.275  -0.274
 -0.272  -0.271  -0.270  -0.270  -0.269  -0.267  -0.267  -0.266
 -0.263  -0.262  -0.262  -0.260  -0.260  -0.258  -0.255  -0.255
 -0.251  -0.251  -0.247  -0.246  -0.223  -0.221  -0.217  -0.216
 -0.212  -0.210  -0.210  -0.206  -0.204  -0.201

          Ground-State Mulliken Net Atomic Charges

     Atom                 Charge (a.u.)
  ----------------------------------------
      1 O                    -0.478626
      2 C                    -0.082015
      3 H                     0.124972
      4 H                     0.129433
      5 H                     0.129034
      6 O                    -0.465462
      7 C                     0.590477
      8 C                    -0.280384
      9 H                     0.136073
     10 H                     0.143562
     11 C                    -0.174993
     12 H                     0.108485
     13 H                     0.135238
     14 C                    -0.187193
     15 H                     0.119299
     16 H                     0.114619
     17 C                    -0.010069
     18 C                     0.075899
     19 C                    -0.100203
     20 H                     0.091661
     21 C                    -0.092332
     22 H                     0.095436
     23 C                    -0.079809
     24 H                     0.090484
     25 C                    -0.093932
     26 H                     0.085860
     27 C                    -0.097752
     28 H                     0.096904
     29 C                    -0.015697
     30 C                     0.013372
     31 C                     0.002013
     32 C                    -0.000606
     33 C                    -0.018655
     34 C                    -0.030887
     35 C                    -0.004203
     36 C                    -0.017271
     37 C                    -0.000761
     38 C                     0.002737
     39 C                    -0.092547
     40 C                     0.007546
     41 C                     0.012875
     42 C                     0.009471
     43 C                    -0.004052
     44 C                    -0.003641
     45 C                    -0.075545
     46 C                     0.023829
     47 C                     0.041763
     48 C                    -0.017083
     49 C                    -0.005128
     50 C                     0.026579
     51 C                    -0.024338
     52 C                     0.024548
     53 C                     0.020546
     54 C                    -0.007954
     55 C                     0.013589
     56 C                     0.005807
     57 C                     0.002006
     58 C                     0.005778
     59 C                    -0.006375
     60 C                     0.030166
     61 C                     0.013962
     62 C                    -0.009424
     63 C                    -0.001608
     64 C                     0.017685
     65 C                    -0.004448
     66 C                    -0.001067
     67 C                    -0.029835
     68 C                    -0.050817
     69 C                     0.052869
     70 C                     0.011760
     71 C                     0.005478
     72 C                     0.023956
     73 C                    -0.005604
     74 C                    -0.045841
     75 C                    -0.001464
     76 C                     0.043528
     77 C                    -0.014288
     78 C                    -0.029423
     79 C                    -0.012638
     80 C                     0.046148
     81 C                     0.033137
     82 C                    -0.009603
     83 C                     0.021410
     84 C                    -0.017890
     85 C                    -0.004390
     86 C                    -0.018157
     87 C                    -0.031371
     88 C                    -0.007345
     89 O                    -0.439902
     90 C                    -0.086756
     91 H                     0.116386
     92 H                     0.117863
     93 H                     0.121320
     94 O                    -0.476482
     95 C                     0.599666
     96 C                    -0.264079
     97 H                     0.133592
     98 H                     0.127105
     99 C                    -0.189316
    100 H                     0.123350
    101 H                     0.120805
    102 C                    -0.200436
    103 H                     0.105823
    104 H                     0.105460
    105 C                     0.018179
    106 C                     0.097389
    107 C                    -0.096841
    108 H                     0.090463
    109 C                    -0.102714
    110 H                     0.094839
    111 C                    -0.086676
    112 H                     0.098699
    113 C                    -0.091862
    114 H                     0.087204
    115 C                    -0.117409
    116 H                     0.098247
    117 C                    -0.016835
    118 C                     0.018300
    119 C                    -0.031810
    120 C                    -0.021393
    121 C                     0.027312
    122 C                    -0.009289
    123 C                    -0.034853
    124 C                     0.038158
    125 C                    -0.013840
    126 C                     0.023133
    127 C                    -0.103384
    128 C                     0.037730
    129 C                     0.001449
    130 C                     0.013526
    131 C                     0.014751
    132 C                    -0.025416
    133 C                    -0.104384
    134 C                     0.029291
    135 C                    -0.013022
    136 C                     0.021282
    137 C                     0.001821
    138 C                    -0.023632
    139 C                    -0.013921
    140 C                     0.042949
    141 C                     0.034493
    142 C                    -0.024897
    143 C                     0.016074
    144 C                     0.001956
    145 C                     0.006080
    146 C                    -0.016875
    147 C                    -0.004541
    148 C                     0.038610
    149 C                     0.019004
    150 C                    -0.039027
    151 C                     0.010059
    152 C                    -0.001534
    153 C                     0.003679
    154 C                    -0.009676
    155 C                    -0.014807
    156 C                    -0.004860
    157 C                    -0.022003
    158 C                     0.003866
    159 C                     0.019430
    160 C                     0.007334
    161 C                    -0.021963
    162 C                    -0.003249
    163 C                    -0.003141
    164 C                    -0.016708
    165 C                     0.036048
    166 C                    -0.013175
    167 C                    -0.005483
    168 C                     0.021690
    169 C                     0.004144
    170 C                     0.010472
    171 C                     0.018781
    172 C                     0.002700
    173 C                    -0.014170
    174 C                    -0.012663
    175 C                    -0.000102
    176 C                    -0.004655
  ----------------------------------------
  Sum of atomic charges =     0.000000

                    Cartesian Multipole Moments
 -----------------------------------------------------------------
    Charge (ESU x 10^10)
                 0.0000
    Dipole Moment (Debye)
         X      -0.0411      Y       2.3308      Z      -0.5308
       Tot       2.3909
    Quadrupole Moments (Debye-Ang)
        XX    -818.9126     XY      22.1192     YY    -778.6255
        XZ      -2.2192     YZ     -12.6101     ZZ    -809.3465

 Total job time:  883.96s(wall), 7567.94s(cpu)
        *  Thank you very much for using Q-Chem.  Have a nice day.  *
