 Q-Chem 4.4, Q-Chem, Inc., Pleasanton, CA (2016)
 Q-Chem 4.4.2 for Intel X86 Linux

User input:
--------------------------------------------------------------
$comment
SP
$end

$rem
MEM_STATIC 5000
MEM_TOTAL 20000
JOBTYPE SP
EXCHANGE B3LYP
BASIS 6-31g(d,p)
$end

$molecule
0 1
O          25.848000     15.886000     13.601000
C          24.671000     16.227000     14.419000
H          23.899000     15.516000     14.100000
H          24.204000     17.171000     14.113000
H          24.887000     16.289000     15.492000
O          25.091000     17.065000     11.808000
C          25.862000     16.216000     12.267000
C          27.091000     15.641000     11.607000
H          26.953000     14.562000     11.752000
H          27.964000     15.893000     12.223000
C          27.232000     16.095000     10.139000
H          26.969000     17.131000      9.891000
H          28.260000     15.941000      9.791000
C          26.422000     15.173000      9.215000
H          26.682000     14.108000      9.258000
H          25.376000     15.212000      9.541000
C          26.543000     15.639000      7.744000
C          27.569000     14.852000      6.929000
C          27.275000     13.605000      6.453000
H          26.318000     13.137000      6.666000
C          28.149000     12.920000      5.598000
H          27.901000     11.940000      5.200000
C          29.318000     13.534000      5.225000
H          29.965000     13.047000      4.501000
C          29.662000     14.814000      5.728000
H          30.595000     15.341000      5.551000
C          28.771000     15.449000      6.626000
H          28.880000     16.441000      7.054000
C          26.215000     19.191000      3.741000
C          25.094000     17.243000      2.803000
C          20.914000     18.998000      2.943000
C          24.386000     20.697000      8.200000
C          20.123000     17.480000      6.067000
C          26.063000     17.793000      3.622000
C          21.537000     20.080000      8.190000
C          23.022000     20.024000      2.274000
C          23.375000     15.172000      5.854000
C          23.873000     19.491000      8.754000
C          25.208000     15.920000      7.216000
C          22.861000     15.593000      7.090000
C          22.357000     17.838000      8.737000
C          20.564000     19.502000      7.400000
C          25.396000     15.932000      4.737000
C          19.998000     19.649000      4.966000
C          26.239000     17.025000      7.240000
C          25.826000     18.244000      8.038000
C          19.918000     18.251000      4.925000
C          23.283000     22.052000      5.144000
C          21.591000     21.111000      3.914000
C          22.784000     21.107000      3.147000
C          24.288000     19.453000      2.254000
C          26.201000     19.421000      7.378000
C          24.745000     15.366000      5.863000
C          24.181000     18.053000      2.189000
C          22.489000     19.226000      8.761000
C          24.644000     16.137000      3.556000
C          21.565000     16.077000      7.171000
C          25.276000     21.344000      6.282000
C          22.102000     18.991000      2.245000
C          23.901000     16.077000      7.911000
C          25.121000     21.112000      3.881000
C          21.323000     17.220000      7.960000
C          22.594000     15.341000      4.655000
C          21.304000     21.284000      6.339000
C          22.073000     21.209000      7.533000
C          21.361000     15.956000      4.734000
C          25.491000     20.583000      7.432000
C          24.576000     18.248000      8.730000
C          24.059000     21.920000      6.364000
C          26.686000     17.611000      5.997000
C          22.354000     16.695000      2.896000
C          23.643000     17.223000      8.711000
C          20.821000     16.278000      6.002000
C          25.834000     20.926000      5.053000
C          20.415000     17.889000      3.662000
C          25.300000     19.982000      3.075000
C          20.621000     20.092000      3.840000
C          23.251000     15.875000      3.569000
C          21.102000     16.706000      3.544000
C          26.283000     17.006000      4.763000
C          26.689000     18.993000      6.104000
C          21.930000     21.668000      5.158000
C          22.820000     17.811000      2.220000
C          20.449000     18.087000      7.280000
C          23.485000     21.512000      7.547000
C          20.346000     20.247000      6.266000
C          26.548000     19.765000      4.972000
C          23.827000     21.657000      3.898000
O          27.955000      7.789000      4.619000
C          28.727000      8.941000      5.074000
H          28.195000      9.821000      4.691000
H          29.749000      8.934000      4.677000
H          28.828000      8.876000      6.165000
O          26.445000      7.900000      6.339000
C          26.881000      7.373000      5.324000
C          26.191000      6.127000      4.757000
H          25.230000      6.004000      5.271000
H          26.925000      5.386000      5.097000
C          25.959000      6.220000      3.195000
H          26.942000      6.250000      2.709000
H          25.490000      5.293000      2.844000
C          25.178000      7.427000      2.827000
H          24.177000      7.151000      3.181000
H          25.539000      8.255000      3.449000
C          25.054000      7.794000      1.367000
C          24.425000      6.601000      0.601000
C          23.138000      6.683000      0.147000
H          22.547000      7.594000      0.122000
C          22.503000      5.520000     -0.339000
H          21.420000      5.535000     -0.423000
C          23.159000      4.306000     -0.464000
H          22.705000      3.342000     -0.672000
C          24.465000      4.247000     -0.064000
H          25.010000      3.309000     -0.108000
C          25.130000      5.422000      0.327000
H          26.187000      5.411000      0.576000
C          28.406000      9.394000     -2.767000
C          26.147000      9.982000     -3.486000
C          26.363000     14.452000     -3.134000
C          29.062000     11.555000      1.826000
C          24.594000     14.451000     -0.087000
C          26.992000      9.174000     -2.761000
C          27.535000     13.913000      1.954000
C          27.974000     12.821000     -3.870000
C          23.571000     10.590000     -0.588000
C          27.827000     11.542000      2.520000
C          24.964000      9.121000      0.763000
C          23.737000     11.139000      0.691000
C          25.698000     12.335000      2.426000
C          26.606000     14.667000      1.200000
C          25.028000      9.110000     -1.733000
C          26.675000     15.302000     -1.084000
C          26.278000      8.518000      0.831000
C          27.270000      9.344000      1.562000
C          25.341000     14.917000     -1.243000
C          30.045000     13.190000     -1.049000
C          28.624000     14.497000     -2.233000
C          28.903000     13.397000     -2.998000
C          27.930000     11.446000     -4.097000
C          28.499000      9.393000      0.818000
C          24.297000      9.377000     -0.571000
C          26.596000     11.134000     -4.160000
C          27.078000     12.714000      2.545000
C          24.907000      9.868000     -2.850000
C          23.921000     12.516000      0.833000
C          30.107000     10.965000     -0.085000
C          26.661000     13.364000     -3.903000
C          24.583000     10.330000      1.491000
C          29.775000     11.186000     -2.478000
C          24.828000     13.133000      1.720000
C          23.516000     11.400000     -1.666000
C          28.650000     14.740000      0.207000
C          28.829000     13.941000      1.360000
C          23.610000     12.810000     -1.548000
C          29.324000     10.515000      0.918000
C          26.908000     10.443000      2.289000
C          30.159000     12.377000      0.077000
C          26.976000      8.324000     -0.506000
C          24.555000     12.226000     -3.528000
C          25.600000     10.946000      2.319000
C          23.695000     13.401000     -0.232000
C          29.945000     10.355000     -1.348000
C          25.073000     14.408000     -2.543000
C          28.873000     10.574000     -3.388000
C          27.334000     15.001000     -2.291000
C          24.107000     11.037000     -2.821000
C          24.255000     13.284000     -2.704000
C          26.338000      8.596000     -1.702000
C          28.354000      8.797000     -0.419000
C          29.287000     14.384000     -0.985000
C          25.831000     12.251000     -4.096000
C          25.281000     14.294000      1.124000
C          29.550000     12.712000      1.284000
C          27.341000     15.247000      0.150000
C          29.073000      9.280000     -1.525000
C          29.735000     12.588000     -2.279000
$end

--------------------------------------------------------------

             Standard Nuclear Orientation (Angstroms)
    I     Atom           X                Y                Z
 ----------------------------------------------------------------
    1      O      -7.7014261859    -7.1946685817     0.9714303800
    2      C      -8.7463962606    -7.3938704008    -0.0479273483
    3      H      -8.1998430893    -7.4325059094    -0.9982183187
    4      H      -9.3542262318    -6.4954363834    -0.2098533882
    5      H      -9.4249269901    -8.2248550609     0.1776597609
    6      O      -7.6027374935    -4.9514779318     0.6022485138
    7      C      -7.0915439078    -5.9681730950     1.0828055478
    8      C      -5.9630167742    -6.0428650295     2.0815615860
    9      H      -5.2939738934    -6.7837587706     1.6257457372
   10      H      -6.3376744431    -6.5313262445     2.9904764735
   11      C      -5.3294990351    -4.6619372385     2.3512182385
   12      H      -5.9945103804    -3.7912550520     2.4115625887
   13      H      -4.7558756866    -4.6831753153     3.2850861083
   14      C      -4.2514486167    -4.3549404469     1.3007325101
   15      H      -3.4352970646    -5.0845786806     1.2286305553
   16      H      -4.7306849928    -4.3831561955     0.3151111998
   17      C      -3.6294913497    -2.9605958991     1.5549183475
   18      C      -2.2935565166    -3.0058139381     2.2962033472
   19      C      -1.1418633915    -3.3401134772     1.6405603318
   20      H      -1.1556710669    -3.6061196311     0.5873309768
   21      C       0.1092206591    -3.2635402763     2.2674983218
   22      H       1.0256099872    -3.5045844331     1.7360509455
   23      C       0.1667870348    -2.8258998575     3.5666684324
   24      H       1.1361378905    -2.6867875869     4.0367329968
   25      C      -1.0147451177    -2.5019128888     4.2799420242
   26      H      -1.0728168161    -2.2232538580     5.3280468960
   27      C      -2.2603881865    -2.6387740254     3.6217988980
   28      H      -3.2369939842    -2.3870657001     4.0243073264
   29      C      -3.7690750944     2.3464122603     2.3062357067
   30      C      -1.9999193518     2.1003159419     0.6507256463
   31      C      -4.3506655024     3.8555627518    -2.8083387029
   32      C      -8.1402094765     0.1714178854     1.0183918954
   33      C      -5.4070946261     0.6752857156    -4.0163024771
   34      C      -2.7006406311     1.6180095694     1.7409514264
   35      C      -8.3420393764     0.3477146847    -1.8843265081
   36      C      -4.1894532685     4.5926331245    -0.4900119612
   37      C      -2.8188348227    -1.1825777345    -1.6086082292
   38      C      -7.7252906129    -0.8904996891     0.1671020496
   39      C      -3.8101217930    -2.1281347151     0.3656534401
   40      C      -4.0347183731    -1.7819757920    -1.9712129182
   41      C      -6.8511767035    -1.5923095559    -1.7756644790
   42      C      -7.6401210200     0.7914129659    -2.9867581187
   43      C      -2.1970199127    -0.2450086754     0.5463953618
   44      C      -6.3301101769     2.8656392342    -3.4845311385
   45      C      -4.3984106443    -1.6720851431     1.6811370072
   46      C      -5.8987686034    -1.4682668149     1.6543399247
   47      C      -5.2946068306     2.0633547467    -3.9810766257
   48      C      -7.4472370293     3.5614695866     0.3710058820
   49      C      -6.3653116703     4.2611126915    -1.5266721843
   50      C      -5.5968985258     4.6226313314    -0.3907146532
   51      C      -3.4627257291     4.0197753082     0.5457959389
   52      C      -6.2569391771    -0.3159025809     2.3652017343
   53      C      -2.6489332449    -1.3329650448    -0.2436415224
   54      C      -2.4167449590     3.2399331128     0.0228768451
   55      C      -7.8564228951    -0.7929069085    -1.2325443250
   56      C      -1.7705895293     0.9336643431    -0.1102453646
   57      C      -4.7432777143    -1.3032815258    -3.0617304373
   58      C      -7.1881073192     1.8737471587     2.0600298012
   59      C      -3.6251366678     4.1630030881    -1.6779912564
   60      C      -4.6716863314    -2.3194545603    -0.8331068626
   61      C      -5.5249315678     3.6139315563     1.8403603165
   62      C      -6.1422934976    -1.1712988536    -2.9482870052
   63      C      -2.3612104398    -0.0063598576    -2.3037444967
   64      C      -8.1030701822     2.5508810081    -1.7462762439
   65      C      -8.6294199377     1.4379040763    -1.0343350355
   66      C      -3.1501878350     0.5414321686    -3.2948012891
   67      C      -7.3107183142     0.4836758059     2.0373543101
   68      C      -6.6326757030    -1.7610779010     0.4639525773
   69      C      -7.9465997190     2.3924852299     1.0725131721
   70      C      -3.9341103393    -0.4428488917     2.2825166417
   71      C      -2.2927380844     2.2183067886    -2.1272031415
   72      C      -6.0836284103    -2.1910808607    -0.7340121655
   73      C      -4.3196871947    -0.1378177515    -3.7119329153
   74      C      -5.9686639951     2.4611777462     2.4655076481
   75      C      -4.1088675986     2.7226533898    -3.6169753031
   76      C      -4.1392884811     3.5149701149     1.6707228518
   77      C      -5.7942567466     3.8842242826    -2.7581706217
   78      C      -1.9098385977     1.0301688938    -1.5175685573
   79      C      -3.0042446374     1.9640598121    -3.3174324892
   80      C      -2.7972416816     0.2181323524     1.7152217888
   81      C      -5.0177561817     0.3135061636     2.7008714176
   82      C      -7.4881198966     3.5754702073    -1.0348367741
   83      C      -2.5747258251     3.3286020878    -1.3478987962
   84      C      -6.5499533423     0.0463988699    -3.5218641187
   85      C      -8.5330945751     1.3418585123     0.4034569084
   86      C      -7.5166281287     2.1599994397    -2.9717391431
   87      C      -4.8975014078     1.6822650688     2.7974470292
   88      C      -6.2371357606     4.1786502945     0.7700295572
   89      O       4.4603889113    -5.5882017291     0.5393426660
   90      C       3.5029726102    -5.3865753920     1.6223079685
   91      H       2.9761242924    -4.4552400089     1.3790832697
   92      H       3.9983047002    -5.2795932985     2.5945954530
   93      H       2.8796513877    -6.2866492780     1.7000553361
   94      O       2.9329239690    -6.5591800126    -0.8659590892
   95      C       4.0679317669    -6.1797165378    -0.6094151940
   96      C       5.1848239062    -6.3677090353    -1.6425249509
   97      H       4.7247683575    -6.6555133619    -2.5956060396
   98      H       5.6837672257    -7.2199799246    -1.1648986375
   99      C       6.0569823478    -5.0624297212    -1.8372107616
  100      H       6.5727083001    -4.8569026709    -0.8910763242
  101      H       6.8531331828    -5.2653765984    -2.5634665106
  102      C       5.2222836352    -3.8965496251    -2.2196184770
  103      H       4.9673036656    -4.1462742189    -3.2569785121
  104      H       4.3013076533    -3.9421216311    -1.6258883759
  105      C       5.8531155856    -2.5240953209    -2.2288506672
  106      C       7.0719000338    -2.5380691555    -3.1880248958
  107      C       7.0016392916    -1.8927025123    -4.3912598371
  108      H       6.2103689408    -1.2073583602    -4.6811246765
  109      C       8.0187087335    -2.1032330161    -5.3468940021
  110      H       7.8095495973    -1.8227966393    -6.3753773001
  111      C       9.1433812904    -2.8693459481    -5.0862417143
  112      H       9.8791835146    -3.2079028834    -5.8091872783
  113      C       9.2355226429    -3.4627234649    -3.8580193835
  114      H      10.0798885477    -4.1024849678    -3.6202034081
  115      C       8.2770805176    -3.1773659124    -2.8702487828
  116      H       8.3722110940    -3.5776544717    -1.8652163242
  117      C       8.0872452002     0.9964251470     1.4454466125
  118      C       7.5878011008     2.3388757393    -0.5329790239
  119      C       4.1269728487     4.7413572344     1.0169275782
  120      C       3.7264878534    -1.3579860428     2.7246843978
  121      C       1.7768613881     2.7284230034    -0.6678996842
  122      C       7.9166901223     1.1278440944     0.0307127062
  123      C       1.5563367842     0.2668064722     1.9771747860
  124      C       6.1691382367     4.0109934838     2.0625409484
  125      C       4.6972501070     0.9646661969    -2.8045659330
  126      C       3.0072928836    -1.6655261886     1.5434953129
  127      C       5.2409627810    -1.2351200818    -1.9163498242
  128      C       3.5178496705     0.2801683387    -2.4801043905
  129      C       1.9894044199    -0.7053215596    -0.2487759126
  130      C       1.2661029077     1.4834218171     1.3171108500
  131      C       6.8529919227     0.6707942596    -1.8608019220
  132      C       2.2693033637     3.6172847152     1.5717870702
  133      C       5.9463473937    -1.9044311171    -0.8443030499
  134      C       5.1040443684    -2.1556172277     0.3507417824
  135      C       2.3437099822     3.7604640155     0.1836136866
  136      C       4.5829648960     1.6647225124     4.1511552407
  137      C       4.0455499564     3.6426656609     3.1876864636
  138      C       5.4062631664     3.5112373247     3.1224779316
  139      C       7.3145091619     3.3592483118     1.6070810990
  140      C       5.8272059948    -1.7865082776     1.5369853683
  141      C       5.7470461409     0.0763064222    -2.4767257314
  142      C       7.2741187836     3.4727377090     0.2409340446
  143      C       1.9555625902    -0.8300721926     1.1814317681
  144      C       6.9786380541     2.0156677328    -1.7493461424
  145      C       2.4576485691     0.9719758670    -1.8905919070
  146      C       5.6197429762    -0.4419825218     3.5423448343
  147      C       5.4858228959     4.6166787844     0.9734438629
  148      C       3.7999577926    -0.9894980287    -1.9156937928
  149      C       6.9036010713     1.6009466038     3.2900295964
  150      C       1.6499642497     0.4897520122    -0.8393007037
  151      C       4.7751634295     2.2984625389    -2.6144979652
  152      C       2.3194864827     1.9036904445     3.2876618705
  153      C       2.2145442738     0.4950899138     3.2192317778
  154      C       3.6850668622     3.0459869841    -2.1009254994
  155      C       5.1301725100    -1.3394524516     2.6611714781
  156      C       3.7489761370    -1.9796627838     0.3364546545
  157      C       4.4904056364     0.2808361229     4.0164992181
  158      C       7.1023608949    -1.1243565768    -0.2380642383
  159      C       5.5946062248     4.0379164917    -1.3768976859
  160      C       3.0561267064    -1.4478102189    -0.7598416173
  161      C       2.4324084532     2.3739158366    -1.8410615291
  162      C       6.8347412848     0.1923619729     3.2033770303
  163      C       3.4833698276     4.5049058207    -0.2261262743
  164      C       7.7234132692     2.1029904716     2.2449899249
  165      C       3.4121720092     4.2395543046     2.1087813135
  166      C       5.9147185936     2.8559415286    -2.1609495069
  167      C       4.2223357265     4.1023405739    -1.3442906729
  168      C       7.5155591089     0.0848383168    -0.7658510752
  169      C       7.0193064175    -1.1669522770     1.2184623012
  170      C       3.4881372459     2.4851809691     3.7871547769
  171      C       6.2342850197     4.2477606185    -0.1528872767
  172      C       1.2809347978     1.5681677407    -0.0587990829
  173      C       3.3341521151    -0.3303174531     3.5374124816
  174      C       1.6788517393     2.5052538173     2.1915379569
  175      C       7.5353169992    -0.1578029017     2.0484241183
  176      C       5.7366871779     2.3067045389     3.6734649919
 ----------------------------------------------------------------

    9   -5804.1990626464      8.93E-06 Convergence criterion met
 Total energy in the final basis set = -5804.1990626464

                    Orbital Energies (a.u.)
 --------------------------------------------------------------

 Alpha MOs
 -- Occupied --
-19.198 -19.189 -19.139 -19.131 -10.320 -10.317 -10.251 -10.246
-10.240 -10.239 -10.236 -10.235 -10.234 -10.228 -10.227 -10.227
-10.226 -10.226 -10.224 -10.224 -10.222 -10.222 -10.220 -10.220
-10.220 -10.220 -10.219 -10.218 -10.218 -10.218 -10.218 -10.218
-10.218 -10.217 -10.217 -10.217 -10.217 -10.216 -10.216 -10.216
-10.216 -10.216 -10.216 -10.216 -10.215 -10.215 -10.215 -10.215
-10.215 -10.215 -10.214 -10.214 -10.214 -10.214 -10.214 -10.214
-10.213 -10.213 -10.213 -10.213 -10.213 -10.213 -10.212 -10.212
-10.212 -10.212 -10.212 -10.212 -10.212 -10.212 -10.212 -10.212
-10.211 -10.211 -10.211 -10.211 -10.211 -10.211 -10.211 -10.211
-10.210 -10.210 -10.210 -10.210 -10.210 -10.210 -10.210 -10.210
-10.209 -10.209 -10.209 -10.209 -10.208 -10.208 -10.208 -10.208
-10.208 -10.208 -10.208 -10.207 -10.207 -10.207 -10.207 -10.207
-10.207 -10.207 -10.206 -10.206 -10.206 -10.206 -10.206 -10.206
-10.205 -10.205 -10.205 -10.204 -10.204 -10.204 -10.204 -10.204
-10.203 -10.203 -10.203 -10.203 -10.202 -10.202 -10.201 -10.200
-10.200 -10.200 -10.200 -10.200 -10.200 -10.199 -10.199 -10.199
-10.198 -10.198 -10.198 -10.197 -10.197 -10.196 -10.195 -10.195
-10.193 -10.193 -10.193 -10.191  -1.095  -1.084  -1.008  -1.000
 -0.988  -0.981  -0.973  -0.969  -0.965  -0.963  -0.960  -0.959
 -0.945  -0.933  -0.931  -0.930  -0.926  -0.926  -0.924  -0.923
 -0.919  -0.916  -0.903  -0.894  -0.893  -0.892  -0.887  -0.882
 -0.879  -0.873  -0.864  -0.856  -0.844  -0.843  -0.840  -0.837
 -0.835  -0.831  -0.826  -0.817  -0.812  -0.805  -0.800  -0.799
 -0.797  -0.795  -0.793  -0.793  -0.791  -0.787  -0.787  -0.781
 -0.774  -0.773  -0.771  -0.767  -0.766  -0.764  -0.762  -0.761
 -0.754  -0.749  -0.746  -0.744  -0.740  -0.730  -0.720  -0.717
 -0.716  -0.715  -0.712  -0.711  -0.710  -0.709  -0.709  -0.708
 -0.707  -0.706  -0.706  -0.701  -0.700  -0.697  -0.678  -0.668
 -0.663  -0.661  -0.655  -0.652  -0.652  -0.643  -0.635  -0.632
 -0.630  -0.628  -0.625  -0.624  -0.619  -0.619  -0.618  -0.617
 -0.615  -0.615  -0.613  -0.612  -0.611  -0.610  -0.609  -0.606
 -0.605  -0.602  -0.600  -0.600  -0.570  -0.565  -0.565  -0.562
 -0.562  -0.561  -0.559  -0.557  -0.556  -0.556  -0.551  -0.549
 -0.540  -0.538  -0.534  -0.529  -0.529  -0.527  -0.525  -0.524
 -0.522  -0.522  -0.519  -0.516  -0.516  -0.513  -0.512  -0.510
 -0.510  -0.504  -0.504  -0.501  -0.495  -0.490  -0.488  -0.488
 -0.486  -0.485  -0.482  -0.480  -0.478  -0.477  -0.477  -0.474
 -0.472  -0.471  -0.469  -0.468  -0.467  -0.467  -0.466  -0.465
 -0.465  -0.464  -0.463  -0.462  -0.460  -0.460  -0.459  -0.458
 -0.458  -0.456  -0.454  -0.450  -0.448  -0.447  -0.445  -0.443
 -0.441  -0.441  -0.440  -0.439  -0.438  -0.436  -0.434  -0.433
 -0.432  -0.432  -0.428  -0.428  -0.425  -0.425  -0.424  -0.423
 -0.423  -0.422  -0.421  -0.420  -0.419  -0.419  -0.418  -0.417
 -0.416  -0.416  -0.415  -0.414  -0.413  -0.413  -0.412  -0.410
 -0.408  -0.407  -0.406  -0.405  -0.403  -0.401  -0.399  -0.398
 -0.393  -0.392  -0.390  -0.389  -0.388  -0.387  -0.383  -0.380
 -0.377  -0.377  -0.376  -0.373  -0.373  -0.370  -0.368  -0.367
 -0.366  -0.363  -0.361  -0.361  -0.360  -0.359  -0.358  -0.357
 -0.357  -0.356  -0.354  -0.354  -0.354  -0.352  -0.350  -0.350
 -0.349  -0.347  -0.347  -0.346  -0.346  -0.345  -0.344  -0.344
 -0.343  -0.341  -0.340  -0.338  -0.337  -0.335  -0.334  -0.332
 -0.331  -0.330  -0.329  -0.327  -0.327  -0.325  -0.322  -0.319
 -0.307  -0.303  -0.298  -0.294  -0.292  -0.280  -0.273  -0.273
 -0.271  -0.269  -0.268  -0.267  -0.265  -0.263  -0.263  -0.263
 -0.262  -0.261  -0.258  -0.257  -0.256  -0.255  -0.250  -0.249
 -0.248  -0.246  -0.244  -0.240  -0.226  -0.215  -0.213  -0.212
 -0.208  -0.206  -0.206  -0.201  -0.199  -0.190

          Ground-State Mulliken Net Atomic Charges

     Atom                 Charge (a.u.)
  ----------------------------------------
      1 O                    -0.482939
      2 C                    -0.094295
      3 H                     0.126390
      4 H                     0.142531
      5 H                     0.131016
      6 O                    -0.479779
      7 C                     0.610840
      8 C                    -0.273472
      9 H                     0.135343
     10 H                     0.144796
     11 C                    -0.173048
     12 H                     0.132136
     13 H                     0.096753
     14 C                    -0.184174
     15 H                     0.107997
     16 H                     0.114286
     17 C                    -0.002707
     18 C                     0.114420
     19 C                    -0.121316
     20 H                     0.091385
     21 C                    -0.075686
     22 H                     0.088480
     23 C                    -0.095080
     24 H                     0.085744
     25 C                    -0.099561
     26 H                     0.093862
     27 C                    -0.111945
     28 H                     0.091342
     29 C                    -0.015214
     30 C                     0.005770
     31 C                    -0.005874
     32 C                    -0.024448
     33 C                     0.006146
     34 C                    -0.013955
     35 C                    -0.028813
     36 C                    -0.019357
     37 C                     0.003468
     38 C                    -0.007816
     39 C                    -0.076748
     40 C                     0.013634
     41 C                    -0.024843
     42 C                     0.027462
     43 C                     0.023027
     44 C                    -0.005439
     45 C                    -0.071613
     46 C                    -0.019069
     47 C                     0.021886
     48 C                    -0.019027
     49 C                     0.010290
     50 C                     0.002868
     51 C                    -0.002571
     52 C                     0.017528
     53 C                     0.008459
     54 C                     0.007530
     55 C                     0.036559
     56 C                    -0.035575
     57 C                    -0.013553
     58 C                     0.026858
     59 C                     0.028467
     60 C                     0.020893
     61 C                    -0.017909
     62 C                    -0.020698
     63 C                    -0.034224
     64 C                    -0.008252
     65 C                    -0.009224
     66 C                     0.007308
     67 C                     0.001850
     68 C                     0.056592
     69 C                    -0.006906
     70 C                     0.027399
     71 C                     0.004995
     72 C                     0.007734
     73 C                    -0.005604
     74 C                     0.002584
     75 C                    -0.003491
     76 C                     0.013270
     77 C                    -0.010997
     78 C                     0.033380
     79 C                    -0.034813
     80 C                     0.014657
     81 C                    -0.006574
     82 C                     0.001151
     83 C                    -0.000885
     84 C                     0.003624
     85 C                     0.006483
     86 C                    -0.013979
     87 C                    -0.003936
     88 C                    -0.004977
     89 O                    -0.466402
     90 C                    -0.091318
     91 H                     0.134252
     92 H                     0.128721
     93 H                     0.138850
     94 O                    -0.478479
     95 C                     0.573043
     96 C                    -0.240874
     97 H                     0.134263
     98 H                     0.129399
     99 C                    -0.193764
    100 H                     0.110317
    101 H                     0.113730
    102 C                    -0.169396
    103 H                     0.108093
    104 H                     0.114542
    105 C                     0.019564
    106 C                     0.083303
    107 C                    -0.107243
    108 H                     0.097709
    109 C                    -0.105854
    110 H                     0.089563
    111 C                    -0.070726
    112 H                     0.091946
    113 C                    -0.089998
    114 H                     0.089760
    115 C                    -0.107595
    116 H                     0.089226
    117 C                    -0.029064
    118 C                     0.015368
    119 C                    -0.009800
    120 C                    -0.015472
    121 C                    -0.032411
    122 C                     0.017807
    123 C                     0.002104
    124 C                    -0.015657
    125 C                    -0.002501
    126 C                    -0.055345
    127 C                    -0.081178
    128 C                    -0.005901
    129 C                    -0.028306
    130 C                     0.022882
    131 C                     0.015874
    132 C                     0.011734
    133 C                    -0.071008
    134 C                     0.047848
    135 C                     0.016857
    136 C                    -0.013982
    137 C                    -0.013941
    138 C                     0.028585
    139 C                    -0.011853
    140 C                     0.004369
    141 C                     0.013941
    142 C                     0.017963
    143 C                     0.024051
    144 C                    -0.017922
    145 C                     0.019433
    146 C                    -0.012085
    147 C                     0.013060
    148 C                     0.027171
    149 C                     0.006666
    150 C                     0.013546
    151 C                     0.047812
    152 C                     0.015814
    153 C                    -0.018719
    154 C                    -0.001870
    155 C                     0.023328
    156 C                    -0.002411
    157 C                    -0.016103
    158 C                     0.001062
    159 C                    -0.032296
    160 C                    -0.005565
    161 C                    -0.037786
    162 C                    -0.015808
    163 C                    -0.023223
    164 C                    -0.026479
    165 C                     0.002651
    166 C                    -0.041184
    167 C                     0.037453
    168 C                     0.012153
    169 C                     0.000753
    170 C                    -0.007400
    171 C                     0.016516
    172 C                     0.025487
    173 C                     0.018593
    174 C                    -0.019810
    175 C                     0.013055
    176 C                     0.017709
  ----------------------------------------
  Sum of atomic charges =     0.000000

                    Cartesian Multipole Moments
 -----------------------------------------------------------------
    Charge (ESU x 10^10)
                 0.0000
    Dipole Moment (Debye)
         X       3.5436      Y      -4.7218      Z       0.3154
       Tot       5.9120
    Quadrupole Moments (Debye-Ang)
        XX    -790.3594     XY       4.4924     YY    -787.9495
        XZ     -16.8542     YZ      -2.5411     ZZ    -792.4832

 Total job time:  878.35s(wall), 7484.83s(cpu)
        *  Thank you very much for using Q-Chem.  Have a nice day.  *
