 Q-Chem 4.4, Q-Chem, Inc., Pleasanton, CA (2016)
 Q-Chem 4.4.2 for Intel X86 Linux

User input:
--------------------------------------------------------------
$comment
SP
$end

$rem
MEM_STATIC 5000
MEM_TOTAL 20000
JOBTYPE SP
EXCHANGE B3LYP
BASIS 6-31g(d,p)
$end

$molecule
0 1
O          34.175000      2.305000     -4.519000
C          35.183000      1.490000     -3.792000
H          35.300000      1.641000     -2.711000
H          36.182000      1.698000     -4.195000
H          35.021000      0.424000     -3.995000
O          34.912000      4.303000     -3.641000
C          34.140000      3.697000     -4.349000
C          32.865000      4.323000     -4.996000
H          32.632000      5.256000     -4.469000
H          32.072000      3.635000     -4.678000
C          33.097000      4.663000     -6.544000
H          33.811000      5.461000     -6.786000
H          33.588000      3.755000     -6.917000
C          31.793000      4.990000     -7.336000
H          31.273000      5.822000     -6.843000
H          31.910000      5.336000     -8.370000
C          30.772000      3.795000     -7.555000
C          31.403000      2.581000     -8.140000
C          31.814000      1.496000     -7.305000
H          31.795000      1.591000     -6.223000
C          32.520000      0.370000     -7.833000
H          32.883000     -0.417000     -7.179000
C          32.715000      0.249000     -9.246000
H          33.303000     -0.586000     -9.616000
C          32.148000      1.298000    -10.086000
H          32.282000      1.088000    -11.143000
C          31.504000      2.397000     -9.532000
H          31.017000      3.147000    -10.148000
C          25.755000      2.298000     -9.376000
C          26.114000      0.776000     -7.533000
C          23.128000      2.767000     -4.705000
C          26.484000      7.042000     -7.876000
C          25.445000      4.510000     -2.865000
C          26.642000      1.497000     -8.653000
C          25.592000      7.297000     -5.120000
C          23.051000      2.274000     -6.998000
C          28.525000      2.432000     -4.753000
C          27.443000      7.081000     -6.843000
C          29.605000      3.585000     -6.498000
C          28.664000      3.746000     -4.281000
C          27.872000      6.379000     -4.692000
C          25.063000      6.540000     -4.056000
C          28.127000      1.609000     -6.968000
C          23.356000      4.851000     -4.027000
C          29.321000      4.054000     -7.827000
C          28.762000      5.379000     -8.064000
C          24.180000      4.003000     -3.232000
C          23.272000      5.707000     -7.973000
C          22.375000      4.528000     -6.203000
C          22.581000      3.623000     -7.257000
C          23.925000      1.679000     -7.939000
C          27.721000      5.311000     -9.078000
C          28.996000      2.308000     -6.096000
C          24.756000      0.902000     -7.171000
C          26.995000      7.166000     -5.460000
C          27.056000      0.845000     -6.521000
C          27.704000      4.357000     -3.391000
C          25.340000      5.830000     -9.321000
C          23.277000      1.844000     -5.743000
C          29.173000      4.464000     -5.339000
C          24.023000      3.733000     -9.212000
C          27.329000      5.658000     -3.610000
C          27.387000      1.730000     -4.296000
C          23.489000      6.621000     -5.720000
C          24.668000      7.297000     -6.157000
C          26.450000      2.290000     -3.420000
C          26.630000      6.145000     -8.945000
C          28.519000      6.226000     -6.897000
C          24.433000      6.394000     -8.392000
C          28.351000      3.223000     -8.754000
C          25.325000      0.934000     -4.783000
C          28.730000      5.751000     -5.581000
C          26.604000      3.657000     -2.967000
C          25.097000      4.453000     -9.668000
C          24.037000      2.681000     -3.603000
C          24.404000      2.398000     -9.063000
C          22.641000      4.042000     -4.905000
C          26.689000      0.855000     -5.150000
C          25.175000      1.788000     -3.685000
C          27.944000      1.963000     -8.317000
C          27.477000      3.980000     -9.496000
C          22.799000      5.825000     -6.633000
C          24.363000      0.967000     -5.815000
C          25.919000      5.767000     -3.240000
C          25.132000      7.173000     -7.512000
C          23.801000      6.105000     -4.451000
C          26.192000      3.571000     -9.792000
C          23.102000      4.400000     -8.340000
O          27.955000      7.789000      4.619000
C          28.727000      8.941000      5.074000
H          28.195000      9.821000      4.691000
H          29.749000      8.934000      4.677000
H          28.828000      8.876000      6.165000
O          26.445000      7.900000      6.339000
C          26.881000      7.373000      5.324000
C          26.191000      6.127000      4.757000
H          25.230000      6.004000      5.271000
H          26.925000      5.386000      5.097000
C          25.959000      6.220000      3.195000
H          26.942000      6.250000      2.709000
H          25.490000      5.293000      2.844000
C          25.178000      7.427000      2.827000
H          24.177000      7.151000      3.181000
H          25.539000      8.255000      3.449000
C          25.054000      7.794000      1.367000
C          24.425000      6.601000      0.601000
C          23.138000      6.683000      0.147000
H          22.547000      7.594000      0.122000
C          22.503000      5.520000     -0.339000
H          21.420000      5.535000     -0.423000
C          23.159000      4.306000     -0.464000
H          22.705000      3.342000     -0.672000
C          24.465000      4.247000     -0.064000
H          25.010000      3.309000     -0.108000
C          25.130000      5.422000      0.327000
H          26.187000      5.411000      0.576000
C          28.406000      9.394000     -2.767000
C          26.147000      9.982000     -3.486000
C          26.363000     14.452000     -3.134000
C          29.062000     11.555000      1.826000
C          24.594000     14.451000     -0.087000
C          26.992000      9.174000     -2.761000
C          27.535000     13.913000      1.954000
C          27.974000     12.821000     -3.870000
C          23.571000     10.590000     -0.588000
C          27.827000     11.542000      2.520000
C          24.964000      9.121000      0.763000
C          23.737000     11.139000      0.691000
C          25.698000     12.335000      2.426000
C          26.606000     14.667000      1.200000
C          25.028000      9.110000     -1.733000
C          26.675000     15.302000     -1.084000
C          26.278000      8.518000      0.831000
C          27.270000      9.344000      1.562000
C          25.341000     14.917000     -1.243000
C          30.045000     13.190000     -1.049000
C          28.624000     14.497000     -2.233000
C          28.903000     13.397000     -2.998000
C          27.930000     11.446000     -4.097000
C          28.499000      9.393000      0.818000
C          24.297000      9.377000     -0.571000
C          26.596000     11.134000     -4.160000
C          27.078000     12.714000      2.545000
C          24.907000      9.868000     -2.850000
C          23.921000     12.516000      0.833000
C          30.107000     10.965000     -0.085000
C          26.661000     13.364000     -3.903000
C          24.583000     10.330000      1.491000
C          29.775000     11.186000     -2.478000
C          24.828000     13.133000      1.720000
C          23.516000     11.400000     -1.666000
C          28.650000     14.740000      0.207000
C          28.829000     13.941000      1.360000
C          23.610000     12.810000     -1.548000
C          29.324000     10.515000      0.918000
C          26.908000     10.443000      2.289000
C          30.159000     12.377000      0.077000
C          26.976000      8.324000     -0.506000
C          24.555000     12.226000     -3.528000
C          25.600000     10.946000      2.319000
C          23.695000     13.401000     -0.232000
C          29.945000     10.355000     -1.348000
C          25.073000     14.408000     -2.543000
C          28.873000     10.574000     -3.388000
C          27.334000     15.001000     -2.291000
C          24.107000     11.037000     -2.821000
C          24.255000     13.284000     -2.704000
C          26.338000      8.596000     -1.702000
C          28.354000      8.797000     -0.419000
C          29.287000     14.384000     -0.985000
C          25.831000     12.251000     -4.096000
C          25.281000     14.294000      1.124000
C          29.550000     12.712000      1.284000
C          27.341000     15.247000      0.150000
C          29.073000      9.280000     -1.525000
C          29.735000     12.588000     -2.279000
$end

--------------------------------------------------------------

             Standard Nuclear Orientation (Angstroms)
    I     Atom           X                Y                Z
 ----------------------------------------------------------------
    1      O       5.3438904259     6.6060487800     2.3635867335
    2      C       5.5964823871     7.5731442950     3.4634692572
    3      H       4.7936796621     7.7679792406     4.1863787458
    4      H       5.8126821345     8.5617256491     3.0396313455
    5      H       6.5121523429     7.2984987029     4.0019182621
    6      O       3.3525575578     7.5809769987     1.7389545402
    7      C       4.1825994970     6.7140577542     1.5841469090
    8      C       3.9905653833     5.4683843435     0.6635326287
    9      H       2.9206282234     5.3570867510     0.4505670920
   10      H       4.2134668551     4.6336965438     1.3394972809
   11      C       4.7661576833     5.6394202860    -0.7274854483
   12      H       4.4023852811     6.4106060004    -1.4189377122
   13      H       5.7458834221     6.0186121540    -0.4096411406
   14      C       4.8899860864     4.3278188362    -1.5635339897
   15      H       3.8862532256     3.9196902205    -1.7413664310
   16      H       5.3144119057     4.4156712890    -2.5708599897
   17      C       5.8177536588     3.1863602848    -0.9679278219
   18      C       7.1808834325     3.6629098189    -0.6088181429
   19      C       7.5001482048     4.0174560096     0.7386750866
   20      H       6.7237239216     4.0718723933     1.4965102861
   21      C       8.7683855045     4.5803039998     1.0849008681
   22      H       8.9757636211     4.9048148368     2.1000565376
   23      C       9.7989120273     4.6786437081     0.0961747243
   24      H      10.7325468391     5.1613588907     0.3703664286
   25      C       9.4926611536     4.1653557751    -1.2343273990
   26      H      10.3521027218     4.2157336476    -1.8962392215
   27      C       8.2347221072     3.6630854193    -1.5421696399
   28      H       8.0167283841     3.2140880624    -2.5065373655
   29      C       7.5698905764    -2.0497213238    -1.4586462840
   30      C       7.5572764912    -1.7286571487     0.9369272758
   31      C       3.8913618921    -4.3380694357     1.7305888340
   32      C       3.1082510594    -0.7840469578    -3.4025645488
   33      C       1.6422426189    -1.7603290721     2.0286745811
   34      C       7.8011238404    -1.2017632711    -0.3730140634
   35      C       1.0271859005    -1.4824674619    -1.4953148001
   36      C       5.7431447258    -4.5977175585     0.3127347551
   37      C       4.7734040330     0.9900045632     2.0058471197
   38      C       2.5143035933     0.2339350350    -2.6284650269
   39      C       5.1595797869     2.0694801493    -0.0499823349
   40      C       3.4939103427     1.2814075936     1.5091770378
   41      C       1.6926287882     0.7210105306    -0.5329331192
   42      C       0.8466819141    -2.0171115796    -0.2043616723
   43      C       6.7871030443     0.3845603844     0.8567554619
   44      C       1.9087815501    -3.8725975144     0.8894972350
   45      C       5.6386252157     1.7530798549    -1.3680355701
   46      C       4.7339657225     1.3098525392    -2.4213236351
   47      C       2.1216033836    -3.0874464984     2.0592620615
   48      C       3.8189358777    -4.1087474369    -2.6610311283
   49      C       3.4563829878    -5.0073748885    -0.5661387432
   50      C       4.8446012075    -4.9515262380    -0.7713413327
   51      C       6.8989226655    -3.8418345326     0.0025731757
   52      C       5.3282834677     0.2087528804    -3.1635277575
   53      C       5.7913424778     1.3664683154     1.0769002073
   54      C       7.0766585873    -3.0445626594     1.1056966966
   55      C       1.5022669517    -0.1210170791    -1.6433717152
   56      C       6.9525199480    -0.7259546258     1.6752538798
   57      C       2.3496843263     0.4385658759     1.7687645232
   58      C       4.8315605013    -2.1221376549    -3.7272534062
   59      C       5.2763998685    -4.3396261274     1.5482666451
   60      C       3.6976307612     1.7928167327     0.2478572197
   61      C       6.1918422593    -3.6242342000    -2.2999768008
   62      C       1.4718015615     0.1769554195     0.7479468018
   63      C       4.8782575679    -0.1805826453     2.7903395183
   64      C       1.6920224417    -3.6722274105    -1.5456013893
   65      C       1.5982822657    -2.4621906238    -2.2972726966
   66      C       3.7840371881    -1.0062627137     3.0729685773
   67      C       4.4935380240    -0.7879467072    -3.6253891830
   68      C       3.3118613275     1.2184180232    -2.0932903763
   69      C       3.7032320320    -2.9144794997    -3.4065428414
   70      C       6.7581879518     0.6549623266    -1.5455381728
   71      C       5.5644959935    -2.3343321308     2.9046591437
   72      C       2.8376727934     1.4609363302    -0.7824387048
   73      C       2.4786870434    -0.6960303366     2.5275963449
   74      C       6.0656986841    -2.5154668757    -3.0965537393
   75      C       3.3410611136    -3.3775902941     2.6376334150
   76      C       7.1414352320    -3.3640588172    -1.3099419750
   77      C       3.0082639469    -4.7123217966     0.7391922486
   78      C       6.0136772125    -1.0082810935     2.7015560203
   79      C       4.1922687967    -2.3367843338     3.1774347055
   80      C       7.3768440204     0.1563711847    -0.3997242516
   81      C       6.5738336577    -0.1854003897    -2.6166558131
   82      C       2.8072371108    -4.4879486105    -1.7304801759
   83      C       6.1033070419    -3.3483722717     2.0843163819
   84      C       0.9930028851    -1.1917667109     0.9329672253
   85      C       2.6232390842    -2.0933950495    -3.2354359791
   86      C       1.2904103524    -3.3360468897    -0.2418946021
   87      C       6.9311442486    -1.5188339150    -2.5965020253
   88      C       5.0215170163    -4.4240530457    -2.0898753019
   89      O      -5.4070628180     1.4907056078     5.6064201518
   90      C      -6.4834241910     2.3946520362     5.2134315396
   91      H      -6.9555452423     1.9271653927     4.3401211990
   92      H      -6.1068601367     3.3859489412     4.9347346450
   93      H      -7.1320366150     2.5535914098     6.0844925013
   94      O      -6.7754171031     0.1029585315     6.8116527446
   95      C      -5.6713185034     0.4257010674     6.3934978238
   96      C      -4.4424020455    -0.4123744124     6.7643061698
   97      H      -4.7904218578    -1.3485031532     7.2175072189
   98      H      -4.0244799377     0.2665317535     7.5178740365
   99      C      -3.5234266272    -0.7267800014     5.5157268546
  100      H      -3.1212053909     0.2240066166     5.1447714880
  101      H      -2.6502308572    -1.3020201289     5.8460584196
  102      C      -4.2788717408    -1.4096291390     4.4362576631
  103      H      -4.4123178575    -2.4095892507     4.8672621979
  104      H      -5.2656309392    -0.9350533805     4.3740231562
  105      C      -3.6202562825    -1.5845425921     3.0881864624
  106      C      -2.2951644732    -2.3687666303     3.2746545686
  107      C      -2.2047392908    -3.6667629612     2.8548476946
  108      H      -2.9392790808    -4.1686661791     2.2316531369
  109      C      -1.0847642848    -4.4374651747     3.2338781472
  110      H      -1.1616588565    -5.5171713654     3.1417273650
  111      C      -0.0176744362    -3.9087628108     3.9420801420
  112      H       0.7921227345    -4.4641347538     4.4051854726
  113      C      -0.0882122103    -2.5929002395     4.3062876597
  114      H       0.7063528810    -2.1433764827     4.8939948214
  115      C      -1.1521722092    -1.7968842025     3.8479443498
  116      H      -1.1883546910    -0.7328358979     4.0621009128
  117      C      -1.7662816502     1.6533320775    -1.0306490146
  118      C      -1.9921563345    -0.5780136447    -1.9980490844
  119      C      -5.5589006654     0.0836278469    -4.6422929110
  120      C      -6.3024502944     2.7838767772     1.0528453370
  121      C      -7.7337700947    -1.4933710904    -2.3626902445
  122      C      -1.7616179627     0.2276615615    -0.9070616778
  123      C      -8.3285878093     1.4989159582    -0.4140968788
  124      C      -3.6752916289     1.4852615880    -4.1087970312
  125      C      -4.6178391926    -2.9077000372    -0.2424310048
  126      C      -6.8805378141     1.5966541919     1.5660191403
  127      C      -4.2359742555    -1.5833355964     1.7635223839
  128      C      -5.8431752910    -2.6144795586     0.3718744541
  129      C      -7.6521723282    -0.4488646921     0.9409122116
  130      C      -8.5089937901     0.6029027362    -1.4933035263
  131      C      -2.5992073205    -1.6689808172    -0.1200624686
  132      C      -7.4952673318     0.5963935509    -3.6373553677
  133      C      -3.6807955033    -0.3310926088     2.2309547889
  134      C      -4.6668354468     0.7767722608     2.2635379201
  135      C      -7.2504401318    -0.7753082401    -3.5298572805
  136      C      -5.5555254394     3.7458233050    -2.1754516039
  137      C      -5.9271336937     2.3881081884    -3.9496733959
  138      C      -4.5718811614     2.5150648054    -3.8074109937
  139      C      -2.4985265613     1.2969887357    -3.3850102471
  140      C      -4.0840108981     1.9584959686     1.6888879189
  141      C      -3.6359763304    -2.3009143906     0.5739576888
  142      C      -2.3709666261    -0.0620545437    -3.2523496740
  143      C      -7.8613983270     0.9655992731     0.8078025856
  144      C      -2.4571562194    -1.7832761264    -1.4630636104
  145      C      -6.9506934311    -2.2919482980    -0.4152253841
  146      C      -4.5013494232     3.6525641284     0.0071570768
  147      C      -4.2079670063     0.2303706988    -4.5105591480
  148      C      -5.6604935085    -1.8034531274     1.5203780433
  149      C      -3.1499302335     3.2016550459    -1.9564776074
  150      C      -7.8903058504    -1.2792069484    -0.1295849453
  151      C      -4.5329095940    -2.9491403972    -1.5886400004
  152      C      -7.6920320735     2.5819749764    -2.2582614481
  153      C      -7.8201948252     2.7521323715    -0.8602372101
  154      C      -5.6596451153    -2.7143189392    -2.4170034157
  155      C      -4.9013202671     2.8911703694     1.0473017146
  156      C      -6.0058615567     0.5649892568     2.0916919534
  157      C      -5.6628321057     3.8484542891    -0.7898855966
  158      C      -2.5889152103     0.2646185061     1.3561206941
  159      C      -3.8293317713    -1.9485236695    -3.5206300137
  160      C      -6.5488211275    -0.6850059024     1.7638505184
  161      C      -6.9495944728    -2.4953855863    -1.8034393669
  162      C      -3.2400825849     3.3584533813    -0.5551754146
  163      C      -6.0528667850    -1.1673172084    -4.1879241828
  164      C      -2.1985829554     2.1929931489    -2.2627251119
  165      C      -6.4116835323     1.1508697768    -4.3445563746
  166      C      -3.4440180811    -2.4650569079    -2.2171727748
  167      C      -5.1936510111    -2.0968482182    -3.5911483827
  168      C      -2.0873776502    -0.4144252271     0.2612217561
  169      C      -2.8482770230     1.6841559122     1.1374268384
  170      C      -6.5792659378     3.1102379984    -2.9186088618
  171      C      -3.3375692960    -0.7119357020    -3.9454180390
  172      C      -8.3261099918    -0.7537842213    -1.3305644240
  173      C      -6.7664401782     3.3469028578    -0.1039917389
  174      C      -8.1815963171     1.3262021111    -2.6546707848
  175      C      -2.4133203081     2.3789850266    -0.0034110809
  176      C      -4.3381356629     3.3073706939    -2.7205437428
 ----------------------------------------------------------------

    9   -5804.2075016357      9.02E-06 Convergence criterion met
 Total energy in the final basis set = -5804.2075016357

                    Orbital Energies (a.u.)
 --------------------------------------------------------------

 Alpha MOs
 -- Occupied --
-19.194 -19.194 -19.142 -19.127 -10.323 -10.313 -10.251 -10.246
-10.242 -10.238 -10.238 -10.237 -10.235 -10.235 -10.232 -10.232
-10.231 -10.227 -10.227 -10.225 -10.225 -10.225 -10.224 -10.223
-10.222 -10.222 -10.222 -10.222 -10.222 -10.222 -10.220 -10.220
-10.220 -10.220 -10.219 -10.219 -10.219 -10.219 -10.219 -10.219
-10.219 -10.218 -10.218 -10.217 -10.217 -10.217 -10.217 -10.217
-10.217 -10.217 -10.217 -10.217 -10.217 -10.217 -10.216 -10.216
-10.216 -10.216 -10.216 -10.216 -10.216 -10.216 -10.216 -10.216
-10.216 -10.215 -10.215 -10.215 -10.215 -10.215 -10.215 -10.215
-10.215 -10.215 -10.215 -10.215 -10.214 -10.214 -10.214 -10.214
-10.214 -10.214 -10.214 -10.214 -10.214 -10.214 -10.213 -10.213
-10.213 -10.213 -10.213 -10.213 -10.213 -10.213 -10.213 -10.213
-10.213 -10.213 -10.212 -10.212 -10.212 -10.212 -10.212 -10.212
-10.212 -10.212 -10.212 -10.212 -10.212 -10.212 -10.211 -10.211
-10.211 -10.211 -10.211 -10.211 -10.211 -10.211 -10.210 -10.210
-10.210 -10.210 -10.210 -10.209 -10.209 -10.209 -10.208 -10.207
-10.206 -10.206 -10.206 -10.206 -10.205 -10.205 -10.205 -10.205
-10.204 -10.203 -10.203 -10.202 -10.202 -10.198 -10.198 -10.198
-10.197 -10.195 -10.194 -10.192  -1.091  -1.081  -1.008  -1.004
 -0.987  -0.983  -0.972  -0.967  -0.966  -0.963  -0.962  -0.962
 -0.943  -0.934  -0.930  -0.928  -0.927  -0.925  -0.924  -0.924
 -0.922  -0.922  -0.901  -0.898  -0.892  -0.892  -0.886  -0.886
 -0.877  -0.876  -0.863  -0.847  -0.842  -0.841  -0.840  -0.839
 -0.837  -0.835  -0.824  -0.821  -0.810  -0.799  -0.799  -0.798
 -0.797  -0.796  -0.795  -0.794  -0.792  -0.792  -0.786  -0.780
 -0.773  -0.772  -0.772  -0.770  -0.769  -0.766  -0.765  -0.760
 -0.752  -0.745  -0.744  -0.738  -0.738  -0.734  -0.718  -0.718
 -0.715  -0.715  -0.714  -0.712  -0.711  -0.711  -0.710  -0.710
 -0.707  -0.706  -0.706  -0.704  -0.704  -0.702  -0.677  -0.676
 -0.661  -0.660  -0.659  -0.655  -0.650  -0.650  -0.636  -0.633
 -0.629  -0.629  -0.627  -0.627  -0.622  -0.620  -0.617  -0.617
 -0.617  -0.616  -0.613  -0.612  -0.610  -0.609  -0.609  -0.608
 -0.607  -0.606  -0.604  -0.603  -0.568  -0.566  -0.564  -0.563
 -0.562  -0.561  -0.560  -0.560  -0.559  -0.558  -0.554  -0.553
 -0.538  -0.537  -0.536  -0.534  -0.529  -0.528  -0.527  -0.525
 -0.524  -0.522  -0.521  -0.520  -0.517  -0.515  -0.513  -0.511
 -0.508  -0.506  -0.501  -0.494  -0.492  -0.491  -0.488  -0.488
 -0.485  -0.484  -0.482  -0.481  -0.478  -0.476  -0.476  -0.475
 -0.472  -0.471  -0.470  -0.469  -0.468  -0.467  -0.466  -0.466
 -0.465  -0.464  -0.464  -0.463  -0.462  -0.461  -0.459  -0.458
 -0.457  -0.456  -0.455  -0.454  -0.453  -0.446  -0.445  -0.442
 -0.441  -0.440  -0.440  -0.439  -0.438  -0.438  -0.436  -0.434
 -0.432  -0.431  -0.431  -0.430  -0.427  -0.426  -0.426  -0.424
 -0.424  -0.423  -0.422  -0.421  -0.421  -0.420  -0.420  -0.418
 -0.417  -0.417  -0.417  -0.416  -0.416  -0.415  -0.414  -0.414
 -0.413  -0.412  -0.409  -0.406  -0.403  -0.402  -0.401  -0.400
 -0.397  -0.395  -0.391  -0.389  -0.389  -0.388  -0.387  -0.385
 -0.383  -0.376  -0.375  -0.374  -0.372  -0.372  -0.368  -0.367
 -0.366  -0.364  -0.364  -0.363  -0.362  -0.361  -0.360  -0.359
 -0.358  -0.358  -0.355  -0.355  -0.354  -0.353  -0.352  -0.351
 -0.351  -0.350  -0.350  -0.347  -0.347  -0.346  -0.345  -0.345
 -0.344  -0.343  -0.341  -0.340  -0.339  -0.339  -0.336  -0.335
 -0.335  -0.333  -0.330  -0.329  -0.327  -0.327  -0.326  -0.325
 -0.306  -0.305  -0.300  -0.298  -0.293  -0.290  -0.276  -0.272
 -0.271  -0.270  -0.269  -0.269  -0.267  -0.265  -0.264  -0.262
 -0.260  -0.260  -0.259  -0.259  -0.257  -0.255  -0.255  -0.253
 -0.249  -0.246  -0.243  -0.241  -0.226  -0.225  -0.213  -0.212
 -0.210  -0.208  -0.206  -0.202  -0.199  -0.198

          Ground-State Mulliken Net Atomic Charges

     Atom                 Charge (a.u.)
  ----------------------------------------
      1 O                    -0.483175
      2 C                    -0.090395
      3 H                     0.135642
      4 H                     0.128140
      5 H                     0.125225
      6 O                    -0.444968
      7 C                     0.565160
      8 C                    -0.235358
      9 H                     0.135321
     10 H                     0.134368
     11 C                    -0.202059
     12 H                     0.122038
     13 H                     0.131714
     14 C                    -0.182212
     15 H                     0.110717
     16 H                     0.113441
     17 C                    -0.007417
     18 C                     0.088673
     19 C                    -0.107339
     20 H                     0.101929
     21 C                    -0.093465
     22 H                     0.090537
     23 C                    -0.090459
     24 H                     0.095113
     25 C                    -0.096430
     26 H                     0.093533
     27 C                    -0.102554
     28 H                     0.088406
     29 C                     0.007450
     30 C                    -0.023475
     31 C                     0.008409
     32 C                    -0.021544
     33 C                     0.006723
     34 C                    -0.017613
     35 C                    -0.001544
     36 C                     0.005522
     37 C                    -0.025007
     38 C                    -0.035814
     39 C                    -0.078391
     40 C                     0.005448
     41 C                    -0.002849
     42 C                    -0.000059
     43 C                     0.032421
     44 C                    -0.010572
     45 C                    -0.056726
     46 C                     0.010714
     47 C                     0.018770
     48 C                     0.023528
     49 C                    -0.010180
     50 C                    -0.010277
     51 C                    -0.007821
     52 C                    -0.016225
     53 C                     0.024196
     54 C                     0.016383
     55 C                    -0.000553
     56 C                     0.026056
     57 C                     0.012359
     58 C                    -0.038604
     59 C                     0.002955
     60 C                     0.034320
     61 C                     0.015948
     62 C                    -0.006930
     63 C                     0.008300
     64 C                    -0.013346
     65 C                    -0.015185
     66 C                     0.005019
     67 C                     0.049242
     68 C                     0.008840
     69 C                    -0.001985
     70 C                     0.024545
     71 C                    -0.009704
     72 C                    -0.007645
     73 C                    -0.027994
     74 C                    -0.006154
     75 C                    -0.014287
     76 C                    -0.009875
     77 C                     0.005139
     78 C                    -0.033386
     79 C                    -0.007826
     80 C                    -0.019447
     81 C                     0.029395
     82 C                    -0.012470
     83 C                    -0.000711
     84 C                    -0.007864
     85 C                     0.024667
     86 C                     0.029848
     87 C                    -0.001851
     88 C                    -0.008823
     89 O                    -0.465650
     90 C                    -0.090766
     91 H                     0.134457
     92 H                     0.126891
     93 H                     0.137105
     94 O                    -0.477648
     95 C                     0.572879
     96 C                    -0.240592
     97 H                     0.133684
     98 H                     0.129008
     99 C                    -0.193984
    100 H                     0.110521
    101 H                     0.112737
    102 C                    -0.170310
    103 H                     0.107718
    104 H                     0.116557
    105 C                     0.021074
    106 C                     0.085148
    107 C                    -0.109585
    108 H                     0.097540
    109 C                    -0.104523
    110 H                     0.089684
    111 C                    -0.072714
    112 H                     0.095382
    113 C                    -0.095216
    114 H                     0.093527
    115 C                    -0.104164
    116 H                     0.090953
    117 C                    -0.025970
    118 C                     0.022431
    119 C                    -0.009732
    120 C                    -0.013441
    121 C                    -0.027723
    122 C                     0.018799
    123 C                    -0.006809
    124 C                    -0.017272
    125 C                    -0.002772
    126 C                    -0.040338
    127 C                    -0.080157
    128 C                    -0.005111
    129 C                    -0.024978
    130 C                     0.020445
    131 C                     0.021924
    132 C                     0.010986
    133 C                    -0.072557
    134 C                     0.051614
    135 C                     0.016379
    136 C                    -0.013905
    137 C                    -0.013771
    138 C                     0.028650
    139 C                    -0.010853
    140 C                     0.003709
    141 C                     0.010110
    142 C                     0.010761
    143 C                     0.009311
    144 C                    -0.016118
    145 C                     0.019922
    146 C                    -0.011151
    147 C                     0.012444
    148 C                     0.025565
    149 C                     0.006863
    150 C                     0.006034
    151 C                     0.048064
    152 C                     0.016795
    153 C                    -0.020497
    154 C                    -0.002127
    155 C                     0.026476
    156 C                    -0.004801
    157 C                    -0.014204
    158 C                    -0.009166
    159 C                    -0.032549
    160 C                    -0.001978
    161 C                    -0.039688
    162 C                    -0.016932
    163 C                    -0.024667
    164 C                    -0.029915
    165 C                     0.002305
    166 C                    -0.044728
    167 C                     0.036690
    168 C                     0.020245
    169 C                     0.001728
    170 C                    -0.007496
    171 C                     0.016564
    172 C                     0.018583
    173 C                     0.023124
    174 C                    -0.021556
    175 C                     0.012506
    176 C                     0.016628
  ----------------------------------------
  Sum of atomic charges =     0.000000

                    Cartesian Multipole Moments
 -----------------------------------------------------------------
    Charge (ESU x 10^10)
                 0.0000
    Dipole Moment (Debye)
         X       5.1351      Y       1.3383      Z       0.8330
       Tot       5.3717
    Quadrupole Moments (Debye-Ang)
        XX    -808.2471     XY      20.2516     YY    -800.5842
        XZ      17.4419     YZ       5.0107     ZZ    -803.7542

 Total job time:  886.06s(wall), 7521.00s(cpu)
        *  Thank you very much for using Q-Chem.  Have a nice day.  *
