 Q-Chem 4.4, Q-Chem, Inc., Pleasanton, CA (2016)
 Q-Chem 4.4.2 for Intel X86 Linux

User input:
--------------------------------------------------------------
$comment
SP
$end

$rem
MEM_STATIC 5000
MEM_TOTAL 20000
JOBTYPE SP
EXCHANGE B3LYP
BASIS 6-31g(d,p)
$end

$molecule
0 1
O          -9.914000     15.272000     -0.952000
C          -9.008000     15.634000     -2.005000
H          -9.231000     16.642000     -2.376000
H          -9.168000     15.048000     -2.919000
H          -8.012000     15.438000     -1.589000
O         -11.848000     15.545000     -2.169000
C         -11.299000     15.192000     -1.148000
C         -12.087000     14.798000      0.066000
H         -11.826000     13.773000      0.360000
H         -13.160000     14.775000     -0.158000
C         -11.927000     15.784000      1.273000
H         -12.347000     15.412000      2.216000
H         -10.886000     16.101000      1.409000
C         -12.817000     17.004000      1.064000
H         -12.465000     17.624000      0.231000
H         -13.828000     16.728000      0.739000
C         -12.836000     17.955000      2.244000
C         -13.709000     17.417000      3.374000
C         -13.163000     16.465000      4.272000
H         -12.109000     16.204000      4.290000
C         -13.930000     15.884000      5.293000
H         -13.542000     15.215000      6.056000
C         -15.302000     16.191000      5.348000
H         -16.039000     15.781000      6.032000
C         -15.834000     17.221000      4.535000
H         -16.869000     17.532000      4.634000
C         -15.059000     17.819000      3.516000
H         -15.424000     18.568000      2.819000
C         -13.039000     23.187000      3.902000
C         -11.709000     22.248000      5.609000
C          -7.754000     24.212000      4.178000
C         -11.364000     22.285000     -0.793000
C          -6.687000     21.329000      2.260000
C         -12.789000     22.149000      4.797000
C          -8.607000     22.089000     -0.637000
C         -10.026000     25.101000      4.410000
C          -9.606000     19.222000      3.931000
C         -10.721000     21.025000     -0.731000
C         -11.525000     18.729000      2.624000
C          -9.142000     18.829000      2.684000
C          -9.025000     19.833000      0.115000
C          -7.498000     22.236000      0.200000
C         -11.753000     20.137000      4.779000
C          -7.008000     23.768000      2.027000
C         -12.655000     19.451000      2.017000
C         -12.430000     20.168000      0.780000
C          -6.602000     22.716000      2.817000
C         -10.591000     25.212000      0.900000
C          -8.765000     25.389000      2.300000
C          -9.899000     25.572000      3.080000
C         -11.197000     24.526000      4.883000
C         -13.000000     21.471000      0.807000
C         -11.035000     19.187000      3.949000
C         -10.912000     23.429000      5.685000
C          -9.338000     20.916000     -0.716000
C         -11.051000     20.971000      5.597000
C          -7.929000     19.389000      2.223000
C         -12.447000     23.801000      0.500000
C          -8.967000     24.355000      4.892000
C         -10.235000     18.660000      1.825000
C         -12.196000     24.904000      2.710000
C          -7.879000     19.937000      0.905000
C          -8.876000     20.048000      4.821000
C          -8.568000     24.200000      0.184000
C          -9.275000     23.333000     -0.704000
C          -7.697000     20.550000      4.323000
C         -12.483000     22.513000      0.007000
C         -11.209000     19.998000      0.065000
C         -11.305000     24.385000      0.053000
C         -13.264000     20.562000      2.871000
C          -8.880000     22.070000      5.688000
C         -10.179000     19.204000      0.517000
C          -7.192000     20.266000      3.065000
C         -12.975000     24.090000      1.814000
C          -7.177000     22.927000      4.091000
C         -12.258000     24.339000      3.942000
C          -7.712000     24.662000      2.826000
C          -9.656000     20.891000      5.597000
C          -7.684000     21.860000      4.880000
C         -12.897000     20.782000      4.250000
C         -13.608000     21.734000      2.068000
C          -9.171000     25.192000      0.927000
C          -9.515000     23.318000      5.623000
C          -7.121000     21.146000      0.978000
C         -10.626000     23.462000     -0.735000
C          -7.454000     23.544000      0.704000
C         -13.546000     23.040000      2.588000
C         -11.001000     25.466000      2.191000
O          -4.712000     28.426000      0.464000
C          -4.214000     29.122000      1.621000
H          -4.902000     29.882000      2.012000
H          -3.337000     29.664000      1.247000
H          -3.972000     28.373000      2.385000
O          -6.331000     27.425000      1.706000
C          -5.784000     27.596000      0.646000
C          -6.178000     26.863000     -0.590000
H          -7.000000     27.515000     -0.912000
H          -6.696000     25.968000     -0.224000
C          -5.078000     26.657000     -1.649000
H          -4.863000     27.593000     -2.178000
H          -4.206000     26.257000     -1.116000
C          -5.594000     25.687000     -2.744000
H          -6.021000     24.834000     -2.202000
H          -6.374000     26.177000     -3.341000
C          -4.510000     25.156000     -3.661000
C          -3.811000     26.256000     -4.485000
C          -2.769000     27.012000     -3.830000
H          -2.495000     26.788000     -2.804000
C          -2.097000     27.990000     -4.578000
H          -1.327000     28.608000     -4.126000
C          -2.375000     28.198000     -5.933000
H          -1.837000     28.959000     -6.490000
C          -3.346000     27.495000     -6.549000
H          -3.510000     27.597000     -7.618000
C          -4.099000     26.541000     -5.836000
H          -4.951000     26.055000     -6.302000
C          -3.397000     21.796000     -7.701000
C          -1.215000     22.145000     -6.736000
C          -0.759000     18.071000     -4.773000
C          -6.702000     20.111000     -4.248000
C          -1.746000     19.037000     -1.550000
C          -2.469000     22.615000     -7.023000
C          -5.327000     18.543000     -2.211000
C          -1.561000     18.699000     -7.033000
C          -1.605000     22.907000     -2.753000
C          -6.358000     20.653000     -3.022000
C          -3.686000     23.938000     -3.216000
C          -2.529000     22.424000     -1.740000
C          -4.848000     20.831000     -1.301000
C          -4.048000     18.082000     -1.838000
C          -1.918000     23.571000     -5.040000
C          -2.181000     17.289000     -3.218000
C          -4.731000     23.808000     -4.312000
C          -5.837000     22.834000     -4.116000
C          -1.290000     18.159000     -2.587000
C          -4.867000     17.901000     -6.168000
C          -2.834000     17.131000     -5.666000
C          -2.678000     17.864000     -6.851000
C          -1.724000     19.962000     -7.547000
C          -6.194000     22.222000     -5.349000
C          -2.282000     23.699000     -3.675000
C          -0.772000     20.871000     -7.032000
C          -5.696000     19.937000     -2.009000
C          -0.858000     22.714000     -5.498000
C          -2.447000     21.166000     -1.248000
C          -6.078000     19.942000     -6.357000
C          -0.604000     18.767000     -5.974000
C          -3.842000     22.954000     -2.079000
C          -4.124000     19.614000     -7.706000
C          -3.540000     20.353000     -0.976000
C          -0.559000     22.089000     -3.123000
C          -4.507000     17.250000     -3.867000
C          -5.602000     18.027000     -3.490000
C          -0.426000     20.803000     -2.569000
C          -6.605000     20.849000     -5.414000
C          -5.870000     22.020000     -2.970000
C          -5.929000     18.681000     -5.783000
C          -4.279000     23.453000     -5.727000
C           0.221000     20.654000     -4.787000
C          -4.969000     22.109000     -1.910000
C          -1.330000     20.366000     -1.595000
C          -5.115000     20.402000     -7.240000
C          -0.425000     18.634000     -3.551000
C          -2.992000     20.470000     -7.976000
C          -1.871000     17.210000     -4.601000
C          -0.172000     21.962000     -4.486000
C           0.065000     19.968000     -3.573000
C          -2.928000     23.462000     -6.024000
C          -5.189000     22.625000     -6.303000
C          -4.149000     17.172000     -5.226000
C          -0.072000     20.041000     -6.064000
C          -3.157000     19.059000     -1.296000
C          -6.317000     18.741000     -4.488000
C          -3.548000     17.222000     -2.862000
C          -4.747000     21.748000     -7.272000
C          -3.937000     18.336000     -7.155000
$end

--------------------------------------------------------------

             Standard Nuclear Orientation (Angstroms)
    I     Atom           X                Y                Z
 ----------------------------------------------------------------
    1      O       2.5876286557    -6.2040098720     0.3778808725
    2      C       1.1827796459    -6.0213480597     0.6096629298
    3      H       1.0097168854    -5.1667163270     1.2753113974
    4      H       0.7457478614    -6.8297416254     1.2095754754
    5      H       0.7398395776    -6.0011437666    -0.3937731082
    6      O       3.1849830532    -6.4485734947     2.5868015045
    7      C       3.4901184521    -6.4764397178     1.4143822698
    8      C       4.9176659450    -6.6373838200     0.9828951301
    9      H       5.0128560849    -7.5235037857     0.3418707596
   10      H       5.5652841144    -6.8288551761     1.8465868728
   11      C       5.5135883782    -5.3710235896     0.2787266697
   12      H       6.4861645818    -5.5391952041    -0.2006967718
   13      H       4.8044773811    -4.9217609344    -0.4269578635
   14      C       5.9231947771    -4.3426375559     1.3269755732
   15      H       5.0517805086    -3.9155452642     1.8372915018
   16      H       6.4805393942    -4.7962412135     2.1561514892
   17      C       6.6368770132    -3.1356445687     0.7516603599
   18      C       8.0844776813    -3.4651175809     0.3989950232
   19      C       8.3641376568    -4.1005950325    -0.8374445050
   20      H       7.6191303887    -4.2357874057    -1.6159354765
   21      C       9.6645504800    -4.4873438954    -1.1947158393
   22      H       9.9457371506    -4.9006502919    -2.1592809635
   23      C      10.6895151199    -4.3233893877    -0.2448608997
   24      H      11.7278591388    -4.6261148775    -0.3414216385
   25      C      10.4490230493    -3.5901975372     0.9423569718
   26      H      11.2533345436    -3.3757629825     1.6386671340
   27      C       9.1424787772    -3.1857367587     1.2972422259
   28      H       8.8809631164    -2.6765613763     2.2204892076
   29      C       7.4177452230     2.2924146337     1.0523514549
   30      C       7.6542287146     1.9536278486    -1.2700974837
   31      C       3.5946222393     3.9075882604    -2.3875570914
   32      C       3.1328469879     0.4340115821     3.0140444005
   33      C       1.7882152847     0.7679758374    -2.4804535255
   34      C       7.9224107787     1.5420444575    -0.0074722453
   35      C       1.2125748384     0.5760629652     1.0250302537
   36      C       5.3513286795     4.5805838071    -0.8168284461
   37      C       5.2532789558    -1.1542765046    -2.2556632027
   38      C       2.8119172198    -0.6955934228     2.2229125424
   39      C       5.8489087935    -2.1571260093    -0.1884484177
   40      C       4.1149263489    -1.7935652025    -1.7863900379
   41      C       2.2269641349    -1.4532827096     0.1988737994
   42      C       0.9352172068     1.0431473492    -0.2622008532
   43      C       7.3251957579    -0.2898501826    -1.1945949208
   44      C       1.6501378064     3.0242934806    -1.4824473619
   45      C       6.2163287766    -1.7325833500     1.1722128503
   46      C       5.1612082764    -1.3259993873     2.0757023142
   47      C       1.9706241438     2.2508579910    -2.5754826088
   48      C       3.4227356249     3.7549023821     2.0555268617
   49      C       2.9864949762     4.4667846926    -0.0958733039
   50      C       4.3291259920     4.7168198346     0.1544652328
   51      C       6.5855422317     4.0205742223    -0.5190010254
   52      C       5.4834397669    -0.1251348846     2.7667372719
   53      C       6.3267677276    -1.3348321097    -1.3290502683
   54      C       7.0077041904     3.1939827371    -1.5516499480
   55      C       1.8074975674    -0.6503460082     1.2669372115
   56      C       7.2744578806     0.7908447849    -2.0234544113
   57      C       2.8589539411    -1.2405659508    -2.1243473406
   58      C       4.6586579706     2.1003975300     3.2091154581
   59      C       4.9554374302     4.0943355208    -2.0485563880
   60      C       4.3677768733    -2.2856065570    -0.4999014380
   61      C       5.8444068300     3.7384243688     1.7687760128
   62      C       1.8948013061    -1.0353658805    -1.0907949097
   63      C       5.2304661201    -0.0604167299    -3.1557889539
   64      C       1.5393185658     2.8167737532     0.9591766179
   65      C       1.5501385800     1.6863726050     1.8321933253
   66      C       3.9802874169     0.4239404752    -3.4599275868
   67      C       4.4736134167     0.7339335382     3.2518199322
   68      C       3.7962453213    -1.5381433989     1.7252211457
   69      C       3.4624189907     2.6724656446     2.9145320653
   70      C       7.1354420757    -0.5150816794     1.2584591579
   71      C       5.6277362711     2.1014893004    -3.2481347349
   72      C       3.4062005844    -2.0811358642     0.5216164407
   73      C       2.7943834012    -0.1087971674    -2.9823636962
   74      C       5.8984291252     2.6494370696     2.7086915695
   75      C       3.2256291507     2.7098770532    -3.0364445738
   76      C       6.7617252443     3.4942032489     0.7993555821
   77      C       2.6226239766     4.0091340426    -1.3497344517
   78      C       6.2485397766     0.8615543674    -2.9694550449
   79      C       4.2229874386     1.8250628899    -3.5267907187
   80      C       7.7618845523     0.0784687365     0.1008764493
   81      C       6.7495245345     0.3772222141     2.3500590906
   82      C       2.3908502720     3.8927401040     1.0892233997
   83      C       5.9418294537     3.2196421279    -2.4632565744
   84      C       1.2726298554     0.2270710496    -1.3372288426
   85      C       2.5183960098     1.6597916447     2.7832842790
   86      C       1.1198511710     2.4324493614    -0.3128587065
   87      C       6.9316613833     1.7704830716     2.2756927586
   88      C       4.5629674748     4.2770220115     1.4840730831
   89      O      -1.5124301181     7.3634989372    -0.7202078142
   90      C      -1.1738865752     8.3740129888    -1.6873265355
   91      H      -0.4727768113     9.1300901412    -1.3123366174
   92      H      -2.1214584884     8.8957305140    -1.8681228108
   93      H      -0.7766660567     7.8684704005    -2.5760917188
   94      O       0.6041316290     6.5370989600    -0.7745718497
   95      C      -0.5222159692     6.4961087575    -0.3482962448
   96      C      -0.9870346784     5.4413429082     0.5959672623
   97      H      -0.6516340636     5.9019695882     1.5339446017
   98      H      -0.2787302492     4.6157901392     0.4542899485
   99      C      -2.4881650546     5.0961931558     0.5586009390
  100      H      -3.0843003223     5.8886042478     1.0264357431
  101      H      -2.7429111905     4.9359470654    -0.4968130066
  102      C      -2.7473057564     3.8353839534     1.4242725001
  103      H      -1.9930146179     3.1036655607     1.1090978309
  104      H      -2.6114512072     4.0761113010     2.4865826646
  105      C      -4.1126351605     3.2109395475     1.2148666682
  106      C      -5.2784805563     4.1391565870     1.6108396983
  107      C      -5.6824969464     5.1402326286     0.6511821992
  108      H      -5.1820355618     5.2086865391    -0.3094324294
  109      C      -6.7667055734     5.9670263871     0.9805387444
  110      H      -7.0919483652     6.7559588226     0.3090249779
  111      C      -7.4818086482     5.8009425827     2.1711758690
  112      H      -8.3199709483     6.4521098279     2.3998222716
  113      C      -7.1092046583     4.8681102730     3.0697837639
  114      H      -7.7087249004     4.6831537742     3.9565912812
  115      C      -5.9904812034     4.0471431367     2.8249066666
  116      H      -5.6257727731     3.3731341119     3.5942931724
  117      C      -7.3228024051    -0.9106603828     2.4627485841
  118      C      -8.3278919750    -0.1036344267     0.4249423954
  119      C      -6.9900096023    -3.4896744097    -2.2960105609
  120      C      -2.4235690407    -2.0244218742     1.7975367522
  121      C      -4.2005183217    -1.8627864883    -3.6624029228
  122      C      -7.6327753850     0.1447172923     1.5785971747
  123      C      -1.9437836532    -2.8819876403    -0.9470952702
  124      C      -7.9575915038    -3.5318956088    -0.0140836045
  125      C      -5.4560729551     1.5790319260    -1.9241685987
  126      C      -1.9110960724    -1.1613303477     0.8448455780
  127      C      -4.3164105962     2.2361679726     0.0449004514
  128      C      -4.0535772605     1.2680208185    -2.1466813348
  129      C      -1.8996678467    -0.4021376111    -1.3224386176
  130      C      -2.6009701646    -3.0976439077    -2.1755452137
  131      C      -6.8070492679     1.6165438547     0.0614521752
  132      C      -4.8307650689    -4.0065373266    -2.6455084439
  133      C      -4.2604354724     1.7278316782     1.4761942708
  134      C      -3.2226899812     0.7216800202     1.8241470499
  135      C      -5.1492429269    -2.9176616773    -3.4590584880
  136      C      -4.8609921591    -4.4352415241     1.3678366738
  137      C      -5.9627536843    -4.8364758357    -0.5303534033
  138      C      -6.9335973262    -4.4088653113     0.3864136676
  139      C      -8.2933744660    -2.4609534805     0.7772865744
  140      C      -3.7238620484    -0.2119239804     2.7725626387
  141      C      -5.6402151718     2.0406225881    -0.6246676542
  142      C      -8.7377925731    -1.3569109448     0.0147955084
  143      C      -1.6621323194    -1.5287115145    -0.4893647233
  144      C      -7.8195002149     0.7898127948    -0.5379407131
  145      C      -3.6729048083     0.1878445885    -2.8675556625
  146      C      -4.2746164916    -2.6454266694     2.8240816265
  147      C      -7.9674178483    -3.1017712086    -1.3767466015
  148      C      -3.3548154158     1.5549625987    -0.9020182081
  149      C      -6.5902778471    -3.0897015936     2.3929977853
  150      C      -2.6087529332    -0.6430247465    -2.5406934055
  151      C      -6.4030926548     0.8102471253    -2.5662461787
  152      C      -3.5366795884    -4.4517788864    -0.6555082624
  153      C      -2.5449994488    -3.7259171905     0.0037172673
  154      C      -6.0163777936    -0.2760707301    -3.3717063782
  155      C      -3.3385184482    -1.5935214891     2.7413595321
  156      C      -2.3615796124     0.2194125631     0.8325738885
  157      C      -3.8886972324    -3.7010076069     2.0003017956
  158      C      -5.5051952009     1.0820871217     2.0812902847
  159      C      -7.9588423661    -0.9024854482    -2.2786510340
  160      C      -2.3311658421     0.6640736970    -0.4882869969
  161      C      -4.6588230860    -0.5503723221    -3.5683401817
  162      C      -5.6173596600    -2.3201067257     2.9234079478
  163      C      -6.4746938172    -2.6084178607    -3.2339047641
  164      C      -7.6858726832    -2.2128048553     2.0498009529
  165      C      -5.9740241260    -4.3936335135    -1.8984172377
  166      C      -7.5857197302     0.3900641938    -1.8965398964
  167      C      -6.9729427623    -1.2776343681    -3.2038500716
  168      C      -6.7043248781     1.1599800750     1.3960810430
  169      C      -5.1398262290     0.0453115645     2.8794518965
  170      C      -4.6995991320    -4.8268617117     0.0431046558
  171      C      -8.5366189328    -1.8412145726    -1.3420033575
  172      C      -2.9883865580    -1.9278784537    -2.8992380497
  173      C      -2.7445425357    -3.3623448313     1.3620333925
  174      C      -3.5752548808    -4.1272969229    -2.0059575958
  175      C      -6.0329975692    -0.9931761256     3.0445042351
  176      C      -6.2462774135    -4.1633443536     1.5558544729
 ----------------------------------------------------------------

    9   -5804.2831833353      9.36E-06 Convergence criterion met
 Total energy in the final basis set = -5804.2831833353

                    Orbital Energies (a.u.)
 --------------------------------------------------------------

 Alpha MOs
 -- Occupied --
-19.191 -19.184 -19.136 -19.133 -10.317 -10.312 -10.245 -10.243
-10.242 -10.242 -10.241 -10.239 -10.238 -10.237 -10.237 -10.236
-10.229 -10.226 -10.226 -10.226 -10.225 -10.224 -10.224 -10.223
-10.222 -10.222 -10.222 -10.222 -10.221 -10.221 -10.220 -10.220
-10.219 -10.219 -10.219 -10.219 -10.219 -10.219 -10.218 -10.218
-10.218 -10.218 -10.218 -10.217 -10.217 -10.217 -10.217 -10.217
-10.217 -10.217 -10.216 -10.216 -10.216 -10.216 -10.216 -10.216
-10.215 -10.215 -10.215 -10.215 -10.215 -10.215 -10.215 -10.215
-10.214 -10.214 -10.214 -10.214 -10.214 -10.214 -10.214 -10.214
-10.213 -10.213 -10.213 -10.213 -10.213 -10.212 -10.212 -10.212
-10.212 -10.212 -10.212 -10.212 -10.212 -10.212 -10.212 -10.212
-10.212 -10.212 -10.211 -10.211 -10.211 -10.211 -10.211 -10.211
-10.211 -10.211 -10.211 -10.210 -10.210 -10.210 -10.210 -10.209
-10.209 -10.209 -10.209 -10.209 -10.209 -10.209 -10.209 -10.208
-10.208 -10.208 -10.208 -10.208 -10.208 -10.208 -10.208 -10.207
-10.207 -10.207 -10.207 -10.207 -10.207 -10.206 -10.206 -10.205
-10.205 -10.205 -10.205 -10.204 -10.204 -10.203 -10.203 -10.203
-10.203 -10.202 -10.202 -10.201 -10.200 -10.199 -10.199 -10.199
-10.197 -10.197 -10.196 -10.194  -1.096  -1.081  -1.015  -1.009
 -0.982  -0.981  -0.964  -0.963  -0.962  -0.962  -0.959  -0.957
 -0.932  -0.932  -0.930  -0.925  -0.923  -0.923  -0.922  -0.920
 -0.920  -0.915  -0.898  -0.894  -0.890  -0.888  -0.884  -0.880
 -0.872  -0.870  -0.855  -0.850  -0.840  -0.839  -0.839  -0.838
 -0.836  -0.834  -0.821  -0.819  -0.807  -0.804  -0.798  -0.796
 -0.795  -0.794  -0.793  -0.793  -0.790  -0.789  -0.784  -0.782
 -0.771  -0.769  -0.768  -0.766  -0.765  -0.764  -0.762  -0.762
 -0.750  -0.750  -0.745  -0.740  -0.731  -0.730  -0.716  -0.713
 -0.713  -0.711  -0.711  -0.711  -0.710  -0.709  -0.708  -0.708
 -0.707  -0.705  -0.704  -0.703  -0.703  -0.701  -0.672  -0.671
 -0.658  -0.657  -0.657  -0.655  -0.648  -0.645  -0.630  -0.628
 -0.628  -0.626  -0.624  -0.624  -0.621  -0.620  -0.617  -0.616
 -0.615  -0.614  -0.613  -0.612  -0.610  -0.609  -0.609  -0.608
 -0.607  -0.605  -0.603  -0.601  -0.565  -0.564  -0.563  -0.562
 -0.561  -0.560  -0.557  -0.556  -0.555  -0.553  -0.552  -0.551
 -0.535  -0.535  -0.531  -0.529  -0.528  -0.528  -0.525  -0.523
 -0.522  -0.521  -0.520  -0.517  -0.516  -0.515  -0.514  -0.512
 -0.506  -0.504  -0.501  -0.499  -0.495  -0.491  -0.488  -0.486
 -0.484  -0.482  -0.480  -0.478  -0.478  -0.477  -0.476  -0.472
 -0.472  -0.470  -0.469  -0.467  -0.467  -0.466  -0.466  -0.465
 -0.464  -0.464  -0.463  -0.461  -0.461  -0.458  -0.458  -0.457
 -0.455  -0.453  -0.452  -0.450  -0.447  -0.447  -0.444  -0.443
 -0.442  -0.441  -0.438  -0.438  -0.437  -0.434  -0.434  -0.432
 -0.431  -0.431  -0.428  -0.427  -0.426  -0.425  -0.423  -0.423
 -0.422  -0.421  -0.420  -0.420  -0.419  -0.418  -0.418  -0.417
 -0.416  -0.415  -0.414  -0.414  -0.414  -0.413  -0.412  -0.412
 -0.411  -0.409  -0.408  -0.406  -0.403  -0.400  -0.398  -0.394
 -0.393  -0.392  -0.389  -0.389  -0.388  -0.387  -0.386  -0.385
 -0.381  -0.374  -0.373  -0.372  -0.371  -0.368  -0.367  -0.365
 -0.365  -0.364  -0.362  -0.360  -0.359  -0.358  -0.358  -0.358
 -0.357  -0.356  -0.356  -0.354  -0.354  -0.353  -0.352  -0.350
 -0.349  -0.348  -0.347  -0.346  -0.345  -0.344  -0.344  -0.343
 -0.342  -0.341  -0.340  -0.339  -0.337  -0.336  -0.334  -0.333
 -0.332  -0.330  -0.329  -0.328  -0.327  -0.325  -0.324  -0.323
 -0.311  -0.305  -0.301  -0.292  -0.287  -0.283  -0.272  -0.270
 -0.269  -0.268  -0.266  -0.266  -0.266  -0.265  -0.264  -0.262
 -0.261  -0.261  -0.260  -0.258  -0.257  -0.255  -0.254  -0.252
 -0.250  -0.248  -0.242  -0.239  -0.221  -0.220  -0.212  -0.211
 -0.209  -0.207  -0.206  -0.204  -0.197  -0.195

          Ground-State Mulliken Net Atomic Charges

     Atom                 Charge (a.u.)
  ----------------------------------------
      1 O                    -0.485744
      2 C                    -0.079640
      3 H                     0.129486
      4 H                     0.123341
      5 H                     0.129450
      6 O                    -0.455697
      7 C                     0.596816
      8 C                    -0.249126
      9 H                     0.123837
     10 H                     0.132675
     11 C                    -0.189277
     12 H                     0.108369
     13 H                     0.123220
     14 C                    -0.184168
     15 H                     0.113856
     16 H                     0.114784
     17 C                    -0.001176
     18 C                     0.093434
     19 C                    -0.118513
     20 H                     0.099860
     21 C                    -0.093783
     22 H                     0.097950
     23 C                    -0.081894
     24 H                     0.090912
     25 C                    -0.097068
     26 H                     0.092064
     27 C                    -0.097540
     28 H                     0.095059
     29 C                     0.033059
     30 C                     0.019242
     31 C                    -0.029566
     32 C                    -0.020965
     33 C                    -0.026357
     34 C                    -0.027540
     35 C                     0.019235
     36 C                     0.005454
     37 C                    -0.014719
     38 C                     0.008743
     39 C                    -0.070133
     40 C                     0.026073
     41 C                    -0.005712
     42 C                    -0.009679
     43 C                    -0.009089
     44 C                     0.021761
     45 C                    -0.088493
     46 C                     0.037654
     47 C                    -0.018032
     48 C                     0.003795
     49 C                     0.039191
     50 C                     0.001277
     51 C                    -0.026285
     52 C                     0.000569
     53 C                     0.043510
     54 C                    -0.015406
     55 C                    -0.019491
     56 C                     0.013287
     57 C                    -0.044459
     58 C                     0.008328
     59 C                     0.022101
     60 C                     0.010342
     61 C                    -0.023212
     62 C                     0.000222
     63 C                     0.006721
     64 C                    -0.015819
     65 C                    -0.001199
     66 C                     0.021893
     67 C                     0.000361
     68 C                     0.007735
     69 C                     0.025628
     70 C                     0.021796
     71 C                    -0.039654
     72 C                     0.004828
     73 C                     0.008124
     74 C                    -0.026368
     75 C                     0.011640
     76 C                     0.030696
     77 C                     0.025954
     78 C                     0.013478
     79 C                    -0.022991
     80 C                    -0.031324
     81 C                    -0.004608
     82 C                    -0.036592
     83 C                     0.022285
     84 C                     0.026348
     85 C                    -0.006081
     86 C                    -0.003509
     87 C                    -0.023111
     88 C                    -0.000791
     89 O                    -0.471735
     90 C                    -0.081561
     91 H                     0.127210
     92 H                     0.119748
     93 H                     0.131792
     94 O                    -0.475123
     95 C                     0.593433
     96 C                    -0.271921
     97 H                     0.136237
     98 H                     0.143566
     99 C                    -0.179640
    100 H                     0.127071
    101 H                     0.110073
    102 C                    -0.179485
    103 H                     0.106541
    104 H                     0.111436
    105 C                     0.019255
    106 C                     0.056883
    107 C                    -0.091876
    108 H                     0.099034
    109 C                    -0.100005
    110 H                     0.088574
    111 C                    -0.068443
    112 H                     0.089296
    113 C                    -0.086067
    114 H                     0.092751
    115 C                    -0.109202
    116 H                     0.092480
    117 C                    -0.028013
    118 C                     0.044346
    119 C                     0.012094
    120 C                    -0.023960
    121 C                    -0.042546
    122 C                     0.003044
    123 C                    -0.023838
    124 C                    -0.000445
    125 C                    -0.002457
    126 C                     0.015033
    127 C                    -0.070090
    128 C                    -0.018225
    129 C                    -0.040228
    130 C                    -0.020110
    131 C                    -0.004938
    132 C                     0.009338
    133 C                    -0.113149
    134 C                     0.032506
    135 C                     0.010896
    136 C                    -0.003861
    137 C                    -0.009706
    138 C                    -0.003671
    139 C                     0.021355
    140 C                    -0.026916
    141 C                     0.062381
    142 C                    -0.024895
    143 C                     0.015628
    144 C                    -0.034913
    145 C                     0.029591
    146 C                    -0.009765
    147 C                     0.028925
    148 C                     0.002788
    149 C                    -0.020799
    150 C                     0.004979
    151 C                    -0.003589
    152 C                     0.035750
    153 C                     0.005996
    154 C                     0.012147
    155 C                     0.002438
    156 C                     0.007071
    157 C                     0.015357
    158 C                     0.052828
    159 C                     0.003920
    160 C                     0.011710
    161 C                     0.010946
    162 C                     0.046253
    163 C                     0.000037
    164 C                    -0.025892
    165 C                    -0.020422
    166 C                    -0.012615
    167 C                    -0.009116
    168 C                     0.014585
    169 C                    -0.003313
    170 C                    -0.000191
    171 C                    -0.031510
    172 C                     0.024318
    173 C                    -0.009598
    174 C                    -0.031460
    175 C                    -0.004996
    176 C                    -0.002985
  ----------------------------------------
  Sum of atomic charges =     0.000000

                    Cartesian Multipole Moments
 -----------------------------------------------------------------
    Charge (ESU x 10^10)
                 0.0000
    Dipole Moment (Debye)
         X      -0.3548      Y       1.8449      Z      -0.3642
       Tot       1.9137
    Quadrupole Moments (Debye-Ang)
        XX    -783.4963     XY     -44.3727     YY    -782.3085
        XZ      -6.3850     YZ      13.4636     ZZ    -811.2995

 Total job time:  846.74s(wall), 7237.27s(cpu)
        *  Thank you very much for using Q-Chem.  Have a nice day.  *
