 Q-Chem 4.4, Q-Chem, Inc., Pleasanton, CA (2016)
 Q-Chem 4.4.2 for Intel X86 Linux

User input:
--------------------------------------------------------------
$comment
SP
$end

$rem
MEM_STATIC 5000
MEM_TOTAL 20000
JOBTYPE SP
EXCHANGE B3LYP
BASIS 6-31g(d,p)
$end

$molecule
0 1
O          -7.460000     33.374000    -14.429000
C          -6.867000     33.576000    -15.742000
H          -7.486000     33.112000    -16.520000
H          -5.808000     33.289000    -15.729000
H          -6.945000     34.635000    -16.015000
O          -7.779000     31.050000    -14.600000
C          -7.992000     32.101000    -14.004000
C          -8.694000     32.139000    -12.739000
H          -9.774000     32.170000    -12.930000
H          -8.444000     33.152000    -12.402000
C          -8.351000     31.112000    -11.692000
H          -8.368000     30.142000    -12.205000
H          -7.315000     31.224000    -11.348000
C          -9.311000     31.080000    -10.488000
H          -8.834000     30.990000     -9.504000
H          -9.856000     32.028000    -10.401000
C         -10.330000     29.887000    -10.642000
C         -11.229000     30.093000    -11.783000
C         -10.910000     29.329000    -12.929000
H         -10.144000     28.559000    -12.936000
C         -11.619000     29.566000    -14.115000
H         -11.380000     28.909000    -14.947000
C         -12.692000     30.526000    -14.112000
H         -13.264000     30.623000    -15.031000
C         -12.943000     31.253000    -12.968000
H         -13.729000     32.002000    -12.943000
C         -12.241000     31.037000    -11.760000
H         -12.381000     31.743000    -10.947000
C         -14.040000     27.115000     -7.627000
C         -13.432000     25.559000     -9.370000
C         -11.160000     22.706000     -6.887000
C          -9.912000     28.811000     -5.256000
C          -8.004000     24.006000     -7.703000
C         -13.673000     26.850000     -8.962000
C          -8.046000     26.666000     -5.253000
C         -13.275000     23.819000     -6.330000
C          -9.697000     26.149000    -10.638000
C          -8.857000     28.807000     -6.193000
C         -10.057000     28.463000    -10.164000
C          -8.560000     26.637000    -10.030000
C          -7.602000     27.503000     -7.518000
C          -7.767000     25.397000     -5.678000
C         -12.057000     26.995000    -10.558000
C          -9.357000     23.473000     -5.719000
C         -10.899000     29.359000     -9.352000
C         -10.359000     29.683000     -7.985000
C          -8.946000     23.191000     -7.037000
C         -11.836000     26.134000     -4.042000
C         -11.522000     23.975000     -4.746000
C         -12.785000     24.290000     -5.086000
C         -13.992000     24.702000     -7.158000
C         -11.380000     29.575000     -7.024000
C         -10.634000     27.223000    -10.716000
C         -13.602000     24.521000     -8.507000
C          -7.933000     27.763000     -6.176000
C         -12.413000     25.635000    -10.316000
C          -7.779000     25.710000     -9.193000
C         -12.114000     28.308000     -5.016000
C         -12.500000     23.035000     -7.211000
C          -8.743000     27.939000     -9.580000
C         -13.646000     26.502000     -5.481000
C          -7.312000     26.162000     -7.949000
C         -10.086000     24.860000    -10.489000
C          -9.582000     25.350000     -4.234000
C          -9.101000     26.681000     -4.324000
C          -9.406000     23.969000     -9.696000
C         -11.201000     29.184000     -5.652000
C          -9.087000     29.232000     -7.479000
C         -11.380000     27.479000     -4.174000
C         -12.302000     28.899000     -9.059000
C         -11.584000     23.470000     -9.509000
C          -8.273000     28.460000     -8.329000
C          -8.211000     24.367000     -9.035000
C         -13.251000     27.804000     -5.707000
C         -10.052000     22.688000     -7.768000
C         -14.181000     26.007000     -6.721000
C         -10.743000     23.140000     -5.580000
C         -11.495000     24.570000    -10.407000
C         -10.314000     23.095000     -9.105000
C         -12.801000     27.735000     -9.684000
C         -12.542000     29.056000     -7.691000
C         -10.881000     25.076000     -4.065000
C         -12.651000     23.501000     -8.527000
C          -7.440000     25.102000     -7.050000
C         -10.031000     27.743000     -4.320000
C          -8.701000     24.560000     -5.009000
C         -13.466000     28.222000     -7.003000
C         -12.954000     25.638000     -4.619000
O          -4.712000     28.426000      0.464000
C          -4.214000     29.122000      1.621000
H          -4.902000     29.882000      2.012000
H          -3.337000     29.664000      1.247000
H          -3.972000     28.373000      2.385000
O          -6.331000     27.425000      1.706000
C          -5.784000     27.596000      0.646000
C          -6.178000     26.863000     -0.590000
H          -7.000000     27.515000     -0.912000
H          -6.696000     25.968000     -0.224000
C          -5.078000     26.657000     -1.649000
H          -4.863000     27.593000     -2.178000
H          -4.206000     26.257000     -1.116000
C          -5.594000     25.687000     -2.744000
H          -6.021000     24.834000     -2.202000
H          -6.374000     26.177000     -3.341000
C          -4.510000     25.156000     -3.661000
C          -3.811000     26.256000     -4.485000
C          -2.769000     27.012000     -3.830000
H          -2.495000     26.788000     -2.804000
C          -2.097000     27.990000     -4.578000
H          -1.327000     28.608000     -4.126000
C          -2.375000     28.198000     -5.933000
H          -1.837000     28.959000     -6.490000
C          -3.346000     27.495000     -6.549000
H          -3.510000     27.597000     -7.618000
C          -4.099000     26.541000     -5.836000
H          -4.951000     26.055000     -6.302000
C          -3.397000     21.796000     -7.701000
C          -1.215000     22.145000     -6.736000
C          -0.759000     18.071000     -4.773000
C          -6.702000     20.111000     -4.248000
C          -1.746000     19.037000     -1.550000
C          -2.469000     22.615000     -7.023000
C          -5.327000     18.543000     -2.211000
C          -1.561000     18.699000     -7.033000
C          -1.605000     22.907000     -2.753000
C          -6.358000     20.653000     -3.022000
C          -3.686000     23.938000     -3.216000
C          -2.529000     22.424000     -1.740000
C          -4.848000     20.831000     -1.301000
C          -4.048000     18.082000     -1.838000
C          -1.918000     23.571000     -5.040000
C          -2.181000     17.289000     -3.218000
C          -4.731000     23.808000     -4.312000
C          -5.837000     22.834000     -4.116000
C          -1.290000     18.159000     -2.587000
C          -4.867000     17.901000     -6.168000
C          -2.834000     17.131000     -5.666000
C          -2.678000     17.864000     -6.851000
C          -1.724000     19.962000     -7.547000
C          -6.194000     22.222000     -5.349000
C          -2.282000     23.699000     -3.675000
C          -0.772000     20.871000     -7.032000
C          -5.696000     19.937000     -2.009000
C          -0.858000     22.714000     -5.498000
C          -2.447000     21.166000     -1.248000
C          -6.078000     19.942000     -6.357000
C          -0.604000     18.767000     -5.974000
C          -3.842000     22.954000     -2.079000
C          -4.124000     19.614000     -7.706000
C          -3.540000     20.353000     -0.976000
C          -0.559000     22.089000     -3.123000
C          -4.507000     17.250000     -3.867000
C          -5.602000     18.027000     -3.490000
C          -0.426000     20.803000     -2.569000
C          -6.605000     20.849000     -5.414000
C          -5.870000     22.020000     -2.970000
C          -5.929000     18.681000     -5.783000
C          -4.279000     23.453000     -5.727000
C           0.221000     20.654000     -4.787000
C          -4.969000     22.109000     -1.910000
C          -1.330000     20.366000     -1.595000
C          -5.115000     20.402000     -7.240000
C          -0.425000     18.634000     -3.551000
C          -2.992000     20.470000     -7.976000
C          -1.871000     17.210000     -4.601000
C          -0.172000     21.962000     -4.486000
C           0.065000     19.968000     -3.573000
C          -2.928000     23.462000     -6.024000
C          -5.189000     22.625000     -6.303000
C          -4.149000     17.172000     -5.226000
C          -0.072000     20.041000     -6.064000
C          -3.157000     19.059000     -1.296000
C          -6.317000     18.741000     -4.488000
C          -3.548000     17.222000     -2.862000
C          -4.747000     21.748000     -7.272000
C          -3.937000     18.336000     -7.155000
$end

--------------------------------------------------------------

             Standard Nuclear Orientation (Angstroms)
    I     Atom           X                Y                Z
 ----------------------------------------------------------------
    1      O       9.7162672449     6.7513457995    -1.8039275940
    2      C      10.1121831829     8.0921645429    -1.4015873554
    3      H      10.5669010530     8.0765081172    -0.4032249287
    4      H       9.2803559771     8.7932324880    -1.5450663993
    5      H      10.9611680136     8.4176986186    -2.0142424971
    6      O       8.5197283372     6.1965424042     0.1434978436
    7      C       9.0297859384     5.8441145664    -0.9151909032
    8      C       8.8751528063     4.5019539583    -1.4340034862
    9      H       9.6427599184     3.8560319769    -0.9896994063
   10      H       9.2036357835     4.6489233158    -2.4697336353
   11      C       7.5148847356     3.8578489817    -1.3758093708
   12      H       7.1562372618     4.0043483913    -0.3490338781
   13      H       6.7913897883     4.3970687159    -2.0002876647
   14      C       7.5019437159     2.3570183675    -1.7216127794
   15      H       6.6839803455     2.0284083606    -2.3749399470
   16      H       8.3921983330     2.0848440206    -2.3018419079
   17      C       7.4393253451     1.4994186011    -0.4002772503
   18      C       8.6624628983     1.6501362209     0.3957985784
   19      C       8.5330329455     2.4996966648     1.5184151378
   20      H       7.5829057849     2.9115749387     1.8460119420
   21      C       9.6818438528     2.8233066623     2.2539122953
   22      H       9.5185450829     3.4261170362     3.1432643993
   23      C      10.9408854705     2.2285036204     1.8879047186
   24      H      11.7899247609     2.4465937086     2.5303399268
   25      C      11.0064939650     1.4223435496     0.7716307980
   26      H      11.9468601491     0.9800802350     0.4561365820
   27      C       9.8647126599     1.0829877894     0.0101210349
   28      H      10.0079642952     0.5734996580    -0.9379854005
   29      C       6.4955038673    -3.7090490769     1.1869764993
   30      C       5.9743759878    -2.4026874773     3.1492950526
   31      C       1.5973121830    -2.9568732008     3.1165439835
   32      C       3.9256537407    -1.9911904021    -2.8109320665
   33      C       0.8928690867     0.1088025901     1.5604000732
   34      C       6.7434830787    -2.6047374777     2.0272985819
   35      C       1.4309366044    -1.0520248646    -1.8223247112
   36      C       3.3215721080    -4.6436019838     2.6647511952
   37      C       4.6844870531     1.2478327141     2.1921963805
   38      C       3.7302421323    -0.6065465362    -2.6222904279
   39      C       6.1424417825     1.1090493558     0.3043459663
   40      C       4.0114397360     1.7549558631     1.1011370692
   41      C       2.7753737363     0.9355463329    -1.3027291638
   42      C       0.6608028874    -0.8070832976    -0.7197256514
   43      C       6.6168412232    -0.3481637553     2.2947567579
   44      C       0.4281138981    -2.2898409522     1.2749779788
   45      C       6.8332990417     0.1297075042    -0.5528178367
   46      C       6.0560013043    -0.3305351347    -1.7566658092
   47      C       0.6304381955    -1.1683271978     2.1037365549
   48      C       2.8182871402    -4.6932888286    -0.8579076669
   49      C       1.5965772401    -4.4051678057     1.0603999716
   50      C       2.7266694730    -5.0302033004     1.4375155711
   51      C       4.7131539871    -4.4423918575     2.7134991067
   52      C       6.1483019914    -1.7277856057    -1.8862717684
   53      C       5.9718426195     0.8266245915     1.7418316803
   54      C       5.0070679229    -3.2963057045     3.4911642842
   55      C       2.4989915116    -0.1484052538    -2.1552470954
   56      C       5.8558389462    -1.0229150049     3.2949998712
   57      C       2.5487684886     1.5856095169     1.0590224994
   58      C       4.8307527732    -3.8344505381    -1.8400557550
   59      C       2.7754252797    -3.6454713857     3.4995571312
   60      C       4.7321540505     1.5688325476    -0.0723713408
   61      C       4.8404987437    -4.9705598556     0.2892741009
   62      C       1.9558109797     1.1788311891    -0.1463246642
   63      C       4.0330386337     0.6246500171     3.2032855373
   64      C       1.0432569557    -3.0874195086    -0.9077832232
   65      C       1.6371460007    -2.4292616164    -2.0146463543
   66      C       2.6756334584     0.4185630588     3.1928282178
   67      C       5.1350993657    -2.5867171331    -2.4366925805
   68      C       4.7548263063     0.1647065579    -2.1296273225
   69      C       3.4563458135    -4.0225347246    -1.9429676014
   70      C       7.2545469668    -1.1644021245     0.0903683373
   71      C       3.5940438754    -1.3713125773     4.1830410804
   72      C       4.1777355491     1.1725771101    -1.3344900966
   73      C       1.8849425358     0.9152196169     2.1197531374
   74      C       5.5333898350    -4.2892853462    -0.6895374124
   75      C       1.3340084893    -1.5739570918     3.2660872897
   76      C       5.4456385376    -4.6236142458     1.5471630362
   77      C       0.9931935048    -3.4450969843     1.9052751612
   78      C       4.6666236513    -0.5010980404     3.8415381022
   79      C       2.3910525932    -0.7951997405     3.8120330289
   80      C       7.1196179793    -1.3275730059     1.4866818521
   81      C       6.8451470352    -2.2194778781    -0.7299242021
   82      C       1.5784668919    -4.1887738101    -0.3677767170
   83      C       3.7923173675    -2.7895028281     3.9523940887
   84      C       0.9318022812     0.2873677804     0.1775336013
   85      C       2.8733963632    -2.9023271909    -2.5052113383
   86      C       0.3781352521    -2.0845938424    -0.1642512451
   87      C       6.5492068730    -3.5018697011    -0.1908818728
   88      C       3.4598783808    -5.2088737559     0.2151262854
   89      O      -2.2171716807    -2.1244876225    -7.5177943646
   90      C      -2.6327541157    -2.4048768161    -8.8667725482
   91      H      -1.9201728601    -3.0182619286    -9.4322914762
   92      H      -2.6435200800    -1.4207401298    -9.3506403781
   93      H      -3.6200512105    -2.8807849213    -8.8218623923
   94      O      -2.4615682593    -4.3088981789    -6.9395670448
   95      C      -2.1784202984    -3.1757024924    -6.6433496107
   96      C      -1.8116899589    -2.7746345585    -5.2559511926
   97      H      -0.7448066684    -3.0299459223    -5.2883263702
   98      H      -2.2389709837    -3.5611058147    -4.6217596687
   99      C      -2.1040370322    -1.3143603741    -4.8609201876
  100      H      -1.3885664272    -0.6300995788    -5.3321430409
  101      H      -3.1426586315    -1.1160210866    -5.1548584472
  102      C      -1.8807726043    -1.1399861165    -3.3358209733
  103      H      -2.4210045689    -1.9701681803    -2.8639638280
  104      H      -0.8104299786    -1.2123275902    -3.1033508143
  105      C      -2.4372534843     0.1527806395    -2.7728030830
  106      C      -1.7709213008     1.4137024560    -3.3590236848
  107      C      -2.2389276381     1.8715627458    -4.6465247618
  108      H      -3.0384785313     1.3432412615    -5.1559585438
  109      C      -1.6698473625     3.0393377185    -5.1756951059
  110      H      -1.9627652014     3.4102183263    -6.1533324182
  111      C      -0.7205325573     3.7809878765    -4.4648298275
  112      H      -0.2988841177     4.6838697485    -4.8959109320
  113      C      -0.2807780214     3.3583581019    -3.2629537849
  114      H       0.3951931300     3.9716539068    -2.6738932972
  115      C      -0.7686604967     2.1600071214    -2.7049039504
  116      H      -0.3355675417     1.7642199884    -1.7910992461
  117      C      -3.3088478377     3.0135628679     1.6888353296
  118      C      -4.8760980312     4.0103600395     0.1512163164
  119      C      -8.6738314930     2.2622700315     1.9345230418
  120      C      -4.0198740688    -1.9894632163     2.0756566051
  121      C      -9.0044518838    -0.4150592778    -0.3054885489
  122      C      -3.6786481197     3.3857547976     0.3787399442
  123      C      -6.8240902910    -2.6509559866     1.6313406207
  124      C      -6.7067299456     3.3082702591     3.0215294935
  125      C      -6.0626408310     1.2187304171    -2.5683338735
  126      C      -4.4724253760    -2.4559849070     0.8538829655
  127      C      -3.9227984225     0.2207420559    -2.3867169755
  128      C      -6.2917681982    -0.2139803459    -2.4784755451
  129      C      -6.1013310296    -2.4799762519    -0.7646706440
  130      C      -8.0721984139    -2.0639258606     1.3395997345
  131      C      -4.3570806733     2.6422532677    -1.6551628916
  132      C      -9.0490564706     0.0527268030     2.1041046975
  133      C      -2.8453073626     0.1727390352    -1.3158062763
  134      C      -2.8838150601    -0.9395098557    -0.3300337052
  135      C      -9.3415585983     0.4391742430     0.7948900927
  136      C      -5.6165231056     0.1964914779     4.2227567257
  137      C      -7.5805022572     1.1831297270     3.8389288246
  138      C      -6.6437899369     2.2236512996     3.9146578539
  139      C      -5.5614839558     3.7715882099     2.4217944692
  140      C      -2.4643571186    -0.4909132147     0.9525800671
  141      C      -4.7080352593     1.4942566621    -2.4108345611
  142      C      -5.8108407066     4.2866968354     1.1293958021
  143      C      -5.8133195302    -2.7886258194     0.5923071822
  144      C      -5.3251906436     3.5503155319    -1.1019911192
  145      C      -7.3740755077    -0.7201232034    -1.8430368811
  146      C      -3.4968530070    -0.1658811136     3.2011854957
  147      C      -7.7522935940     3.3057485245     2.0474944336
  148      C      -4.9955511116    -0.8351690588    -2.2466656070
  149      C      -4.2468486324     2.0806374657     3.5701866267
  150      C      -7.3548644944    -1.8432503911    -1.0258354021
  151      C      -7.0396518030     2.0654148770    -2.0900923173
  152      C      -7.3491203240    -1.2000037435     3.2762315145
  153      C      -6.3716463183    -2.0944370381     2.8410112831
  154      C      -8.2003764685     1.5494609592    -1.4860138409
  155      C      -3.0532209831    -1.0032179890     2.1563483867
  156      C      -3.9279500676    -1.8806065749    -0.3635008743
  157      C      -4.6610387998    -0.6789022314     3.7697615879
  158      C      -2.6677279735     1.3746867570    -0.3904192034
  159      C      -7.6264965512     3.4660425627    -0.3208053628
  160      C      -4.9266450120    -1.9202261442    -1.3352831018
  161      C      -8.3938535710     0.1658475239    -1.4150105127
  162      C      -3.3682270845     1.2039934235     3.0413195368
  163      C      -9.1050851189     1.7951640343     0.7025971928
  164      C      -4.2634841181     3.2386802827     2.7066357627
  165      C      -8.6256164098     1.1830140503     2.8512186471
  166      C      -6.7030030306     3.2288583510    -1.3439462949
  167      C      -8.5473134587     2.4150674401    -0.4483808880
  168      C      -3.3411690324     2.5488280073    -0.6756567617
  169      C      -2.3633919670     0.9458110740     0.8621402736
  170      C      -6.9657138085    -0.0508961143     3.9929463117
  171      C      -7.2255191608     3.9899363526     0.9664783780
  172      C      -8.2543155807    -1.5979762329     0.0009816851
  173      C      -5.0069790538    -1.8104001804     3.1130982554
  174      C      -8.4308721914    -1.1832186442     2.4044395911
  175      C      -2.7239010329     1.7448217656     1.9275365043
  176      C      -5.4338967176     1.6071450397     4.1520592639
 ----------------------------------------------------------------

    9   -5804.2886193966      9.73E-06 Convergence criterion met
 Total energy in the final basis set = -5804.2886193966

                    Orbital Energies (a.u.)
 --------------------------------------------------------------

 Alpha MOs
 -- Occupied --
-19.189 -19.184 -19.141 -19.129 -10.320 -10.309 -10.246 -10.243
-10.242 -10.242 -10.240 -10.238 -10.238 -10.238 -10.238 -10.236
-10.235 -10.233 -10.228 -10.227 -10.226 -10.226 -10.226 -10.225
-10.225 -10.224 -10.224 -10.223 -10.223 -10.223 -10.223 -10.222
-10.222 -10.222 -10.222 -10.222 -10.222 -10.221 -10.221 -10.221
-10.221 -10.221 -10.221 -10.221 -10.221 -10.221 -10.220 -10.220
-10.220 -10.220 -10.220 -10.220 -10.219 -10.219 -10.219 -10.219
-10.219 -10.219 -10.219 -10.218 -10.218 -10.218 -10.218 -10.218
-10.217 -10.217 -10.217 -10.217 -10.217 -10.217 -10.217 -10.216
-10.216 -10.216 -10.216 -10.216 -10.216 -10.215 -10.215 -10.215
-10.215 -10.215 -10.215 -10.215 -10.214 -10.214 -10.214 -10.214
-10.214 -10.214 -10.214 -10.213 -10.213 -10.213 -10.213 -10.213
-10.213 -10.213 -10.212 -10.212 -10.212 -10.212 -10.212 -10.212
-10.212 -10.211 -10.211 -10.211 -10.211 -10.210 -10.210 -10.210
-10.210 -10.210 -10.209 -10.209 -10.209 -10.209 -10.209 -10.208
-10.208 -10.208 -10.207 -10.207 -10.206 -10.206 -10.206 -10.205
-10.205 -10.205 -10.204 -10.204 -10.204 -10.203 -10.203 -10.201
-10.201 -10.201 -10.200 -10.200 -10.200 -10.199 -10.198 -10.197
-10.197 -10.196 -10.192 -10.190  -1.093  -1.069  -1.011  -1.002
 -0.985  -0.978  -0.968  -0.965  -0.963  -0.960  -0.959  -0.956
 -0.938  -0.931  -0.928  -0.928  -0.925  -0.922  -0.921  -0.920
 -0.920  -0.917  -0.901  -0.894  -0.891  -0.887  -0.887  -0.881
 -0.879  -0.868  -0.858  -0.852  -0.843  -0.840  -0.837  -0.837
 -0.836  -0.833  -0.825  -0.818  -0.815  -0.804  -0.803  -0.798
 -0.797  -0.795  -0.793  -0.792  -0.790  -0.787  -0.787  -0.781
 -0.773  -0.772  -0.768  -0.768  -0.767  -0.765  -0.763  -0.761
 -0.756  -0.747  -0.746  -0.742  -0.736  -0.728  -0.719  -0.717
 -0.715  -0.714  -0.713  -0.712  -0.710  -0.709  -0.708  -0.708
 -0.707  -0.706  -0.705  -0.703  -0.702  -0.701  -0.676  -0.668
 -0.661  -0.659  -0.655  -0.654  -0.652  -0.645  -0.635  -0.633
 -0.630  -0.627  -0.627  -0.625  -0.623  -0.621  -0.617  -0.617
 -0.615  -0.614  -0.614  -0.612  -0.611  -0.611  -0.610  -0.609
 -0.607  -0.605  -0.604  -0.600  -0.569  -0.566  -0.562  -0.562
 -0.561  -0.559  -0.557  -0.557  -0.554  -0.553  -0.552  -0.550
 -0.541  -0.536  -0.532  -0.532  -0.528  -0.528  -0.525  -0.524
 -0.522  -0.522  -0.520  -0.519  -0.518  -0.517  -0.512  -0.511
 -0.509  -0.503  -0.501  -0.497  -0.496  -0.492  -0.489  -0.487
 -0.484  -0.482  -0.481  -0.480  -0.479  -0.477  -0.475  -0.475
 -0.475  -0.472  -0.471  -0.470  -0.469  -0.468  -0.467  -0.466
 -0.465  -0.464  -0.463  -0.463  -0.462  -0.461  -0.459  -0.458
 -0.456  -0.455  -0.453  -0.449  -0.448  -0.448  -0.445  -0.444
 -0.441  -0.441  -0.440  -0.439  -0.439  -0.438  -0.435  -0.434
 -0.433  -0.431  -0.431  -0.429  -0.428  -0.427  -0.425  -0.424
 -0.423  -0.423  -0.421  -0.421  -0.420  -0.419  -0.418  -0.418
 -0.417  -0.416  -0.415  -0.414  -0.414  -0.413  -0.412  -0.412
 -0.411  -0.410  -0.409  -0.408  -0.406  -0.402  -0.397  -0.396
 -0.395  -0.393  -0.390  -0.390  -0.387  -0.386  -0.385  -0.384
 -0.383  -0.379  -0.378  -0.372  -0.371  -0.370  -0.368  -0.367
 -0.366  -0.364  -0.364  -0.362  -0.362  -0.360  -0.360  -0.358
 -0.356  -0.355  -0.355  -0.354  -0.354  -0.353  -0.352  -0.352
 -0.350  -0.349  -0.348  -0.346  -0.346  -0.345  -0.344  -0.343
 -0.342  -0.341  -0.340  -0.339  -0.338  -0.338  -0.336  -0.335
 -0.333  -0.331  -0.330  -0.328  -0.327  -0.326  -0.324  -0.322
 -0.311  -0.308  -0.298  -0.296  -0.293  -0.282  -0.276  -0.273
 -0.270  -0.269  -0.268  -0.267  -0.266  -0.266  -0.264  -0.263
 -0.263  -0.261  -0.260  -0.260  -0.259  -0.257  -0.255  -0.253
 -0.251  -0.247  -0.246  -0.239  -0.226  -0.217  -0.215  -0.213
 -0.210  -0.208  -0.207  -0.206  -0.201  -0.195

          Ground-State Mulliken Net Atomic Charges

     Atom                 Charge (a.u.)
  ----------------------------------------
      1 O                    -0.510200
      2 C                    -0.073088
      3 H                     0.126076
      4 H                     0.127131
      5 H                     0.121904
      6 O                    -0.461185
      7 C                     0.600820
      8 C                    -0.260771
      9 H                     0.155528
     10 H                     0.126633
     11 C                    -0.184481
     12 H                     0.132918
     13 H                     0.110383
     14 C                    -0.186316
     15 H                     0.109456
     16 H                     0.111364
     17 C                    -0.002243
     18 C                     0.083525
     19 C                    -0.085813
     20 H                     0.104658
     21 C                    -0.101258
     22 H                     0.098185
     23 C                    -0.079051
     24 H                     0.094960
     25 C                    -0.098578
     26 H                     0.089669
     27 C                    -0.104794
     28 H                     0.095823
     29 C                    -0.025348
     30 C                     0.035749
     31 C                    -0.007951
     32 C                    -0.016376
     33 C                     0.006919
     34 C                    -0.016606
     35 C                    -0.014240
     36 C                     0.015068
     37 C                     0.041720
     38 C                     0.012612
     39 C                    -0.073321
     40 C                     0.002291
     41 C                    -0.010998
     42 C                     0.014540
     43 C                    -0.014326
     44 C                    -0.000845
     45 C                    -0.091363
     46 C                     0.035324
     47 C                     0.020755
     48 C                     0.012309
     49 C                    -0.000750
     50 C                     0.013453
     51 C                    -0.010143
     52 C                    -0.009835
     53 C                     0.002579
     54 C                     0.009143
     55 C                    -0.002167
     56 C                    -0.001833
     57 C                    -0.042884
     58 C                    -0.011639
     59 C                    -0.019062
     60 C                     0.045645
     61 C                    -0.003631
     62 C                     0.002437
     63 C                    -0.000509
     64 C                     0.009361
     65 C                     0.000598
     66 C                     0.026247
     67 C                    -0.014680
     68 C                     0.006055
     69 C                     0.010576
     70 C                     0.033909
     71 C                     0.007086
     72 C                    -0.036940
     73 C                    -0.006516
     74 C                     0.013050
     75 C                    -0.005647
     76 C                    -0.001353
     77 C                    -0.007179
     78 C                    -0.035424
     79 C                    -0.002402
     80 C                     0.013972
     81 C                     0.007140
     82 C                     0.006618
     83 C                    -0.002429
     84 C                    -0.000780
     85 C                    -0.007023
     86 C                    -0.017442
     87 C                     0.010603
     88 C                    -0.018176
     89 O                    -0.472240
     90 C                    -0.080446
     91 H                     0.126389
     92 H                     0.118968
     93 H                     0.131367
     94 O                    -0.473349
     95 C                     0.588804
     96 C                    -0.264845
     97 H                     0.138441
     98 H                     0.139578
     99 C                    -0.180044
    100 H                     0.127316
    101 H                     0.110004
    102 C                    -0.182252
    103 H                     0.101939
    104 H                     0.114559
    105 C                     0.021542
    106 C                     0.051510
    107 C                    -0.092855
    108 H                     0.097758
    109 C                    -0.099845
    110 H                     0.086519
    111 C                    -0.069292
    112 H                     0.086951
    113 C                    -0.090333
    114 H                     0.092009
    115 C                    -0.104423
    116 H                     0.093017
    117 C                    -0.027218
    118 C                     0.044440
    119 C                     0.011893
    120 C                    -0.021215
    121 C                    -0.042360
    122 C                     0.002568
    123 C                    -0.020928
    124 C                    -0.000478
    125 C                    -0.002891
    126 C                     0.010417
    127 C                    -0.076132
    128 C                    -0.019677
    129 C                    -0.048462
    130 C                    -0.018927
    131 C                    -0.004590
    132 C                     0.009260
    133 C                    -0.110510
    134 C                     0.042938
    135 C                     0.010528
    136 C                    -0.005003
    137 C                    -0.010029
    138 C                    -0.004151
    139 C                     0.021180
    140 C                    -0.021201
    141 C                     0.063548
    142 C                    -0.025569
    143 C                     0.011730
    144 C                    -0.035588
    145 C                     0.029929
    146 C                    -0.010363
    147 C                     0.028803
    148 C                     0.012765
    149 C                    -0.021308
    150 C                     0.011381
    151 C                    -0.004051
    152 C                     0.037358
    153 C                     0.011596
    154 C                     0.012641
    155 C                    -0.001310
    156 C                    -0.001802
    157 C                     0.014986
    158 C                     0.049404
    159 C                     0.003664
    160 C                     0.000419
    161 C                     0.010506
    162 C                     0.046475
    163 C                    -0.000281
    164 C                    -0.027334
    165 C                    -0.020331
    166 C                    -0.013882
    167 C                    -0.009543
    168 C                     0.014756
    169 C                     0.008912
    170 C                     0.000712
    171 C                    -0.032607
    172 C                     0.022949
    173 C                    -0.007325
    174 C                    -0.030865
    175 C                    -0.010851
    176 C                    -0.002911
  ----------------------------------------
  Sum of atomic charges =     0.000000

                    Cartesian Multipole Moments
 -----------------------------------------------------------------
    Charge (ESU x 10^10)
                 0.0000
    Dipole Moment (Debye)
         X       6.6046      Y       3.1771      Z      -2.7847
       Tot       7.8402
    Quadrupole Moments (Debye-Ang)
        XX    -769.6120     XY      16.7436     YY    -816.4149
        XZ      -2.2704     YZ     -21.0917     ZZ    -793.1786

 Total job time:  854.73s(wall), 7300.55s(cpu)
        *  Thank you very much for using Q-Chem.  Have a nice day.  *
