 Q-Chem 4.4, Q-Chem, Inc., Pleasanton, CA (2016)
 Q-Chem 4.4.2 for Intel X86 Linux

User input:
--------------------------------------------------------------
$comment
SP
$end

$rem
MEM_STATIC 5000
MEM_TOTAL 20000
JOBTYPE SP
EXCHANGE B3LYP
BASIS 6-31g(d,p)
$end

$molecule
0 1
O         -24.359000      5.673000     -1.620000
C         -25.180000      6.530000     -2.328000
H         -25.163000      6.282000     -3.396000
H         -24.767000      7.546000     -2.295000
H         -26.184000      6.435000     -1.895000
O         -25.318000      3.714000     -2.375000
C         -24.460000      4.306000     -1.728000
C         -23.422000      3.785000     -0.785000
H         -23.580000      4.349000      0.142000
H         -22.451000      3.962000     -1.264000
C         -23.722000      2.323000     -0.347000
H         -24.704000      2.271000      0.139000
H         -23.762000      1.794000     -1.307000
C         -22.649000      1.766000      0.597000
H         -21.638000      1.926000      0.203000
H         -22.749000      2.456000      1.445000
C         -22.926000      0.311000      1.042000
C         -24.224000      0.155000      1.678000
C         -25.254000     -0.319000      0.912000
H         -25.028000     -0.559000     -0.123000
C         -26.467000     -0.674000      1.441000
H         -27.177000     -1.164000      0.781000
C         -26.651000     -0.408000      2.839000
H         -27.582000     -0.790000      3.248000
C         -25.642000      0.227000      3.612000
H         -25.909000      0.381000      4.654000
C         -24.420000      0.407000      3.030000
H         -23.608000      0.711000      3.684000
C         -20.997000     -4.094000      3.556000
C         -22.437000     -4.953000      1.879000
C         -19.224000     -6.810000     -0.822000
C         -17.524000     -0.975000      1.529000
C         -19.247000     -3.989000     -2.953000
C         -22.191000     -3.991000      2.829000
C         -16.977000     -1.891000     -1.016000
C         -19.418000     -6.772000      1.648000
C         -22.549000     -2.537000     -1.301000
C         -18.113000     -0.310000      0.437000
C         -22.236000     -0.748000      0.209000
C         -21.632000     -1.616000     -1.924000
C         -18.950000     -0.637000     -1.661000
C         -17.267000     -2.921000     -1.960000
C         -23.128000     -2.962000      1.011000
C         -17.615000     -5.368000     -1.718000
C         -21.716000     -0.510000      1.549000
C         -20.233000     -0.162000      1.634000
C         -18.813000     -5.248000     -2.460000
C         -16.846000     -4.393000      2.090000
C         -17.434000     -5.965000      0.571000
C         -18.109000     -6.290000      1.755000
C         -20.431000     -6.148000      2.431000
C         -19.679000     -0.878000      2.665000
C         -22.920000     -2.060000     -0.087000
C         -21.596000     -6.047000      1.671000
C         -17.812000     -0.793000     -0.837000
C         -23.073000     -4.371000      0.798000
C         -20.626000     -2.190000     -2.679000
C         -17.908000     -2.536000      3.133000
C         -19.978000     -7.002000      0.352000
C         -21.338000     -0.580000     -0.967000
C         -18.754000     -4.773000      3.536000
C         -19.304000     -1.719000     -2.549000
C         -22.520000     -3.936000     -1.554000
C         -16.355000     -3.919000     -0.156000
C         -16.355000     -2.501000      0.039000
C         -21.509000     -4.450000     -2.354000
C         -18.339000     -1.270000      2.657000
C         -19.446000      0.120000      0.510000
C         -16.866000     -3.017000      2.341000
C         -21.855000     -1.618000      2.547000
C         -21.890000     -5.883000     -0.689000
C         -19.962000     -0.059000     -0.771000
C         -20.594000     -3.615000     -2.937000
C         -18.882000     -3.377000      3.757000
C         -19.777000     -6.101000     -1.924000
C         -20.130000     -5.212000      3.424000
C         -17.920000     -6.288000     -0.668000
C         -22.793000     -4.849000     -0.522000
C         -21.112000     -5.621000     -1.837000
C         -22.649000     -2.742000      2.322000
C         -20.635000     -1.763000      3.207000
C         -16.573000     -4.867000      0.808000
C         -21.252000     -6.455000      0.451000
C         -18.495000     -2.829000     -2.695000
C         -16.596000     -2.074000      1.359000
C         -16.899000     -4.176000     -1.434000
C         -20.215000     -2.968000      3.788000
C         -17.723000     -5.312000      2.716000
O         -13.794000     -1.967000      6.397000
C         -14.869000     -1.507000      7.184000
H         -14.439000     -0.964000      8.034000
H         -15.519000     -2.337000      7.488000
H         -15.495000     -0.837000      6.583000
O         -15.126000     -2.628000      4.627000
C         -14.021000     -2.369000      5.085000
C         -12.717000     -2.557000      4.316000
H         -11.935000     -2.027000      4.873000
H         -12.997000     -1.939000      3.454000
C         -12.219000     -3.992000      4.118000
H         -11.189000     -3.976000      3.739000
H         -12.299000     -4.442000      5.115000
C         -13.097000     -4.803000      3.134000
H         -14.153000     -4.824000      3.432000
H         -13.235000     -4.141000      2.270000
C         -12.465000     -6.210000      2.856000
C         -12.270000     -7.107000      4.062000
C         -13.432000     -7.731000      4.624000
H         -14.458000     -7.508000      4.347000
C         -13.318000     -8.585000      5.750000
H         -14.192000     -9.099000      6.139000
C         -12.098000     -8.760000      6.378000
H         -12.052000     -9.424000      7.236000
C         -10.936000     -8.185000      5.789000
H          -9.986000     -8.388000      6.274000
C         -11.062000     -7.381000      4.666000
H         -10.165000     -6.977000      4.206000
C          -8.608000     -8.927000      0.058000
C         -10.566000    -10.338000     -0.120000
C         -11.448000     -9.462000     -4.495000
C          -9.739000     -4.176000     -1.501000
C         -13.915000     -7.092000     -3.861000
C          -9.769000     -9.470000      0.633000
C         -11.679000     -4.280000     -3.447000
C          -9.367000     -9.831000     -3.299000
C         -13.919000     -8.151000      0.088000
C         -11.109000     -3.895000     -1.164000
C         -12.747000     -6.683000      1.473000
C         -14.234000     -6.836000     -0.376000
C         -13.228000     -4.500000     -1.634000
C         -12.477000     -5.188000     -4.214000
C         -11.918000     -8.973000      1.162000
C         -11.893000     -7.398000     -5.124000
C         -11.353000     -6.207000      1.807000
C         -10.885000     -5.102000      0.969000
C         -13.056000     -7.913000     -4.633000
C          -8.288000     -6.522000     -3.687000
C          -9.588000     -7.979000     -4.861000
C          -8.805000     -8.705000     -3.941000
C          -9.005000    -10.109000     -1.994000
C          -9.540000     -5.418000      0.571000
C         -12.942000     -8.067000      1.125000
C         -10.182000    -10.703000     -1.448000
C         -12.092000     -3.917000     -2.138000
C         -11.891000     -9.989000      0.218000
C         -14.504000     -6.589000     -1.723000
C          -8.069000     -5.760000     -1.377000
C         -10.673000    -10.223000     -3.612000
C         -13.531000     -5.936000      0.354000
C          -7.673000     -8.067000     -1.906000
C         -13.993000     -5.430000     -2.347000
C         -13.881000     -9.174000     -0.893000
C         -10.277000     -5.621000     -4.680000
C         -10.375000     -4.587000     -3.699000
C         -14.179000     -8.947000     -2.247000
C          -8.981000     -4.975000     -0.643000
C         -11.686000     -4.423000      0.080000
C          -8.308000     -5.444000     -2.771000
C         -10.321000     -7.272000      1.649000
C         -12.511000    -10.466000     -2.118000
C         -13.003000     -4.765000     -0.270000
C         -14.452000     -7.609000     -2.659000
C          -7.784000     -7.022000     -0.967000
C         -12.785000     -9.225000     -4.189000
C          -8.160000     -9.221000     -1.238000
C         -10.904000     -8.348000     -5.056000
C         -12.883000    -10.157000     -0.783000
C         -13.301000     -9.739000     -3.010000
C         -10.629000     -8.620000      1.399000
C          -9.215000     -6.728000      1.034000
C          -9.292000     -6.597000     -4.682000
C         -11.163000    -10.713000     -2.433000
C         -13.623000     -5.757000     -3.613000
C          -9.348000     -4.503000     -2.780000
C         -11.581000     -6.012000     -4.985000
C          -8.346000     -7.538000      0.260000
C          -7.955000     -7.800000     -3.284000
$end

--------------------------------------------------------------

             Standard Nuclear Orientation (Angstroms)
    I     Atom           X                Y                Z
 ----------------------------------------------------------------
    1      O      12.0130095964     3.1147907702    -4.4261000805
    2      C      13.0721797435     3.9522283373    -4.7203974145
    3      H      12.8096457947     4.9939619690    -4.5006612856
    4      H      13.2481149739     3.9560469741    -5.8034238282
    5      H      13.9252514303     3.6037844581    -4.1242551830
    6      O      11.7340880572     3.8086585385    -2.2424935923
    7      C      11.3827446093     3.1327273905    -3.2042169750
    8      C      10.3386790143     2.0668274420    -3.3133880942
    9      H      10.8678595934     1.2003336410    -3.7275684987
   10      H       9.5506900612     2.4697786139    -3.9617049634
   11      C       9.8901462612     1.5530374172    -1.9154874612
   12      H      10.7526390694     1.1530882339    -1.3683395775
   13      H       9.5435261486     2.4723004445    -1.4277877748
   14      C       8.7979131703     0.4804682796    -2.0121120967
   15      H       7.9767599452     0.7942207529    -2.6680265473
   16      H       9.3337836341    -0.3035974994    -2.5628277223
   17      C       8.3342289618    -0.0418021020    -0.6322535520
   18      C       9.4286079384    -0.5703758209     0.1656063851
   19      C       9.9734635019     0.2474389138     1.1177846640
   20      H       9.5411637715     1.2385241196     1.2215539168
   21      C      10.8810773564    -0.1966344673     2.0431337459
   22      H      11.1577109765     0.4864883647     2.8410165923
   23      C      11.3319912350    -1.5501975784     1.8896424490
   24      H      11.9725363235    -1.9018694893     2.6933805014
   25      C      10.8886751255    -2.3615401315     0.8107406515
   26      H      11.3123204216    -3.3621452885     0.8016311646
   27      C       9.8773250669    -1.8781855754     0.0310308131
   28      H       9.4175587180    -2.5777171083    -0.6608843110
   29      C       4.7100681143    -3.0263158698     2.0886649916
   30      C       5.3023980775    -1.2949265057     3.5970568785
   31      C       1.3113490403     0.9715791838     3.5558435072
   32      C       3.1363765412    -1.0946501566    -2.3487646029
   33      C       2.5433303864     3.2935625133     1.1914521732
   34      C       5.6958033460    -2.1912999189     2.6325844845
   35      C       1.9129935908     1.3197100599    -1.8107228744
   36      C       1.7741889637    -1.4625281671     3.5855185698
   37      C       6.2832190918     2.0479786400     1.6413024653
   38      C       3.8562448352     0.0900231535    -2.5936090179
   39      C       7.1086643845     0.6487845383    -0.0731904436
   40      C       5.9080006341     2.6522434334     0.3877737786
   41      C       4.1626470806     2.2247258515    -1.8464383176
   42      C       1.5226394000     2.2091156825    -0.7653917095
   43      C       6.8170005121    -0.2284750654     2.2690332377
   44      C       0.5855900219     1.8234764563     1.5019189993
   45      C       6.9403739837    -0.7112749281    -0.5677211188
   46      C       5.8689227264    -0.9015352645    -1.6370251951
   47      C       1.5817875570     2.6749699483     2.0336306731
   48      C       0.8634008870    -1.9575344327     0.2097782249
   49      C       0.3823733524    -0.5095385154     1.8819652164
   50      C       0.9220816657    -1.6496622564     2.4918330641
   51      C       3.0446002149    -2.1062162806     3.5666806959
   52      C       5.1456592644    -2.0261834962    -1.3294714283
   53      C       6.9809543632     0.9088857972     1.4076382047
   54      C       4.0009421153    -1.2411168620     4.0977542928
   55      C       3.2081417664     1.2944702558    -2.3175010859
   56      C       6.0207063306    -0.1230021763     3.4473651290
   57      C       4.6724408649     3.2723254244     0.3671005757
   58      C       2.8396763569    -2.7665718440    -0.8409052355
   59      C       1.9855498529    -0.1420789580     4.0933142576
   60      C       6.2995106492     1.7500007185    -0.6649650265
   61      C       2.4521042458    -3.2531350830     1.5033085076
   62      C       3.8062145734     3.0604031209    -0.7243049168
   63      C       5.5096599560     2.1962042709     2.8252308523
   64      C       0.4370718585     0.2646339232    -0.4151092510
   65      C       1.1892333958     0.1728390129    -1.6294303437
   66      C       4.2956751968     2.8648661491     2.7514114972
   67      C       3.8041906057    -2.1646302769    -1.6908885374
   68      C       5.2186593156     0.1660064394    -2.2693077325
   69      C       1.6172429606    -2.1062204756    -0.9591493129
   70      C       6.6004360290    -1.7701816838     0.4353480064
   71      C       4.0692134813     1.1412778495     4.1474177525
   72      C       5.4205822717     1.4713377557    -1.8281781885
   73      C       3.8823804071     3.4233848057     1.5717575959
   74      C       3.3046402618    -3.3610505157     0.3738937916
   75      C       2.0221551588     2.1661747259     3.2548615264
   76      C       3.3827258374    -3.0520315383     2.5951609782
   77      C       0.4893859261     0.7410670775     2.4298520296
   78      C       5.3878383870     1.1293581466     3.7308360933
   79      C       3.4135941426     2.2320198403     3.5372725303
   80      C       6.6710135749    -1.5573999190     1.8116400287
   81      C       5.5634268964    -2.5439459382    -0.0851574570
   82      C       0.2428244795    -0.7420221513     0.4928750569
   83      C       3.3610054116    -0.0887207405     4.2866039536
   84      C       2.5307012493     3.0542883553    -0.1942809837
   85      C       1.7626979232    -1.0866282061    -1.8896048238
   86      C       0.6229618078     1.5638475564     0.1071530031
   87      C       4.6515068867    -3.2448497453     0.7167912628
   88      C       1.2059959900    -2.5681647475     1.4407636894
   89      O       0.0045743017    -6.3313985746    -3.5160986336
   90      C       1.2436733100    -6.9853808391    -3.3626879257
   91      H       1.2536875411    -7.8287577206    -4.0633049045
   92      H       1.4029014725    -7.2897307867    -2.3206545761
   93      H       2.0529029838    -6.2848941948    -3.6002648523
   94      O       0.5966023686    -4.5029071326    -2.2315104448
   95      C      -0.1574158406    -5.0367953408    -3.0341871677
   96      C      -1.4490235774    -4.4013447071    -3.5392346371
   97      H      -1.7778541667    -4.9856129424    -4.4070906578
   98      H      -0.9900155976    -3.4758158739    -3.9081195155
   99      C      -2.6334699465    -4.3517248103    -2.5691533701
  100      H      -3.5432293159    -4.0649030479    -3.1121710183
  101      H      -2.6848289887    -5.3675402125    -2.1587994772
  102      C      -2.4158881853    -3.3549622159    -1.4046863214
  103      H      -1.4957392821    -3.5593759229    -0.8426169020
  104      H      -2.0551178042    -2.4368104683    -1.8849217850
  105      C      -3.7088049009    -3.2356705911    -0.5269090861
  106      C      -4.2004736928    -4.5155229351     0.1190860971
  107      C      -3.4709973585    -5.0162192181     1.2471958036
  108      H      -2.5155102204    -4.6344741193     1.5942534478
  109      C      -3.8807087411    -6.2063542651     1.8998083633
  110      H      -3.3588275004    -6.5526739465     2.7869924754
  111      C      -4.9367729849    -6.9504830694     1.4054303344
  112      H      -5.2210693661    -7.8547013601     1.9352801720
  113      C      -5.6945246530    -6.4264847406     0.3195997026
  114      H      -6.5516840127    -7.0067361028    -0.0083030098
  115      C      -5.3000245790    -5.2418660065    -0.2841130985
  116      H      -5.9060969947    -4.8349443919    -1.0881753016
  117      C      -8.7008952132    -0.9914328955    -0.1666682234
  118      C      -7.7836577011    -0.7432901339     2.0589709019
  119      C      -7.0762047057     3.7440722093     1.8375788064
  120      C      -5.4690481583     0.9987591778    -3.6128172518
  121      C      -3.6879206415     3.5022053781     1.0852646857
  122      C      -7.9290933829    -1.4993099537     0.8915273296
  123      C      -4.0933692296     3.0957868727    -2.4852914952
  124      C      -8.8998074255     2.3457298020     1.0525631173
  125      C      -3.7847160189    -0.4969174397     1.9300991918
  126      C      -4.1221597272     0.8050102307    -3.1461450975
  127      C      -3.8686204528    -1.8707806248     0.0453464243
  128      C      -2.8921922254     0.0863911486     0.9777870745
  129      C      -2.6859809377     1.4154017508    -1.5207532442
  130      C      -3.9692593217     3.8629284109    -1.2829406350
  131      C      -5.7873543167    -1.7995604525     1.5755261675
  132      C      -5.7061191815     4.5566221352     0.3156095970
  133      C      -4.7704620255    -2.2913700260    -1.0909432982
  134      C      -4.6936131017    -1.4206637876    -2.2649355849
  135      C      -4.9276678630     4.1343886996     1.3522423529
  136      C      -8.1565312777     2.8739000604    -2.3286855790
  137      C      -7.9344065488     4.0502168975    -0.3901128298
  138      C      -8.8699317892     3.0149263578    -0.1912887291
  139      C      -9.2034847836     0.9972870666     1.0814638353
  140      C      -6.0441555458    -1.1666217388    -2.6877626701
  141      C      -4.4548120052    -1.6073326111     1.3343614002
  142      C      -8.4476170449     0.5159667990     2.1919933314
  143      C      -3.4079376539     1.8578211011    -2.6012367556
  144      C      -6.4398811044    -0.9371140348     2.4441549535
  145      C      -2.6873922831     1.4662162676     0.9282126382
  146      C      -7.6898725177     0.6143660081    -3.1295853654
  147      C      -8.0271250595     2.7437309513     2.0710372570
  148      C      -2.9438626707    -0.6361849964    -0.1677795450
  149      C      -9.2739761608     0.9391469773    -1.3564415557
  150      C      -2.5951557631     2.1244012943    -0.3176055247
  151      C      -4.4543655758     0.4008149708     2.7995702897
  152      C      -6.1142801487     4.1006898629    -2.0490999809
  153      C      -5.3879792017     3.2090414114    -2.8967856380
  154      C      -4.2368594435     1.7886269910     2.7817411231
  155      C      -6.4279077577     0.0220234699    -3.3376725159
  156      C      -3.7634995384    -0.4179626752    -2.4147429234
  157      C      -7.4811829638     2.0431113079    -3.2534745838
  158      C      -6.2136577470    -2.3020007494    -0.7150628688
  159      C      -6.4219497001     1.4041155132     3.2104105689
  160      C      -2.8598932383     0.0213629606    -1.4326830270
  161      C      -3.3623216905     2.3182216091     1.7871405705
  162      C      -8.5356978670     0.0911633073    -2.2061096417
  163      C      -5.7835106858     3.5750475157     2.3251716939
  164      C      -9.3790732206     0.2354899656    -0.1280562669
  165      C      -7.0280820189     4.3335202678     0.6120633257
  166      C      -5.7962352480     0.1328196478     3.1188778051
  167      C      -5.4768049188     2.4122773805     3.0139315833
  168      C      -6.6742394966    -2.1233592598     0.6003912999
  169      C      -6.9427152159    -1.7494595768    -1.7449028853
  170      C      -7.4541225022     3.9456170141    -1.7272616992
  171      C      -7.7301551908     1.5803924343     2.7257840721
  172      C      -3.2206619629     3.3260278569    -0.2107383268
  173      C      -6.1138651723     2.2114486725    -3.5166600486
  174      C      -5.2418806684     4.4906384333    -1.0326447388
  175      C      -8.1855214068    -1.1153806688    -1.4924871361
  176      C      -9.0521743175     2.3522671180    -1.4163782740
 ----------------------------------------------------------------

    9   -5804.2899581209      8.32E-06 Convergence criterion met
 Total energy in the final basis set = -5804.2899581209

                    Orbital Energies (a.u.)
 --------------------------------------------------------------

 Alpha MOs
 -- Occupied --
-19.194 -19.185 -19.148 -19.143 -10.325 -10.319 -10.245 -10.241
-10.240 -10.235 -10.235 -10.234 -10.234 -10.232 -10.231 -10.227
-10.226 -10.222 -10.222 -10.221 -10.220 -10.220 -10.219 -10.219
-10.218 -10.218 -10.218 -10.218 -10.217 -10.217 -10.216 -10.216
-10.216 -10.216 -10.216 -10.216 -10.215 -10.215 -10.215 -10.215
-10.215 -10.214 -10.214 -10.214 -10.214 -10.214 -10.214 -10.214
-10.214 -10.214 -10.214 -10.214 -10.214 -10.213 -10.213 -10.213
-10.213 -10.213 -10.213 -10.213 -10.213 -10.213 -10.213 -10.212
-10.212 -10.212 -10.212 -10.212 -10.212 -10.212 -10.212 -10.212
-10.212 -10.211 -10.211 -10.211 -10.211 -10.211 -10.211 -10.211
-10.211 -10.211 -10.211 -10.211 -10.211 -10.211 -10.210 -10.210
-10.210 -10.210 -10.210 -10.210 -10.210 -10.210 -10.210 -10.210
-10.209 -10.209 -10.209 -10.209 -10.209 -10.209 -10.208 -10.208
-10.208 -10.208 -10.208 -10.208 -10.208 -10.207 -10.207 -10.207
-10.207 -10.207 -10.207 -10.206 -10.206 -10.206 -10.206 -10.206
-10.205 -10.205 -10.205 -10.205 -10.204 -10.204 -10.204 -10.204
-10.203 -10.203 -10.202 -10.202 -10.202 -10.201 -10.201 -10.200
-10.199 -10.199 -10.199 -10.199 -10.198 -10.198 -10.198 -10.197
-10.197 -10.195 -10.189 -10.187  -1.097  -1.095  -1.019  -1.015
 -0.982  -0.978  -0.967  -0.961  -0.961  -0.960  -0.958  -0.956
 -0.936  -0.931  -0.924  -0.923  -0.921  -0.921  -0.920  -0.919
 -0.918  -0.914  -0.897  -0.894  -0.886  -0.884  -0.884  -0.880
 -0.875  -0.871  -0.856  -0.854  -0.840  -0.839  -0.836  -0.835
 -0.834  -0.832  -0.821  -0.818  -0.808  -0.807  -0.796  -0.796
 -0.795  -0.792  -0.790  -0.789  -0.789  -0.786  -0.784  -0.780
 -0.769  -0.768  -0.768  -0.766  -0.764  -0.764  -0.762  -0.761
 -0.758  -0.751  -0.748  -0.743  -0.733  -0.733  -0.715  -0.713
 -0.712  -0.711  -0.709  -0.708  -0.707  -0.707  -0.706  -0.706
 -0.703  -0.703  -0.702  -0.701  -0.700  -0.698  -0.670  -0.667
 -0.658  -0.656  -0.656  -0.653  -0.646  -0.644  -0.631  -0.629
 -0.627  -0.624  -0.623  -0.622  -0.621  -0.618  -0.616  -0.614
 -0.613  -0.611  -0.610  -0.610  -0.609  -0.607  -0.607  -0.607
 -0.606  -0.602  -0.602  -0.598  -0.566  -0.566  -0.565  -0.559
 -0.558  -0.557  -0.556  -0.556  -0.555  -0.554  -0.553  -0.549
 -0.537  -0.534  -0.533  -0.527  -0.526  -0.526  -0.525  -0.522
 -0.519  -0.518  -0.516  -0.516  -0.513  -0.512  -0.511  -0.508
 -0.505  -0.504  -0.501  -0.500  -0.493  -0.489  -0.488  -0.487
 -0.485  -0.483  -0.481  -0.479  -0.479  -0.477  -0.477  -0.476
 -0.474  -0.472  -0.471  -0.468  -0.466  -0.466  -0.465  -0.463
 -0.463  -0.462  -0.462  -0.461  -0.459  -0.459  -0.458  -0.457
 -0.456  -0.456  -0.451  -0.450  -0.448  -0.446  -0.444  -0.442
 -0.440  -0.439  -0.439  -0.436  -0.436  -0.433  -0.433  -0.432
 -0.430  -0.429  -0.427  -0.425  -0.425  -0.424  -0.423  -0.422
 -0.422  -0.421  -0.419  -0.418  -0.417  -0.417  -0.416  -0.415
 -0.415  -0.414  -0.413  -0.413  -0.413  -0.412  -0.412  -0.411
 -0.408  -0.407  -0.406  -0.405  -0.403  -0.398  -0.395  -0.394
 -0.392  -0.391  -0.390  -0.387  -0.385  -0.384  -0.382  -0.379
 -0.377  -0.374  -0.374  -0.372  -0.369  -0.366  -0.365  -0.362
 -0.362  -0.360  -0.360  -0.359  -0.359  -0.358  -0.357  -0.356
 -0.355  -0.353  -0.353  -0.352  -0.351  -0.351  -0.349  -0.348
 -0.347  -0.347  -0.345  -0.345  -0.343  -0.342  -0.342  -0.341
 -0.341  -0.340  -0.338  -0.337  -0.336  -0.335  -0.335  -0.334
 -0.331  -0.330  -0.328  -0.326  -0.324  -0.323  -0.322  -0.322
 -0.308  -0.301  -0.298  -0.297  -0.286  -0.285  -0.277  -0.274
 -0.270  -0.269  -0.268  -0.267  -0.266  -0.263  -0.263  -0.261
 -0.260  -0.259  -0.257  -0.256  -0.256  -0.255  -0.254  -0.251
 -0.249  -0.244  -0.242  -0.237  -0.221  -0.220  -0.210  -0.208
 -0.205  -0.205  -0.203  -0.203  -0.197  -0.193

          Ground-State Mulliken Net Atomic Charges

     Atom                 Charge (a.u.)
  ----------------------------------------
      1 O                    -0.456109
      2 C                    -0.076021
      3 H                     0.118423
      4 H                     0.118340
      5 H                     0.120035
      6 O                    -0.475335
      7 C                     0.594037
      8 C                    -0.260875
      9 H                     0.138538
     10 H                     0.139588
     11 C                    -0.190032
     12 H                     0.122157
     13 H                     0.115244
     14 C                    -0.174500
     15 H                     0.101805
     16 H                     0.097418
     17 C                     0.013485
     18 C                     0.096520
     19 C                    -0.093032
     20 H                     0.095236
     21 C                    -0.086687
     22 H                     0.098245
     23 C                    -0.104139
     24 H                     0.089327
     25 C                    -0.083532
     26 H                     0.095954
     27 C                    -0.110384
     28 H                     0.090688
     29 C                    -0.005710
     30 C                     0.015508
     31 C                    -0.026005
     32 C                    -0.027794
     33 C                     0.009258
     34 C                     0.006377
     35 C                     0.027957
     36 C                    -0.025003
     37 C                     0.005007
     38 C                    -0.001162
     39 C                    -0.078445
     40 C                    -0.016209
     41 C                    -0.043139
     42 C                    -0.037073
     43 C                     0.011479
     44 C                    -0.012348
     45 C                    -0.103863
     46 C                     0.045863
     47 C                    -0.006067
     48 C                    -0.027963
     49 C                     0.041354
     50 C                    -0.001777
     51 C                    -0.007199
     52 C                     0.013401
     53 C                     0.027084
     54 C                     0.016951
     55 C                     0.021790
     56 C                    -0.024079
     57 C                    -0.017689
     58 C                     0.007617
     59 C                     0.000838
     60 C                     0.037735
     61 C                    -0.012628
     62 C                     0.030107
     63 C                    -0.000439
     64 C                     0.002771
     65 C                    -0.006510
     66 C                     0.021662
     67 C                    -0.012905
     68 C                     0.008178
     69 C                     0.103134
     70 C                     0.047503
     71 C                    -0.011037
     72 C                    -0.039209
     73 C                    -0.010175
     74 C                    -0.005143
     75 C                     0.003369
     76 C                    -0.017086
     77 C                    -0.004364
     78 C                    -0.026597
     79 C                     0.008863
     80 C                    -0.025551
     81 C                     0.002412
     82 C                    -0.001402
     83 C                     0.027083
     84 C                    -0.008210
     85 C                    -0.043297
     86 C                     0.018669
     87 C                     0.005160
     88 C                    -0.021792
     89 O                    -0.461292
     90 C                    -0.080579
     91 H                     0.123837
     92 H                     0.125278
     93 H                     0.122297
     94 O                    -0.460610
     95 C                     0.576982
     96 C                    -0.251110
     97 H                     0.121654
     98 H                     0.131994
     99 C                    -0.180782
    100 H                     0.113356
    101 H                     0.123696
    102 C                    -0.203588
    103 H                     0.128903
    104 H                     0.115288
    105 C                     0.026630
    106 C                     0.092567
    107 C                    -0.116991
    108 H                     0.098078
    109 C                    -0.086292
    110 H                     0.091594
    111 C                    -0.079956
    112 H                     0.090692
    113 C                    -0.096909
    114 H                     0.094834
    115 C                    -0.102947
    116 H                     0.090887
    117 C                     0.004739
    118 C                    -0.001620
    119 C                    -0.011513
    120 C                    -0.004257
    121 C                    -0.014755
    122 C                    -0.011510
    123 C                    -0.001368
    124 C                     0.014331
    125 C                    -0.014227
    126 C                    -0.013482
    127 C                    -0.110143
    128 C                     0.009382
    129 C                     0.005169
    130 C                    -0.025523
    131 C                     0.030333
    132 C                     0.026083
    133 C                    -0.101081
    134 C                     0.056347
    135 C                    -0.011142
    136 C                     0.009342
    137 C                    -0.017191
    138 C                    -0.006836
    139 C                    -0.007437
    140 C                    -0.015637
    141 C                     0.053894
    142 C                    -0.018779
    143 C                    -0.009013
    144 C                    -0.008510
    145 C                     0.016572
    146 C                    -0.005274
    147 C                     0.003421
    148 C                     0.053436
    149 C                    -0.006964
    150 C                     0.015905
    151 C                    -0.008625
    152 C                     0.000709
    153 C                     0.032132
    154 C                    -0.004225
    155 C                     0.001020
    156 C                    -0.004864
    157 C                    -0.014757
    158 C                     0.032700
    159 C                     0.002953
    160 C                    -0.024115
    161 C                    -0.010268
    162 C                     0.006655
    163 C                    -0.003050
    164 C                    -0.011750
    165 C                     0.026143
    166 C                    -0.025130
    167 C                     0.013372
    168 C                     0.010630
    169 C                    -0.015176
    170 C                    -0.006157
    171 C                     0.009695
    172 C                     0.007726
    173 C                    -0.007053
    174 C                    -0.023298
    175 C                    -0.011464
    176 C                     0.002341
  ----------------------------------------
  Sum of atomic charges =     0.000000

                    Cartesian Multipole Moments
 -----------------------------------------------------------------
    Charge (ESU x 10^10)
                 0.0000
    Dipole Moment (Debye)
         X       3.0466      Y      -5.3139      Z      -3.1971
       Tot       6.9095
    Quadrupole Moments (Debye-Ang)
        XX    -787.2198     XY      -2.9377     YY    -782.5069
        XZ     -22.0318     YZ       0.9887     ZZ    -792.3638

 Total job time:  850.66s(wall), 7220.76s(cpu)
        *  Thank you very much for using Q-Chem.  Have a nice day.  *
