 Q-Chem 4.4, Q-Chem, Inc., Pleasanton, CA (2016)
 Q-Chem 4.4.2 for Intel X86 Linux

User input:
--------------------------------------------------------------
$comment
SP
$end

$rem
MEM_STATIC 5000
MEM_TOTAL 20000
JOBTYPE SP
EXCHANGE B3LYP
BASIS 6-31g(d,p)
$end

$molecule
0 1
O          -7.800000      4.742000    -15.651000
C          -7.019000      5.737000    -16.234000
H          -7.558000      6.192000    -17.074000
H          -6.065000      5.335000    -16.596000
H          -6.794000      6.440000    -15.422000
O          -6.098000      4.097000    -14.254000
C          -7.239000      3.986000    -14.637000
C          -8.163000      2.918000    -14.117000
H          -7.507000      2.088000    -13.826000
H          -8.771000      2.619000    -14.980000
C          -8.920000      3.498000    -12.915000
H          -9.270000      4.523000    -13.086000
H          -9.851000      2.948000    -12.729000
C          -8.029000      3.460000    -11.640000
H          -7.860000      2.389000    -11.472000
H          -7.022000      3.890000    -11.710000
C          -8.631000      4.009000    -10.381000
C          -8.603000      5.483000    -10.314000
C          -9.764000      6.244000    -10.586000
H         -10.630000      5.753000    -11.022000
C          -9.700000      7.665000    -10.446000
H         -10.616000      8.225000    -10.610000
C          -8.556000      8.356000    -10.059000
H          -8.518000      9.418000     -9.837000
C          -7.522000      7.544000     -9.579000
H          -6.736000      8.064000     -9.040000
C          -7.494000      6.146000     -9.773000
H          -6.666000      5.558000     -9.387000
C          -9.114000      4.079000     -5.027000
C         -11.375000      4.555000     -5.843000
C         -13.245000      0.632000     -4.664000
C          -7.503000     -0.189000     -7.163000
C         -13.086000     -0.637000     -7.911000
C          -9.991000      4.694000     -5.950000
C          -9.695000     -1.894000     -7.595000
C         -11.656000      1.959000     -3.463000
C         -12.094000      2.904000     -9.378000
C          -8.069000     -0.354000     -8.499000
C          -9.817000      3.214000     -9.777000
C         -11.633000      1.697000     -9.906000
C         -10.039000     -0.569000     -9.650000
C         -11.027000     -1.971000     -7.442000
C         -10.907000      4.463000     -7.992000
C         -12.482000     -1.287000     -5.673000
C          -8.506000      3.286000     -9.072000
C          -7.792000      2.058000     -8.770000
C         -13.374000     -0.652000     -6.556000
C          -8.922000     -0.221000     -4.083000
C         -11.179000     -0.395000     -3.875000
C         -10.800000      0.847000     -3.335000
C         -11.092000      3.240000     -3.794000
C          -7.333000      2.126000     -7.443000
C         -11.006000      3.764000     -9.214000
C         -11.928000      3.876000     -4.719000
C          -9.206000     -1.150000     -8.698000
C         -11.965000      4.476000     -7.086000
C         -12.196000      0.536000     -9.501000
C          -7.313000      1.003000     -5.253000
C         -12.818000      1.929000     -4.213000
C         -10.307000      1.771000    -10.140000
C          -8.829000      2.177000     -3.737000
C         -11.428000     -0.650000     -9.462000
C         -13.114000      2.919000     -8.434000
C         -10.126000     -1.927000     -5.409000
C          -9.094000     -1.803000     -6.368000
C         -13.753000      1.701000     -8.134000
C          -7.165000      1.032000     -6.623000
C          -8.292000      0.833000     -9.286000
C          -7.845000     -0.215000     -4.943000
C          -8.575000      4.017000     -7.760000
C         -13.644000      2.958000     -6.236000
C          -9.475000      0.641000    -10.016000
C         -13.243000      0.486000     -8.649000
C          -7.860000      2.206000     -4.691000
C         -13.785000      0.521000     -5.963000
C          -9.650000      3.315000     -3.970000
C         -12.455000     -0.526000     -4.507000
C         -13.127000      3.692000     -7.300000
C         -13.977000      1.698000     -6.759000
C          -9.715000      4.634000     -7.313000
C          -7.715000      3.306000     -6.856000
C         -10.026000     -1.092000     -4.297000
C         -13.047000      3.067000     -5.004000
C         -11.944000     -1.345000     -8.375000
C          -8.003000     -0.953000     -6.161000
C         -11.380000     -2.042000     -6.096000
C          -8.014000      3.396000     -5.469000
C          -9.398000      0.941000     -3.470000
O         -13.794000     -1.967000      6.397000
C         -14.869000     -1.507000      7.184000
H         -14.439000     -0.964000      8.034000
H         -15.519000     -2.337000      7.488000
H         -15.495000     -0.837000      6.583000
O         -15.126000     -2.628000      4.627000
C         -14.021000     -2.369000      5.085000
C         -12.717000     -2.557000      4.316000
H         -11.935000     -2.027000      4.873000
H         -12.997000     -1.939000      3.454000
C         -12.219000     -3.992000      4.118000
H         -11.189000     -3.976000      3.739000
H         -12.299000     -4.442000      5.115000
C         -13.097000     -4.803000      3.134000
H         -14.153000     -4.824000      3.432000
H         -13.235000     -4.141000      2.270000
C         -12.465000     -6.210000      2.856000
C         -12.270000     -7.107000      4.062000
C         -13.432000     -7.731000      4.624000
H         -14.458000     -7.508000      4.347000
C         -13.318000     -8.585000      5.750000
H         -14.192000     -9.099000      6.139000
C         -12.098000     -8.760000      6.378000
H         -12.052000     -9.424000      7.236000
C         -10.936000     -8.185000      5.789000
H          -9.986000     -8.388000      6.274000
C         -11.062000     -7.381000      4.666000
H         -10.165000     -6.977000      4.206000
C          -8.608000     -8.927000      0.058000
C         -10.566000    -10.338000     -0.120000
C         -11.448000     -9.462000     -4.495000
C          -9.739000     -4.176000     -1.501000
C         -13.915000     -7.092000     -3.861000
C          -9.769000     -9.470000      0.633000
C         -11.679000     -4.280000     -3.447000
C          -9.367000     -9.831000     -3.299000
C         -13.919000     -8.151000      0.088000
C         -11.109000     -3.895000     -1.164000
C         -12.747000     -6.683000      1.473000
C         -14.234000     -6.836000     -0.376000
C         -13.228000     -4.500000     -1.634000
C         -12.477000     -5.188000     -4.214000
C         -11.918000     -8.973000      1.162000
C         -11.893000     -7.398000     -5.124000
C         -11.353000     -6.207000      1.807000
C         -10.885000     -5.102000      0.969000
C         -13.056000     -7.913000     -4.633000
C          -8.288000     -6.522000     -3.687000
C          -9.588000     -7.979000     -4.861000
C          -8.805000     -8.705000     -3.941000
C          -9.005000    -10.109000     -1.994000
C          -9.540000     -5.418000      0.571000
C         -12.942000     -8.067000      1.125000
C         -10.182000    -10.703000     -1.448000
C         -12.092000     -3.917000     -2.138000
C         -11.891000     -9.989000      0.218000
C         -14.504000     -6.589000     -1.723000
C          -8.069000     -5.760000     -1.377000
C         -10.673000    -10.223000     -3.612000
C         -13.531000     -5.936000      0.354000
C          -7.673000     -8.067000     -1.906000
C         -13.993000     -5.430000     -2.347000
C         -13.881000     -9.174000     -0.893000
C         -10.277000     -5.621000     -4.680000
C         -10.375000     -4.587000     -3.699000
C         -14.179000     -8.947000     -2.247000
C          -8.981000     -4.975000     -0.643000
C         -11.686000     -4.423000      0.080000
C          -8.308000     -5.444000     -2.771000
C         -10.321000     -7.272000      1.649000
C         -12.511000    -10.466000     -2.118000
C         -13.003000     -4.765000     -0.270000
C         -14.452000     -7.609000     -2.659000
C          -7.784000     -7.022000     -0.967000
C         -12.785000     -9.225000     -4.189000
C          -8.160000     -9.221000     -1.238000
C         -10.904000     -8.348000     -5.056000
C         -12.883000    -10.157000     -0.783000
C         -13.301000     -9.739000     -3.010000
C         -10.629000     -8.620000      1.399000
C          -9.215000     -6.728000      1.034000
C          -9.292000     -6.597000     -4.682000
C         -11.163000    -10.713000     -2.433000
C         -13.623000     -5.757000     -3.613000
C          -9.348000     -4.503000     -2.780000
C         -11.581000     -6.012000     -4.985000
C          -8.346000     -7.538000      0.260000
C          -7.955000     -7.800000     -3.284000
$end

--------------------------------------------------------------

             Standard Nuclear Orientation (Angstroms)
    I     Atom           X                Y                Z
 ----------------------------------------------------------------
    1      O     -13.4148456387    -3.3816824795     0.0935981212
    2      C     -14.6436928433    -3.2724598694    -0.5528382401
    3      H     -15.4590026028    -3.3568717422     0.1760586194
    4      H     -14.7637238851    -4.0504705113    -1.3164192706
    5      H     -14.6128388676    -2.3048898298    -1.0695918088
    6      O     -12.2664244116    -3.3796203076    -1.8927458653
    7      C     -12.2707431691    -3.4014694604    -0.6842778422
    8      C     -11.0112124219    -3.5649454910     0.1229754541
    9      H     -10.3304347536    -4.1364936171    -0.5202908250
   10      H     -11.3005297527    -4.1777289594     0.9858925434
   11      C     -10.4668394694    -2.1638117432     0.4307664697
   12      H     -11.2508341821    -1.4585145805     0.7312231268
   13      H      -9.8019847074    -2.1789406180     1.3034612976
   14      C      -9.7004662539    -1.5949493511    -0.7980612942
   15      H      -8.8572064060    -2.2858792246    -0.9219755350
   16      H     -10.2127319475    -1.6089127038    -1.7682354456
   17      C      -9.1196245119    -0.2200939904    -0.6521791227
   18      C     -10.1155454302     0.8560784781    -0.8193417454
   19      C     -10.6538144761     1.5275161307     0.3033620948
   20      H     -10.4712468837     1.1287429181     1.2977372751
   21      C     -11.5676712140     2.6044526035     0.0842486627
   22      H     -11.9288906544     3.1388649671     0.9580197663
   23      C     -11.9694249156     3.0372624360    -1.1756146680
   24      H     -12.5696275977     3.9217127793    -1.3655523699
   25      C     -11.2310217877     2.5004295708    -2.2364969874
   26      H     -11.3499465696     3.0087424704    -3.1884381055
   27      C     -10.3854369071     1.3795227310    -2.0902845863
   28      H      -9.8368292738     0.9946061425    -2.9453827587
   29      C      -5.3873206459     3.4692232028    -1.8193772633
   30      C      -5.9253516613     3.8794753184     0.5357806567
   31      C      -2.0484281136     2.3889764390     2.2749606059
   32      C      -4.1179124625    -1.3759674203    -2.3545143391
   33      C      -3.4269333093    -0.6775997677     3.2100995228
   34      C      -6.3186394664     3.5343681959    -0.7574524145
   35      C      -2.8657243619    -2.2711193217    -0.0030805139
   36      C      -2.4059636650     3.6841089800     0.2942912668
   37      C      -7.0937149749     0.5912714380     2.4230086260
   38      C      -4.8355528325    -2.2156138893    -1.3992849915
   39      C      -7.9522759781    -0.0653086096     0.3561739338
   40      C      -6.6829599120    -0.7305522868     2.2435195763
   41      C      -5.1654016122    -2.5908478013     0.8373028771
   42      C      -2.4925805197    -1.8661361222     1.2217926555
   43      C      -7.4222909742     2.2796855050     0.7491682061
   44      C      -1.5174794618     0.1681792380     2.0123500173
   45      C      -7.7249071340     0.0942938689    -1.1079846839
   46      C      -6.7655772261    -0.7664351601    -1.7771749904
   47      C      -2.4328049932     0.2776971610     3.0747826016
   48      C      -1.7374018994     1.0029723292    -1.9364232880
   49      C      -1.1099426777     1.6248918384     0.1581172462
   50      C      -1.6714078790     2.7528733638    -0.4665582744
   51      C      -3.6271085407     4.2187656710    -0.2456767095
   52      C      -5.9687528583     0.0277239976    -2.6201555116
   53      C      -7.7597875893     1.0122062097     1.2700120126
   54      C      -4.5811551220     4.2863631244     0.7762052333
   55      C      -4.2309181768    -2.6011386926    -0.1943893283
   56      C      -6.6353579794     3.1679291860     1.4786396757
   57      C      -5.4952641708    -1.1323174592     2.7503514739
   58      C      -3.6660652254     0.6657715249    -3.2102012877
   59      C      -2.7178727424     3.4844763228     1.6271466714
   60      C      -7.1090740433    -1.1891333266     1.0490999780
   61      C      -3.2012458440     2.8963350021    -2.3251490199
   62      C      -4.7561077084    -2.1503796642     2.1060393827
   63      C      -6.2879773320     1.4955946293     3.1047324824
   64      C      -1.2610955389    -0.7452251191    -0.2525984953
   65      C      -2.1769965647    -1.5645614516    -0.9525229806
   66      C      -5.1206397456     1.0052722137     3.7201606976
   67      C      -4.6580336631    -0.2517494341    -2.9385417427
   68      C      -6.1801203595    -1.8340793198    -1.0462459885
   69      C      -2.5089250527     0.1531656366    -2.6994079596
   70      C      -7.3207974699     1.4886250633    -1.4991392564
   71      C      -4.7099024272     3.1068286684     2.9397189491
   72      C      -6.3607733826    -2.1292202379     0.3137206742
   73      C      -4.7030959554    -0.3268794904     3.4908595408
   74      C      -4.0367231328     2.0302407893    -2.9590074538
   75      C      -2.7826477339     1.6046703591     3.1898964081
   76      C      -4.0323535940     3.7676467787    -1.5678844057
   77      C      -1.2508629620     1.4620903302     1.5717643529
   78      C      -6.0455512384     2.7877744563     2.7108354351
   79      C      -4.1313603934     1.9648956276     3.5170369252
   80      C      -7.2635780639     2.5241542660    -0.6021982271
   81      C      -6.3323143371     1.3478857995    -2.5313362123
   82      C      -1.0956190934     0.5458132531    -0.7522048077
   83      C      -4.0297486154     3.8304399925     1.9910928668
   84      C      -3.4321643161    -1.7890059525     2.3238304164
   85      C      -2.8067575396    -1.1233013103    -2.1205643336
   86      C      -1.4548535535    -0.9387239673     1.1554945512
   87      C      -5.3882135054     2.4011944653    -2.6744601942
   88      C      -2.0552645785     2.3528155680    -1.7647388451
   89      O       7.5221533304     7.9544636709    -0.3387045786
   90      C       7.9147531041     9.0846054625     0.4064389971
   91      H       8.0517568329     9.9089658035    -0.3034264877
   92      H       8.8134390058     8.8735752416     0.9994363800
   93      H       7.1273447395     9.3319825348     1.1280827121
   94      O       6.9759881965     6.6868757259     1.5157412815
   95      C       6.9337544554     6.8719961836     0.3066851508
   96      C       6.3254698261     5.8838094117    -0.6835661878
   97      H       6.2125980524     6.4120543700    -1.6379718808
   98      H       5.3387446037     5.8301538817    -0.2072654218
   99      C       7.1191543726     4.6075042539    -0.9794428254
  100      H       6.6809031697     4.0927338341    -1.8441649184
  101      H       8.1385870537     4.9651971436    -1.1684449558
  102      C       7.1497933886     3.6269933665     0.2182719363
  103      H       7.5396817330     4.0921455364     1.1326031332
  104      H       6.1079903893     3.5647933607     0.5567415360
  105      C       7.8469783369     2.2818810170    -0.1829299021
  106      C       9.2817425719     2.3871376385    -0.6598393628
  107      C      10.2957971744     2.6285496801     0.3244763839
  108      H      10.1112626874     2.8808049532     1.3644034488
  109      C      11.6578931676     2.7335277566    -0.0548152042
  110      H      12.4287351086     2.8615059645     0.6993845573
  111      C      12.0204490990     2.6929399855    -1.3890995927
  112      H      13.0742257012     2.7745919379    -1.6382257282
  113      C      11.0222131216     2.3992625041    -2.3612459142
  114      H      11.3487345881     2.3179516372    -3.3935764208
  115      C       9.6993157997     2.2642140108    -1.9673860661
  116      H       8.9531187912     2.0058966318    -2.7129644700
  117      C       7.2070701979    -2.5085076580    -2.7771611786
  118      C       8.3905677914    -3.0928254690    -0.7487935733
  119      C       4.8879168197    -5.1051388386     1.3411719940
  120      C       2.9643168275     0.1258148629    -1.6191319503
  121      C       4.0525576900    -2.3527560996     3.2985961643
  122      C       8.1729296784    -2.2017036185    -1.8043396403
  123      C       2.0014727972    -0.7003562837     0.8204796192
  124      C       5.6423204908    -5.1422913997    -0.9667779163
  125      C       7.5310410602    -0.5099988933     2.1938349588
  126      C       3.2187885122     0.9142016741    -0.4430705583
  127      C       7.2682429395     1.1176086988     0.5419682347
  128      C       6.3345466882     0.1983654820     2.5260504454
  129      C       3.6585317295     0.7504327746     1.7607651094
  130      C       2.2377473187    -1.6286032049     1.8844763315
  131      C       8.5327758428    -0.9251234812     0.0357432087
  132      C       3.0707098742    -3.9415365110     1.7856385737
  133      C       6.9412032996     1.2966278170    -0.9217138446
  134      C       5.5085480054     1.4006451547    -1.2027337753
  135      C       3.9590574244    -3.6695068122     2.7834930084
  136      C       2.8715045125    -3.3532003931    -2.1440621575
  137      C       3.2930200350    -4.8002306445    -0.4353921730
  138      C       4.3154515610    -4.9203094640    -1.3980862322
  139      C       6.6830479786    -4.5804878648    -1.6827500417
  140      C       5.2405131721     0.5543185800    -2.3337393708
  141      C       8.0330934347    -0.0342718179     0.9454034776
  142      C       7.6673098962    -4.3243588420    -0.6817967955
  143      C       2.7176320837     0.5251271293     0.7869344144
  144      C       8.5906562486    -2.2679426449     0.3786827838
  145      C       5.2718696358    -0.4376349513     3.1698974236
  146      C       3.8982145146    -1.3603949978    -3.1132361501
  147      C       5.9106709197    -5.2720063511     0.4001277420
  148      C       6.0935017965     1.1223186372     1.5641164939
  149      C       5.0931514218    -3.4413239399    -3.1409223536
  150      C       3.9423784618    -0.1668286189     2.7788793312
  151      C       7.5664907772    -1.8849757419     2.5380964630
  152      C       1.8682709787    -2.8324827205    -0.0283243235
  153      C       1.8346743787    -1.4335748584    -0.3165066645
  154      C       6.5175309561    -2.5321268521     3.2122831836
  155      C       3.9992479511    -0.0796654481    -2.5333662809
  156      C       4.5435353724     1.5127420725    -0.2284915574
  157      C       2.7494794279    -1.9868865759    -2.4902361475
  158      C       7.4166363698     0.1636270487    -1.7669863774
  159      C       7.4094434803    -3.9686672805     1.7132602862
  160      C       4.7528423947     1.3970082057     1.1559755757
  161      C       5.3341022431    -1.7847695566     3.4870022293
  162      C       5.0248306395    -2.0586852607    -3.4049480217
  163      C       5.1466404314    -4.3770067249     2.4988678598
  164      C       6.4457258217    -3.6862279376    -2.7864177347
  165      C       3.6284183665    -4.8336719219     0.9034250812
  166      C       8.1750528308    -2.7752832537     1.6373202637
  167      C       6.4068002789    -3.8276412757     2.6740470871
  168      C       8.2420206239    -0.8681592661    -1.2888380387
  169      C       6.4311956723    -0.1538694258    -2.6755564739
  170      C       2.3964935229    -3.7877688804    -0.8834350161
  171      C       7.1497740285    -4.7127182526     0.5486582398
  172      C       3.2375020081    -1.3271390480     2.8373078608
  173      C       2.2470866761    -1.0486775436    -1.5767114709
  174      C       2.1411324497    -2.9567869746     1.3341796472
  175      C       6.3269672402    -1.4668667524    -3.2004483241
  176      C       3.9968642811    -4.0803033102    -2.4779315020
 ----------------------------------------------------------------

    9   -5804.2452294335      8.38E-06 Convergence criterion met
 Total energy in the final basis set = -5804.2452294335

                    Orbital Energies (a.u.)
 --------------------------------------------------------------

 Alpha MOs
 -- Occupied --
-19.190 -19.190 -19.143 -19.139 -10.321 -10.315 -10.242 -10.241
-10.239 -10.234 -10.234 -10.233 -10.231 -10.231 -10.226 -10.223
-10.223 -10.222 -10.220 -10.220 -10.219 -10.219 -10.219 -10.218
-10.218 -10.218 -10.218 -10.217 -10.217 -10.216 -10.216 -10.216
-10.216 -10.216 -10.216 -10.216 -10.216 -10.215 -10.215 -10.215
-10.215 -10.215 -10.215 -10.215 -10.214 -10.214 -10.214 -10.214
-10.214 -10.214 -10.214 -10.214 -10.214 -10.213 -10.213 -10.213
-10.213 -10.213 -10.213 -10.213 -10.213 -10.213 -10.212 -10.212
-10.212 -10.212 -10.212 -10.212 -10.212 -10.212 -10.212 -10.211
-10.211 -10.211 -10.211 -10.211 -10.211 -10.211 -10.211 -10.211
-10.211 -10.211 -10.211 -10.210 -10.210 -10.210 -10.210 -10.210
-10.210 -10.210 -10.210 -10.210 -10.210 -10.209 -10.209 -10.209
-10.209 -10.209 -10.209 -10.209 -10.209 -10.209 -10.208 -10.208
-10.208 -10.208 -10.208 -10.208 -10.207 -10.207 -10.207 -10.207
-10.207 -10.207 -10.207 -10.207 -10.207 -10.206 -10.206 -10.206
-10.206 -10.205 -10.205 -10.205 -10.204 -10.204 -10.204 -10.204
-10.204 -10.203 -10.203 -10.203 -10.203 -10.203 -10.202 -10.202
-10.201 -10.201 -10.200 -10.200 -10.199 -10.199 -10.199 -10.198
-10.198 -10.197 -10.197 -10.197  -1.099  -1.090  -1.020  -1.014
 -0.986  -0.982  -0.969  -0.967  -0.967  -0.963  -0.961  -0.958
 -0.936  -0.936  -0.931  -0.929  -0.924  -0.924  -0.923  -0.921
 -0.920  -0.919  -0.899  -0.897  -0.895  -0.888  -0.886  -0.884
 -0.878  -0.871  -0.854  -0.853  -0.842  -0.841  -0.840  -0.836
 -0.835  -0.835  -0.823  -0.820  -0.810  -0.806  -0.800  -0.799
 -0.796  -0.795  -0.794  -0.792  -0.790  -0.789  -0.786  -0.784
 -0.773  -0.771  -0.768  -0.768  -0.766  -0.765  -0.763  -0.761
 -0.750  -0.745  -0.743  -0.742  -0.733  -0.730  -0.717  -0.716
 -0.715  -0.715  -0.714  -0.713  -0.711  -0.709  -0.708  -0.707
 -0.706  -0.705  -0.704  -0.702  -0.702  -0.699  -0.672  -0.669
 -0.660  -0.658  -0.657  -0.656  -0.648  -0.646  -0.632  -0.630
 -0.628  -0.626  -0.625  -0.624  -0.622  -0.620  -0.617  -0.617
 -0.616  -0.613  -0.612  -0.611  -0.611  -0.610  -0.609  -0.608
 -0.607  -0.606  -0.603  -0.602  -0.566  -0.565  -0.565  -0.562
 -0.561  -0.558  -0.558  -0.556  -0.556  -0.555  -0.554  -0.553
 -0.534  -0.534  -0.533  -0.530  -0.527  -0.527  -0.526  -0.524
 -0.524  -0.521  -0.519  -0.517  -0.516  -0.514  -0.513  -0.512
 -0.506  -0.504  -0.504  -0.498  -0.493  -0.488  -0.487  -0.486
 -0.484  -0.483  -0.482  -0.482  -0.479  -0.479  -0.477  -0.475
 -0.474  -0.473  -0.471  -0.471  -0.470  -0.467  -0.466  -0.465
 -0.465  -0.463  -0.463  -0.461  -0.460  -0.460  -0.458  -0.457
 -0.456  -0.454  -0.451  -0.450  -0.450  -0.448  -0.444  -0.444
 -0.441  -0.439  -0.439  -0.438  -0.437  -0.436  -0.433  -0.431
 -0.430  -0.429  -0.429  -0.426  -0.426  -0.424  -0.424  -0.423
 -0.422  -0.422  -0.421  -0.420  -0.420  -0.419  -0.417  -0.417
 -0.416  -0.415  -0.415  -0.414  -0.414  -0.414  -0.412  -0.412
 -0.411  -0.410  -0.409  -0.406  -0.398  -0.397  -0.395  -0.394
 -0.393  -0.391  -0.390  -0.389  -0.388  -0.386  -0.385  -0.385
 -0.379  -0.377  -0.373  -0.373  -0.370  -0.368  -0.367  -0.366
 -0.365  -0.364  -0.363  -0.362  -0.361  -0.360  -0.359  -0.358
 -0.356  -0.356  -0.355  -0.353  -0.352  -0.352  -0.351  -0.349
 -0.347  -0.347  -0.347  -0.346  -0.346  -0.344  -0.344  -0.343
 -0.342  -0.342  -0.341  -0.340  -0.337  -0.337  -0.336  -0.335
 -0.331  -0.331  -0.330  -0.327  -0.327  -0.326  -0.322  -0.322
 -0.308  -0.304  -0.297  -0.297  -0.286  -0.285  -0.272  -0.272
 -0.270  -0.269  -0.269  -0.268  -0.266  -0.264  -0.263  -0.263
 -0.262  -0.259  -0.258  -0.257  -0.257  -0.256  -0.253  -0.250
 -0.249  -0.249  -0.241  -0.241  -0.221  -0.217  -0.213  -0.209
 -0.207  -0.206  -0.204  -0.203  -0.198  -0.197

          Ground-State Mulliken Net Atomic Charges

     Atom                 Charge (a.u.)
  ----------------------------------------
      1 O                    -0.463358
      2 C                    -0.079021
      3 H                     0.119607
      4 H                     0.123061
      5 H                     0.121180
      6 O                    -0.459920
      7 C                     0.591771
      8 C                    -0.240871
      9 H                     0.136663
     10 H                     0.123859
     11 C                    -0.202322
     12 H                     0.117463
     13 H                     0.109299
     14 C                    -0.179517
     15 H                     0.102567
     16 H                     0.133803
     17 C                     0.015732
     18 C                     0.081574
     19 C                    -0.099161
     20 H                     0.093855
     21 C                    -0.107282
     22 H                     0.086403
     23 C                    -0.071773
     24 H                     0.096016
     25 C                    -0.097099
     26 H                     0.089150
     27 C                    -0.095869
     28 H                     0.093166
     29 C                     0.013727
     30 C                     0.001314
     31 C                    -0.019506
     32 C                    -0.005712
     33 C                    -0.005367
     34 C                    -0.017818
     35 C                     0.019710
     36 C                    -0.006764
     37 C                    -0.025056
     38 C                    -0.039003
     39 C                    -0.086677
     40 C                     0.036385
     41 C                    -0.005583
     42 C                     0.003632
     43 C                     0.025795
     44 C                     0.025636
     45 C                    -0.100479
     46 C                     0.050267
     47 C                    -0.010362
     48 C                     0.025480
     49 C                    -0.013335
     50 C                     0.016640
     51 C                    -0.022574
     52 C                     0.025177
     53 C                     0.015887
     54 C                    -0.010163
     55 C                     0.013485
     56 C                    -0.005594
     57 C                     0.012078
     58 C                    -0.000213
     59 C                     0.003871
     60 C                     0.026024
     61 C                    -0.012743
     62 C                    -0.035852
     63 C                     0.027156
     64 C                    -0.035866
     65 C                     0.010765
     66 C                    -0.047055
     67 C                     0.016580
     68 C                    -0.013434
     69 C                    -0.035153
     70 C                     0.024504
     71 C                     0.003376
     72 C                    -0.018779
     73 C                     0.033424
     74 C                     0.000621
     75 C                     0.007880
     76 C                    -0.012283
     77 C                    -0.011155
     78 C                    -0.023408
     79 C                     0.008980
     80 C                     0.027261
     81 C                    -0.026202
     82 C                     0.007004
     83 C                     0.024442
     84 C                    -0.003771
     85 C                     0.008254
     86 C                    -0.008589
     87 C                    -0.002355
     88 C                     0.005453
     89 O                    -0.462118
     90 C                    -0.079486
     91 H                     0.122658
     92 H                     0.123695
     93 H                     0.122368
     94 O                    -0.463314
     95 C                     0.575539
     96 C                    -0.250664
     97 H                     0.120675
     98 H                     0.131846
     99 C                    -0.180270
    100 H                     0.112277
    101 H                     0.123517
    102 C                    -0.200126
    103 H                     0.129566
    104 H                     0.115480
    105 C                     0.026290
    106 C                     0.092281
    107 C                    -0.114975
    108 H                     0.096686
    109 C                    -0.086588
    110 H                     0.091060
    111 C                    -0.079860
    112 H                     0.090659
    113 C                    -0.096640
    114 H                     0.094992
    115 C                    -0.103046
    116 H                     0.091216
    117 C                     0.005735
    118 C                    -0.001213
    119 C                    -0.010800
    120 C                    -0.005620
    121 C                    -0.015605
    122 C                    -0.011545
    123 C                     0.005180
    124 C                     0.015449
    125 C                    -0.009754
    126 C                    -0.014010
    127 C                    -0.108893
    128 C                     0.004134
    129 C                     0.000513
    130 C                    -0.023372
    131 C                     0.029864
    132 C                     0.024823
    133 C                    -0.099254
    134 C                     0.056975
    135 C                    -0.010790
    136 C                     0.009441
    137 C                    -0.016874
    138 C                    -0.008009
    139 C                    -0.007771
    140 C                    -0.014924
    141 C                     0.054728
    142 C                    -0.019213
    143 C                    -0.006695
    144 C                    -0.009354
    145 C                     0.007178
    146 C                    -0.004298
    147 C                     0.003257
    148 C                     0.047848
    149 C                    -0.006592
    150 C                     0.005615
    151 C                    -0.008095
    152 C                     0.002695
    153 C                     0.032017
    154 C                    -0.004447
    155 C                     0.000392
    156 C                    -0.000432
    157 C                    -0.014751
    158 C                     0.031093
    159 C                     0.002134
    160 C                    -0.026742
    161 C                    -0.005449
    162 C                     0.006046
    163 C                    -0.003574
    164 C                    -0.012084
    165 C                     0.026502
    166 C                    -0.025334
    167 C                     0.013483
    168 C                     0.010804
    169 C                    -0.015539
    170 C                    -0.005921
    171 C                     0.010048
    172 C                     0.016375
    173 C                    -0.005877
    174 C                    -0.023970
    175 C                    -0.010953
    176 C                     0.002772
  ----------------------------------------
  Sum of atomic charges =     0.000000

                    Cartesian Multipole Moments
 -----------------------------------------------------------------
    Charge (ESU x 10^10)
                 0.0000
    Dipole Moment (Debye)
         X      -1.0702      Y       3.3170      Z      -0.2404
       Tot       3.4937
    Quadrupole Moments (Debye-Ang)
        XX    -720.3403     XY      21.5986     YY    -788.2970
        XZ     -21.9869     YZ     -14.7585     ZZ    -813.7614

 Total job time:  837.08s(wall), 7113.79s(cpu)
        *  Thank you very much for using Q-Chem.  Have a nice day.  *
