 Q-Chem 4.4, Q-Chem, Inc., Pleasanton, CA (2016)
 Q-Chem 4.4.2 for Intel X86 Linux

User input:
--------------------------------------------------------------
$comment
SP
$end

$rem
MEM_STATIC 5000
MEM_TOTAL 20000
JOBTYPE SP
EXCHANGE B3LYP
BASIS 6-31g(d,p)
$end

$molecule
0 1
O           7.995000    -10.396000     -2.676000
C           8.407000     -9.915000     -3.952000
H           9.037000    -10.604000     -4.527000
H           9.018000     -9.013000     -3.826000
H           7.495000     -9.707000     -4.526000
O           7.034000     -8.445000     -1.837000
C           7.323000     -9.674000     -1.726000
C           6.877000    -10.573000     -0.616000
H           7.814000    -10.950000     -0.188000
H           6.451000    -11.475000     -1.072000
C           6.077000     -9.901000      0.500000
H           6.477000     -8.894000      0.677000
H           5.039000     -9.766000      0.172000
C           6.214000    -10.786000      1.738000
H           5.976000    -11.801000      1.397000
H           7.270000    -10.926000      1.999000
C           5.435000    -10.339000      2.896000
C           5.824000     -9.004000      3.489000
C           5.113000     -7.853000      3.125000
H           4.293000     -7.959000      2.420000
C           5.503000     -6.547000      3.487000
H           5.075000     -5.620000      3.117000
C           6.530000     -6.413000      4.365000
H           6.750000     -5.450000      4.817000
C           7.192000     -7.587000      4.853000
H           7.966000     -7.503000      5.610000
C           6.893000     -8.852000      4.345000
H           7.445000     -9.696000      4.748000
C           3.804000    -12.107000      7.864000
C           2.032000    -10.533000      7.140000
C          -1.158000    -13.798000      6.423000
C           4.639000    -15.715000      4.254000
C          -0.554000    -13.786000      3.021000
C           3.409000    -10.885000      7.210000
C           2.138000    -16.195000      3.022000
C           0.483000    -13.590000      8.243000
C           1.699000    -10.493000      3.139000
C           4.340000    -15.094000      3.029000
C           4.015000    -10.847000      3.103000
C           1.916000    -11.539000      2.161000
C           2.691000    -14.141000      1.822000
C           0.805000    -15.784000      3.038000
C           2.969000    -10.034000      5.163000
C          -0.762000    -15.350000      4.841000
C           5.077000    -11.507000      3.903000
C           5.373000    -13.001000      3.795000
C          -1.153000    -14.168000      4.195000
C           2.486000    -16.251000      6.984000
C           0.302000    -15.749000      6.983000
C           0.884000    -14.969000      8.012000
C           1.486000    -12.615000      8.376000
C           5.514000    -13.569000      5.028000
C           2.903000    -10.156000      3.732000
C           1.083000    -11.381000      7.761000
C           3.125000    -15.320000      2.406000
C           1.782000    -10.004000      5.907000
C           0.935000    -12.461000      1.829000
C           4.675000    -15.278000      6.499000
C          -0.513000    -13.023000      7.376000
C           3.296000    -11.766000      2.150000
C           3.234000    -14.287000      8.183000
C           1.304000    -13.808000      1.652000
C           0.495000    -10.486000      3.907000
C           1.222000    -16.751000      4.977000
C           2.457000    -16.739000      4.231000
C          -0.493000    -11.490000      3.663000
C           5.252000    -14.958000      5.239000
C           4.721000    -13.758000      2.750000
C           3.701000    -16.320000      6.243000
C           4.945000    -11.348000      5.355000
C          -0.424000    -11.056000      5.942000
C           3.650000    -13.135000      2.008000
C          -0.205000    -12.466000      2.674000
C           4.436000    -14.279000      7.460000
C          -1.427000    -13.234000      5.173000
C           2.851000    -12.944000      8.463000
C          -0.784000    -15.176000      6.239000
C           0.506000    -10.155000      5.313000
C          -1.030000    -11.883000      4.929000
C           3.965000    -10.568000      5.973000
C           5.299000    -12.580000      6.020000
C           1.240000    -16.556000      6.375000
C          -0.165000    -11.670000      7.137000
C           0.384000    -14.589000      2.406000
C           3.681000    -16.547000      4.844000
C           0.231000    -16.119000      4.246000
C           4.718000    -12.958000      7.227000
C           2.265000    -15.260000      7.937000
O          -4.759000     -8.465000      7.119000
C          -5.977000     -8.608000      7.826000
H          -6.387000     -9.623000      7.759000
H          -6.640000     -7.820000      7.450000
H          -5.832000     -8.419000      8.897000
O          -4.015000     -6.627000      8.252000
C          -3.811000     -7.548000      7.476000
C          -2.433000     -7.831000      6.875000
H          -2.530000     -8.216000      5.852000
H          -2.026000     -8.693000      7.418000
C          -1.411000     -6.676000      6.801000
H          -1.838000     -5.869000      6.194000
H          -1.392000     -6.240000      7.808000
C           0.016000     -7.128000      6.350000
H           0.229000     -7.925000      7.073000
H           0.006000     -7.561000      5.342000
C           1.200000     -6.123000      6.349000
C           1.344000     -5.592000      4.943000
C           0.651000     -4.403000      4.609000
H           0.135000     -3.866000      5.400000
C           0.676000     -3.864000      3.282000
H           0.106000     -2.966000      3.064000
C           1.395000     -4.547000      2.266000
H           1.453000     -4.186000      1.243000
C           2.176000     -5.682000      2.640000
H           2.728000     -6.174000      1.844000
C           2.128000     -6.226000      3.957000
H           2.561000     -7.215000      4.073000
C           6.521000     -6.003000      7.858000
C           6.019000     -3.663000      7.772000
C           6.125000     -3.092000     12.202000
C           3.285000     -8.481000     10.758000
C           2.644000     -3.215000     12.636000
C           5.852000     -4.947000      7.252000
C           2.461000     -6.908000     12.902000
C           7.629000     -4.405000     10.805000
C           2.164000     -3.054000      8.621000
C           2.019000     -7.876000     10.698000
C           1.706000     -5.247000      7.556000
C           1.295000     -3.780000      9.463000
C           1.025000     -5.963000     11.107000
C           2.614000     -5.552000     13.370000
C           3.825000     -3.933000      7.153000
C           4.666000     -4.138000     13.551000
C           2.447000     -6.521000      7.220000
C           2.404000     -7.538000      8.328000
C           3.980000     -3.039000     13.028000
C           6.453000     -7.457000     12.050000
C           6.624000     -5.397000     12.812000
C           7.461000     -5.474000     11.713000
C           7.659000     -4.548000      9.446000
C           3.676000     -8.043000      8.462000
C           2.497000     -3.948000      7.558000
C           6.947000     -3.453000      8.847000
C           1.611000     -7.085000     11.743000
C           4.760000     -3.022000      7.690000
C           1.303000     -3.585000     10.859000
C           5.474000     -8.535000     10.025000
C           6.864000     -3.237000     11.038000
C           0.984000     -5.057000      8.862000
C           7.321000     -6.983000      9.728000
C           1.191000     -4.733000     11.659000
C           3.087000     -2.143000      9.211000
C           4.674000     -6.627000     13.489000
C           3.739000     -7.511000     12.944000
C           3.119000     -1.951000     10.622000
C           4.109000     -8.552000      9.666000
C           1.560000     -7.365000      9.498000
C           5.535000     -8.373000     11.487000
C           3.912000     -6.399000      6.902000
C           5.258000     -2.032000      9.858000
C           0.918000     -6.133000      9.702000
C           2.221000     -2.625000     11.481000
C           6.424000     -7.933000      9.207000
C           4.917000     -2.371000     12.218000
C           7.454000     -5.834000      8.901000
C           5.975000     -4.184000     13.096000
C           4.379000     -2.176000      8.752000
C           4.453000     -1.836000     10.988000
C           4.522000     -5.108000      6.814000
C           4.560000     -7.468000      7.596000
C           6.026000     -6.629000     13.083000
C           6.500000     -2.618000      9.878000
C           1.993000     -4.484000     12.757000
C           4.156000     -8.384000     11.955000
C           3.988000     -5.404000     13.789000
C           5.963000     -7.288000      8.039000
C           7.348000     -6.788000     11.180000
$end

--------------------------------------------------------------

             Standard Nuclear Orientation (Angstroms)
    I     Atom           X                Y                Z
 ----------------------------------------------------------------
    1      O      -6.3681115527     8.5492656718     1.0404168756
    2      C      -6.7390824185     9.7543077493     1.7033913911
    3      H      -7.5556333687    10.3125022027     1.2302006284
    4      H      -5.8897302279    10.4481149101     1.7091775789
    5      H      -7.0420462928     9.4797212500     2.7218702300
    6      O      -4.4488052495     8.0320220736     2.2580232877
    7      C      -5.2980877669     7.7560820960     1.3586572141
    8      C      -5.3581166901     6.4760622275     0.5858942073
    9      H      -5.2738176284     6.7943579146    -0.4604630566
   10      H      -6.3905385726     6.1089071738     0.6340421351
   11      C      -4.2388741885     5.4752997785     0.8736627656
   12      H      -3.3014084757     6.0197943253     1.0470459418
   13      H      -4.4605284763     4.9407056076     1.8055058045
   14      C      -4.1397186772     4.5589912333    -0.3450188313
   15      H      -5.1660894205     4.2260118821    -0.5420920386
   16      H      -3.9614176524     5.1436646929    -1.2556354851
   17      C      -3.1662659522     3.4716018108    -0.2123989388
   18      C      -1.7176140164     3.8829379242    -0.0804702807
   19      C      -1.1357153265     3.9641144644     1.1913875274
   20      H      -1.7524759626     3.7239883339     2.0531338701
   21      C       0.1471400985     4.4987496953     1.4306094502
   22      H       0.5851599082     4.7154976621     2.4004403454
   23      C       0.9174712959     4.8027769903     0.3546325684
   24      H       1.9703489715     5.0406336602     0.4768856044
   25      C       0.3889627923     4.6060898093    -0.9631902249
   26      H       1.0155333677     4.7746138418    -1.8339312683
   27      C      -0.9420357895     4.2369891430    -1.1629337436
   28      H      -1.2806034047     4.1220563016    -2.1884148072
   29      C      -1.6439430075    -1.2037388047    -2.7205321053
   30      C      -1.0831172759    -1.5558894713    -0.3324156076
   31      C      -4.4351068572    -4.6430083062     0.4319646291
   32      C      -6.5828161541     0.2358894021    -3.2515609822
   33      C      -6.4669965288    -2.2377687345     1.8549231545
   34      C      -1.1497870489    -0.6970874758    -1.4650882319
   35      C      -8.0151608684    -1.0780657106    -1.1960475228
   36      C      -2.9499716316    -4.3987925320    -1.5131001558
   37      C      -3.5759277544     0.5081075751     2.0437792730
   38      C      -6.8976025135     0.9329765919    -2.0723044377
   39      C      -3.5990732856     2.1234143610     0.3465119777
   40      C      -4.9681387772     0.8675031408     1.8697899191
   41      C      -7.1033833324     0.7338206324     0.1642666339
   42      C      -7.8441731912    -1.9331365689    -0.1071567838
   43      C      -1.8134334778     0.4471874003     0.3674560174
   44      C      -6.5733350837    -3.9797097984     0.1947745341
   45      C      -3.4883069564     2.2226179955    -1.1304218256
   46      C      -4.6780999965     1.9856325480    -2.0575390886
   47      C      -6.1047346331    -3.4885672642     1.4221757028
   48      C      -5.5571947470    -3.1141011949    -3.5697884633
   49      C      -5.4267518376    -4.5589132481    -1.8617592545
   50      C      -4.1146303352    -4.4473841653    -2.3831644966
   51      C      -1.9934103273    -3.3929706382    -1.7313564022
   52      C      -4.3359365780     1.1851768457    -3.1087235937
   53      C      -2.8043648560     1.1774707158     1.1102495842
   54      C      -1.4666828715    -2.9104780369    -0.4851023844
   55      C      -7.6030805895     0.3112026632    -1.0568597737
   56      C      -1.4683743697    -0.8498008839     0.7701477141
   57      C      -6.0046045914     0.0106399948     2.2077147109
   58      C      -4.8458721957    -0.8746544208    -4.2425242019
   59      C      -3.1666127808    -4.4428618177    -0.0931288495
   60      C      -4.9878910397     1.8184153926     0.8443993898
   61      C      -3.2024341301    -2.5661595841    -3.6660351676
   62      C      -7.1147139279    -0.0815790013     1.3468709866
   63      C      -3.2357956908    -0.8232486858     2.4327390213
   64      C      -7.3401945416    -3.0727208060    -1.9281598830
   65      C      -7.6482813543    -1.7244122790    -2.3392944496
   66      C      -4.2819843691    -1.7642839570     2.6850044922
   67      C      -5.3121784592     0.3876865338    -3.7821083214
   68      C      -5.9906014717     1.8393611586    -1.4692172734
   69      C      -5.9273048856    -1.8116061653    -4.0131756343
   70      C      -2.4790482465     1.3462866016    -1.7341180608
   71      C      -2.5223549796    -2.8709169906     1.6525192669
   72      C      -6.0950857206     1.6873432923    -0.0368389679
   73      C      -5.6183985303    -1.3216272590     2.5069785460
   74      C      -3.5032356358    -1.2569161506    -4.0697641434
   75      C      -4.8060430816    -3.9291027708     1.5746378999
   76      C      -2.0331184252    -2.5448454213    -2.8530256420
   77      C      -5.5729940522    -4.7382592145    -0.4448226861
   78      C      -2.1049318035    -1.5074316105     1.8500224573
   79      C      -3.8637953195    -3.0257414065     2.1564053796
   80      C      -1.6066159104     0.5354343781    -1.0046631337
   81      C      -2.9789646180     0.7994446917    -2.9736391567
   82      C      -6.3188567921    -3.7943189698    -2.5830784209
   83      C      -2.2254973337    -3.5780142905     0.5193860238
   84      C      -7.3603486718    -1.4677673915     1.1394527634
   85      C      -6.9742963004    -1.1020227447    -3.3733081897
   86      C      -7.4214261362    -3.1686042666    -0.5497282416
   87      C      -2.5909855269    -0.4555632279    -3.4337710364
   88      C      -4.2235992207    -3.4811979699    -3.4088725534
   89      O      -0.2957033662    -5.8621846522     5.2560141495
   90      C      -0.1113371317    -7.2209595993     5.6075276410
   91      H      -0.9878768861    -7.8387997309     5.3778199339
   92      H       0.1874935065    -7.2232782196     6.6623185557
   93      H       0.7172946537    -7.6627218815     5.0400750437
   94      O       1.9199649783    -5.3230460557     5.1310647158
   95      C       0.7485147932    -5.0458818961     4.9238993410
   96      C       0.3187634421    -3.7771560524     4.1851013241
   97      H      -0.6262717951    -3.3953783115     4.5916934502
   98      H       0.0360582613    -4.0862417284     3.1711556522
   99      C       1.2885093292    -2.5759313936     4.1598578394
  100      H       1.4864917948    -2.2640214375     5.1921088373
  101      H       2.2539167281    -2.9886665728     3.8402577362
  102      C       0.8267330453    -1.4156384738     3.2193701980
  103      H       0.6832578793    -1.9493737532     2.2718215035
  104      H      -0.1359077428    -0.9946138083     3.5351453461
  105      C       1.7447080028    -0.1882470161     2.9689421901
  106      C       1.3001053919     0.9100405569     3.9046910480
  107      C       1.9322046652     1.0005298871     5.1687275150
  108      H       2.7785639998     0.3501129808     5.3710631885
  109      C       1.5288034245     1.9679904658     6.1451303354
  110      H       2.0219677459     1.9821032867     7.1123003206
  111      C       0.4535674385     2.8474553278     5.8516765383
  112      H       0.1049061653     3.6030795249     6.5500184240
  113      C      -0.1014563309     2.8180009056     4.5367076974
  114      H      -0.9117987961     3.5136026402     4.3370396829
  115      C       0.2891445037     1.8374899753     3.5781888904
  116      H      -0.3540529876     1.7487594741     2.7078499419
  117      C       3.4031422973     2.9329879597    -1.2868785200
  118      C       5.1036970293     3.4221950293     0.3267478452
  119      C       8.3095506340     1.1556111663    -1.8056867393
  120      C       2.9015873581    -1.9917102548    -2.0065799437
  121      C       8.0726302427    -1.7176791758     0.1965413542
  122      C       3.7661132020     3.1512781413     0.0361991492
  123      C       5.3545233359    -3.2877724805    -1.7755630694
  124      C       6.6022549019     2.6173116766    -2.7470511221
  125      C       5.6475272726     0.2873370243     2.7412086452
  126      C       3.1836232451    -2.6861337714    -0.8188877538
  127      C       3.2327750449    -0.2019544013     2.4534525338
  128      C       5.5051795019    -1.0924656374     2.4822053114
  129      C       4.8025716879    -2.9941651979     0.6299078080
  130      C       6.7139557326    -2.9723955223    -1.4099814328
  131      C       4.2509873560     2.0568491255     1.9633338576
  132      C       8.1643876073    -1.0638594108    -2.1146787350
  133      C       2.1244327195     0.0983139538     1.4703608776
  134      C       2.0193192251    -0.9226539221     0.3701891866
  135      C       8.6102111500    -0.8909048565    -0.8019510059
  136      C       4.8715033882    -0.0287726830    -4.2471983681
  137      C       6.9611481333     0.3754865172    -3.6784766976
  138      C       6.3178916624     1.6004240574    -3.6854146539
  139      C       5.6510978955     3.3701616319    -2.1171723289
  140      C       1.8614323705    -0.2315605953    -0.8081260322
  141      C       4.3340172918     0.8343081200     2.6162760599
  142      C       6.0435579694     3.5660801780    -0.7488298960
  143      C       4.3972846037    -3.3141355480    -0.6892348509
  144      C       5.4007944639     2.7580871574     1.5405764364
  145      C       6.5240943189    -1.8203313408     1.8349579758
  146      C       2.6630980598     0.0336948512    -3.0895310096
  147      C       7.5616650760     2.3215923081    -1.7491432241
  148      C       4.1057153362    -1.4212365759     2.3336767991
  149      C       3.8994332669     2.1125309010    -3.3308563791
  150      C       6.1180641828    -2.7611026616     0.8755118592
  151      C       6.8288282907     0.9492476726     2.2980921839
  152      C       6.1981298514    -1.8861471112    -3.4018082449
  153      C       5.0642770750    -2.5734217291    -2.9605175462
  154      C       7.8575673113     0.2295268640     1.6254057895
  155      C       2.2657916771    -0.7783497631    -2.0054986381
  156      C       2.7802269677    -2.1602280186     0.3945769480
  157      C       3.7036844584    -0.7042119896    -3.8244340245
  158      C       2.1945197372     1.4096373177     0.7370452257
  159      C       7.5730010501     2.2262803838     0.5777534502
  160      C       3.7857485195    -2.3258723158     1.3605440156
  161      C       7.7626453374    -1.1634948592     1.4039530909
  162      C       2.7338286698     1.4167518165    -2.9623358386
  163      C       8.7355169517     0.5008241415    -0.6355723652
  164      C       4.2919523620     3.0847237020    -2.3703414560
  165      C       8.0007972149     0.1521274306    -2.7606169559
  166      C       6.6708199123     2.1594358634     1.6723830701
  167      C       8.3314986146     1.0485749318     0.6098830756
  168      C       3.2122998926     2.3605686856     1.0632017661
  169      C       1.8736400162     1.1207395982    -0.6259937731
  170      C       6.1041402196    -0.6511340127    -4.0790471952
  171      C       7.2780150988     2.9324648994    -0.5627055445
  172      C       7.0875473918    -2.7103260914    -0.1085272901
  173      C       3.8229115965    -1.9993549343    -3.1693190403
  174      C       7.2510935562    -2.1426600059    -2.4627696029
  175      C       2.4539023970     1.9693076750    -1.6938354227
  176      C       4.9553659990     1.3666043759    -4.0205357861
 ----------------------------------------------------------------

    9   -5804.3097359720      9.17E-06 Convergence criterion met
 Total energy in the final basis set = -5804.3097359720

                    Orbital Energies (a.u.)
 --------------------------------------------------------------

 Alpha MOs
 -- Occupied --
-19.194 -19.189 -19.137 -19.134 -10.325 -10.320 -10.251 -10.245
-10.244 -10.244 -10.243 -10.243 -10.242 -10.238 -10.235 -10.232
-10.231 -10.230 -10.230 -10.229 -10.228 -10.228 -10.227 -10.226
-10.226 -10.225 -10.225 -10.225 -10.225 -10.225 -10.225 -10.225
-10.225 -10.224 -10.224 -10.224 -10.224 -10.223 -10.223 -10.223
-10.223 -10.223 -10.223 -10.222 -10.222 -10.222 -10.222 -10.221
-10.221 -10.221 -10.221 -10.221 -10.221 -10.221 -10.220 -10.220
-10.220 -10.220 -10.220 -10.220 -10.220 -10.220 -10.220 -10.220
-10.219 -10.219 -10.219 -10.219 -10.219 -10.218 -10.218 -10.218
-10.218 -10.218 -10.218 -10.218 -10.217 -10.217 -10.217 -10.217
-10.217 -10.217 -10.217 -10.217 -10.217 -10.217 -10.217 -10.216
-10.216 -10.216 -10.216 -10.216 -10.216 -10.215 -10.215 -10.215
-10.215 -10.215 -10.215 -10.215 -10.215 -10.214 -10.214 -10.214
-10.214 -10.213 -10.213 -10.212 -10.212 -10.212 -10.212 -10.212
-10.212 -10.211 -10.211 -10.211 -10.211 -10.211 -10.211 -10.210
-10.210 -10.210 -10.210 -10.209 -10.209 -10.209 -10.209 -10.208
-10.208 -10.207 -10.206 -10.204 -10.204 -10.203 -10.203 -10.203
-10.202 -10.202 -10.201 -10.200 -10.200 -10.199 -10.198 -10.197
-10.196 -10.194 -10.193 -10.192  -1.092  -1.087  -1.009  -0.993
 -0.984  -0.979  -0.969  -0.963  -0.963  -0.962  -0.958  -0.957
 -0.936  -0.931  -0.927  -0.926  -0.925  -0.925  -0.922  -0.920
 -0.918  -0.916  -0.900  -0.894  -0.890  -0.886  -0.886  -0.879
 -0.877  -0.866  -0.857  -0.844  -0.844  -0.842  -0.842  -0.838
 -0.838  -0.833  -0.827  -0.815  -0.813  -0.802  -0.798  -0.798
 -0.797  -0.794  -0.794  -0.793  -0.793  -0.789  -0.787  -0.780
 -0.775  -0.773  -0.770  -0.769  -0.768  -0.767  -0.763  -0.761
 -0.758  -0.747  -0.742  -0.741  -0.737  -0.730  -0.718  -0.718
 -0.716  -0.715  -0.713  -0.712  -0.712  -0.712  -0.711  -0.710
 -0.708  -0.708  -0.707  -0.705  -0.704  -0.702  -0.675  -0.671
 -0.661  -0.659  -0.658  -0.653  -0.650  -0.645  -0.635  -0.631
 -0.629  -0.628  -0.625  -0.624  -0.624  -0.622  -0.621  -0.618
 -0.616  -0.616  -0.614  -0.613  -0.612  -0.611  -0.611  -0.609
 -0.607  -0.605  -0.601  -0.599  -0.571  -0.565  -0.565  -0.562
 -0.561  -0.560  -0.559  -0.558  -0.558  -0.557  -0.556  -0.552
 -0.540  -0.538  -0.535  -0.533  -0.531  -0.528  -0.527  -0.525
 -0.523  -0.522  -0.520  -0.520  -0.517  -0.516  -0.515  -0.512
 -0.511  -0.505  -0.502  -0.499  -0.496  -0.492  -0.489  -0.486
 -0.484  -0.483  -0.483  -0.482  -0.480  -0.477  -0.477  -0.476
 -0.474  -0.474  -0.472  -0.471  -0.470  -0.469  -0.467  -0.467
 -0.465  -0.465  -0.465  -0.462  -0.462  -0.461  -0.460  -0.460
 -0.457  -0.456  -0.454  -0.454  -0.450  -0.447  -0.446  -0.446
 -0.445  -0.443  -0.443  -0.440  -0.438  -0.436  -0.436  -0.434
 -0.432  -0.431  -0.430  -0.428  -0.427  -0.427  -0.424  -0.424
 -0.423  -0.422  -0.422  -0.421  -0.420  -0.420  -0.419  -0.419
 -0.418  -0.418  -0.416  -0.416  -0.415  -0.414  -0.414  -0.412
 -0.411  -0.410  -0.410  -0.404  -0.403  -0.402  -0.401  -0.397
 -0.396  -0.395  -0.393  -0.392  -0.389  -0.389  -0.386  -0.383
 -0.381  -0.378  -0.374  -0.372  -0.371  -0.369  -0.366  -0.365
 -0.364  -0.363  -0.363  -0.361  -0.360  -0.360  -0.358  -0.358
 -0.356  -0.356  -0.355  -0.354  -0.353  -0.352  -0.351  -0.350
 -0.349  -0.348  -0.347  -0.346  -0.346  -0.345  -0.344  -0.344
 -0.343  -0.342  -0.341  -0.341  -0.339  -0.339  -0.336  -0.335
 -0.334  -0.333  -0.332  -0.331  -0.329  -0.328  -0.326  -0.322
 -0.309  -0.301  -0.296  -0.296  -0.291  -0.285  -0.276  -0.273
 -0.271  -0.269  -0.269  -0.268  -0.268  -0.267  -0.266  -0.265
 -0.264  -0.263  -0.261  -0.260  -0.259  -0.258  -0.253  -0.251
 -0.249  -0.247  -0.245  -0.242  -0.228  -0.220  -0.215  -0.213
 -0.211  -0.210  -0.206  -0.206  -0.203  -0.201

          Ground-State Mulliken Net Atomic Charges

     Atom                 Charge (a.u.)
  ----------------------------------------
      1 O                    -0.471830
      2 C                    -0.076424
      3 H                     0.126942
      4 H                     0.129557
      5 H                     0.126280
      6 O                    -0.497988
      7 C                     0.595295
      8 C                    -0.265858
      9 H                     0.135680
     10 H                     0.141603
     11 C                    -0.171560
     12 H                     0.139059
     13 H                     0.111349
     14 C                    -0.193717
     15 H                     0.109896
     16 H                     0.110641
     17 C                     0.020157
     18 C                     0.102831
     19 C                    -0.127654
     20 H                     0.085882
     21 C                    -0.071898
     22 H                     0.104902
     23 C                    -0.084444
     24 H                     0.093957
     25 C                    -0.092213
     26 H                     0.090496
     27 C                    -0.113396
     28 H                     0.090187
     29 C                    -0.016866
     30 C                     0.009842
     31 C                    -0.005728
     32 C                     0.007295
     33 C                     0.049449
     34 C                    -0.017483
     35 C                    -0.025544
     36 C                    -0.021526
     37 C                     0.017045
     38 C                     0.005960
     39 C                    -0.078449
     40 C                     0.031422
     41 C                     0.021611
     42 C                     0.003497
     43 C                     0.001556
     44 C                     0.007302
     45 C                    -0.088336
     46 C                     0.017217
     47 C                     0.007869
     48 C                     0.003606
     49 C                     0.017570
     50 C                    -0.023449
     51 C                     0.020802
     52 C                     0.028602
     53 C                     0.016673
     54 C                    -0.010599
     55 C                    -0.007562
     56 C                     0.028357
     57 C                    -0.014751
     58 C                    -0.021711
     59 C                     0.018025
     60 C                     0.028302
     61 C                    -0.018876
     62 C                    -0.041567
     63 C                    -0.031183
     64 C                    -0.026574
     65 C                     0.027545
     66 C                    -0.014527
     67 C                    -0.005910
     68 C                    -0.049371
     69 C                    -0.019072
     70 C                     0.025551
     71 C                    -0.000588
     72 C                     0.001405
     73 C                    -0.005216
     74 C                     0.030023
     75 C                    -0.008667
     76 C                    -0.014774
     77 C                    -0.024992
     78 C                    -0.028569
     79 C                     0.002113
     80 C                     0.021482
     81 C                    -0.017192
     82 C                    -0.008808
     83 C                    -0.007433
     84 C                    -0.014942
     85 C                     0.010657
     86 C                     0.026618
     87 C                     0.012874
     88 C                     0.028100
     89 O                    -0.465161
     90 C                    -0.081642
     91 H                     0.125543
     92 H                     0.126976
     93 H                     0.126296
     94 O                    -0.467738
     95 C                     0.592757
     96 C                    -0.265584
     97 H                     0.127035
     98 H                     0.134764
     99 C                    -0.189678
    100 H                     0.106859
    101 H                     0.126147
    102 C                    -0.181552
    103 H                     0.106858
    104 H                     0.122073
    105 C                     0.011440
    106 C                     0.072937
    107 C                    -0.107784
    108 H                     0.094314
    109 C                    -0.092347
    110 H                     0.094159
    111 C                    -0.085659
    112 H                     0.094208
    113 C                    -0.108507
    114 H                     0.091479
    115 C                    -0.104522
    116 H                     0.099104
    117 C                     0.043641
    118 C                    -0.000466
    119 C                     0.005946
    120 C                    -0.006237
    121 C                     0.022951
    122 C                    -0.022631
    123 C                    -0.012200
    124 C                     0.017024
    125 C                     0.005870
    126 C                     0.015804
    127 C                    -0.063953
    128 C                     0.007718
    129 C                     0.010977
    130 C                    -0.028125
    131 C                     0.009685
    132 C                    -0.004703
    133 C                    -0.107207
    134 C                     0.033452
    135 C                     0.007984
    136 C                     0.007387
    137 C                     0.023409
    138 C                    -0.006265
    139 C                    -0.011512
    140 C                     0.026824
    141 C                     0.025287
    142 C                    -0.018775
    143 C                    -0.018390
    144 C                    -0.011391
    145 C                    -0.035012
    146 C                     0.005515
    147 C                     0.008490
    148 C                     0.022047
    149 C                    -0.005551
    150 C                     0.011721
    151 C                    -0.009430
    152 C                     0.011267
    153 C                     0.033044
    154 C                     0.011244
    155 C                     0.043795
    156 C                    -0.024070
    157 C                    -0.023643
    158 C                     0.034241
    159 C                     0.019580
    160 C                     0.028028
    161 C                    -0.018142
    162 C                    -0.018805
    163 C                    -0.032241
    164 C                    -0.009597
    165 C                    -0.007244
    166 C                    -0.007814
    167 C                    -0.005394
    168 C                     0.000039
    169 C                    -0.018043
    170 C                    -0.004305
    171 C                     0.000321
    172 C                     0.023849
    173 C                    -0.036083
    174 C                    -0.021082
    175 C                    -0.024582
    176 C                    -0.012863
  ----------------------------------------
  Sum of atomic charges =     0.000000

                    Cartesian Multipole Moments
 -----------------------------------------------------------------
    Charge (ESU x 10^10)
                 0.0000
    Dipole Moment (Debye)
         X      -4.4347      Y       2.1915      Z       0.0753
       Tot       4.9472
    Quadrupole Moments (Debye-Ang)
        XX    -809.3905     XY     -16.0535     YY    -782.6682
        XZ      -3.1797     YZ      -6.4453     ZZ    -807.5906

 Total job time:  869.22s(wall), 7469.72s(cpu)
        *  Thank you very much for using Q-Chem.  Have a nice day.  *
