 Q-Chem 4.4, Q-Chem, Inc., Pleasanton, CA (2016)
 Q-Chem 4.4.2 for Intel X86 Linux

User input:
--------------------------------------------------------------
$comment
SP
$end

$rem
MEM_STATIC 5000
MEM_TOTAL 20000
JOBTYPE SP
EXCHANGE B3LYP
BASIS 6-31g(d,p)
$end

$molecule
0 1
O           9.726000     12.780000      9.977000
C          10.901000     13.548000     10.139000
H          11.697000     12.832000     10.380000
H          10.871000     14.203000     11.018000
H          11.203000     14.035000      9.203000
O           8.530000     14.620000      9.424000
C           8.588000     13.458000      9.652000
C           7.435000     12.457000      9.371000
H           7.466000     12.080000      8.341000
H           6.467000     12.969000      9.437000
C           7.361000     11.322000     10.400000
H           8.262000     10.696000     10.419000
H           7.348000     11.713000     11.425000
C           6.158000     10.381000     10.050000
H           5.242000     10.972000     10.169000
H           6.221000     10.085000      8.996000
C           5.928000      9.227000     10.972000
C           5.721000      9.664000     12.456000
C           4.457000     10.046000     12.966000
H           3.588000      9.918000     12.328000
C           4.276000     10.430000     14.346000
H           3.274000     10.704000     14.661000
C           5.409000     10.480000     15.245000
H           5.333000     10.751000     16.293000
C           6.658000     10.054000     14.730000
H           7.507000     10.039000     15.408000
C           6.826000      9.671000     13.361000
H           7.816000      9.381000     13.021000
C           7.202000      4.151000     12.628000
C           4.827000      4.241000     12.948000
C           3.740000      1.524000      9.554000
C           8.401000      5.470000      7.800000
C           2.895000      4.138000      7.351000
C           6.078000      4.887000     12.962000
C           6.318000      4.662000      6.155000
C           5.549000      1.294000     11.155000
C           3.178000      6.679000     10.356000
C           7.440000      6.416000      7.367000
C           5.139000      7.983000     10.473000
C           3.506000      7.070000      9.040000
C           5.233000      6.667000      7.008000
C           5.041000      4.014000      6.176000
C           4.535000      6.335000     12.323000
C           4.217000      2.080000      7.413000
C           6.642000      7.922000     10.761000
C           7.479000      7.419000      9.631000
C           3.075000      2.799000      7.755000
C           7.981000      2.075000      8.812000
C           5.984000      1.046000      8.729000
C           6.439000      1.020000     10.045000
C           5.837000      2.171000     12.224000
C           8.356000      6.427000     10.074000
C           4.146000      7.191000     11.267000
C           4.720000      2.923000     12.596000
C           6.416000      5.988000      6.559000
C           3.844000      5.155000     12.556000
C           3.121000      6.212000      8.008000
C           9.005000      4.122000      9.606000
C           4.145000      1.512000     10.904000
C           4.712000      7.775000      9.075000
C           8.007000      2.555000     11.202000
C           3.975000      6.053000      6.933000
C           2.391000      5.539000     10.633000
C           6.562000      2.461000      6.844000
C           7.292000      3.704000      6.615000
C           2.049000      4.683000      9.596000
C           8.910000      5.474000      9.150000
C           7.003000      7.418000      8.289000
C           8.669000      3.285000      8.536000
C           6.924000      6.827000     11.824000
C           2.696000      3.407000     11.325000
C           5.604000      7.548000      8.050000
C           2.415000      5.067000      8.263000
C           8.641000      3.790000     10.912000
C           2.819000      2.470000      9.114000
C           7.093000      2.776000     12.260000
C           4.648000      1.271000      8.488000
C           2.774000      4.730000     11.744000
C           2.295000      3.394000      9.990000
C           5.921000      6.145000     12.566000
C           8.017000      6.056000     11.379000
C           6.948000      1.618000      7.915000
C           3.684000      2.490000     11.750000
C           3.877000      4.755000      6.522000
C           8.328000      4.123000      7.476000
C           5.214000      2.680000      6.654000
C           8.118000      4.739000     11.784000
C           7.685000      1.681000     10.088000
O          -4.759000     -8.465000      7.119000
C          -5.977000     -8.608000      7.826000
H          -6.387000     -9.623000      7.759000
H          -6.640000     -7.820000      7.450000
H          -5.832000     -8.419000      8.897000
O          -4.015000     -6.627000      8.252000
C          -3.811000     -7.548000      7.476000
C          -2.433000     -7.831000      6.875000
H          -2.530000     -8.216000      5.852000
H          -2.026000     -8.693000      7.418000
C          -1.411000     -6.676000      6.801000
H          -1.838000     -5.869000      6.194000
H          -1.392000     -6.240000      7.808000
C           0.016000     -7.128000      6.350000
H           0.229000     -7.925000      7.073000
H           0.006000     -7.561000      5.342000
C           1.200000     -6.123000      6.349000
C           1.344000     -5.592000      4.943000
C           0.651000     -4.403000      4.609000
H           0.135000     -3.866000      5.400000
C           0.676000     -3.864000      3.282000
H           0.106000     -2.966000      3.064000
C           1.395000     -4.547000      2.266000
H           1.453000     -4.186000      1.243000
C           2.176000     -5.682000      2.640000
H           2.728000     -6.174000      1.844000
C           2.128000     -6.226000      3.957000
H           2.561000     -7.215000      4.073000
C           6.521000     -6.003000      7.858000
C           6.019000     -3.663000      7.772000
C           6.125000     -3.092000     12.202000
C           3.285000     -8.481000     10.758000
C           2.644000     -3.215000     12.636000
C           5.852000     -4.947000      7.252000
C           2.461000     -6.908000     12.902000
C           7.629000     -4.405000     10.805000
C           2.164000     -3.054000      8.621000
C           2.019000     -7.876000     10.698000
C           1.706000     -5.247000      7.556000
C           1.295000     -3.780000      9.463000
C           1.025000     -5.963000     11.107000
C           2.614000     -5.552000     13.370000
C           3.825000     -3.933000      7.153000
C           4.666000     -4.138000     13.551000
C           2.447000     -6.521000      7.220000
C           2.404000     -7.538000      8.328000
C           3.980000     -3.039000     13.028000
C           6.453000     -7.457000     12.050000
C           6.624000     -5.397000     12.812000
C           7.461000     -5.474000     11.713000
C           7.659000     -4.548000      9.446000
C           3.676000     -8.043000      8.462000
C           2.497000     -3.948000      7.558000
C           6.947000     -3.453000      8.847000
C           1.611000     -7.085000     11.743000
C           4.760000     -3.022000      7.690000
C           1.303000     -3.585000     10.859000
C           5.474000     -8.535000     10.025000
C           6.864000     -3.237000     11.038000
C           0.984000     -5.057000      8.862000
C           7.321000     -6.983000      9.728000
C           1.191000     -4.733000     11.659000
C           3.087000     -2.143000      9.211000
C           4.674000     -6.627000     13.489000
C           3.739000     -7.511000     12.944000
C           3.119000     -1.951000     10.622000
C           4.109000     -8.552000      9.666000
C           1.560000     -7.365000      9.498000
C           5.535000     -8.373000     11.487000
C           3.912000     -6.399000      6.902000
C           5.258000     -2.032000      9.858000
C           0.918000     -6.133000      9.702000
C           2.221000     -2.625000     11.481000
C           6.424000     -7.933000      9.207000
C           4.917000     -2.371000     12.218000
C           7.454000     -5.834000      8.901000
C           5.975000     -4.184000     13.096000
C           4.379000     -2.176000      8.752000
C           4.453000     -1.836000     10.988000
C           4.522000     -5.108000      6.814000
C           4.560000     -7.468000      7.596000
C           6.026000     -6.629000     13.083000
C           6.500000     -2.618000      9.878000
C           1.993000     -4.484000     12.757000
C           4.156000     -8.384000     11.955000
C           3.988000     -5.404000     13.789000
C           5.963000     -7.288000      8.039000
C           7.348000     -6.788000     11.180000
$end

--------------------------------------------------------------

             Standard Nuclear Orientation (Angstroms)
    I     Atom           X                Y                Z
 ----------------------------------------------------------------
    1      O      13.4950168683     0.3753176746     1.7251633918
    2      C      14.5753766437     1.0764188188     2.3065177945
    3      H      14.1402225164     1.9755989549     2.7609063598
    4      H      15.2779156578     1.4779019615     1.5663717145
    5      H      15.0339127718     0.5117320674     3.1283100383
    6      O      14.8595172918    -1.3127677704     1.0845924555
    7      C      13.7891874239    -0.8032845568     1.1049106495
    8      C      12.4810396212    -1.5074680161     0.6540825428
    9      H      12.0293420277    -2.0864835162     1.4693741070
   10      H      12.7029647981    -2.2590289964    -0.1136604538
   11      C      11.4774998145    -0.5489597692     0.0008507333
   12      H      11.1361757526     0.2458763851     0.6759591488
   13      H      11.9471494233     0.0350904924    -0.8003917624
   14      C      10.2057621085    -1.3504110130    -0.4413586186
   15      H      10.5229353474    -2.0518889462    -1.2222733680
   16      H       9.8380532842    -1.9459703293     0.4027979554
   17      C       9.1296117760    -0.5657301126    -1.1202373606
   18      C       9.6332693909     0.1869151099    -2.3914289968
   19      C       9.6909844431    -0.4279479484    -3.6651371236
   20      H       9.2612577937    -1.4188565006    -3.7747922559
   21      C      10.1412349152     0.2858212089    -4.8366426091
   22      H      10.1507573820    -0.2546593461    -5.7779688502
   23      C      10.5965233773     1.6552098028    -4.7276596046
   24      H      10.9361181987     2.2446123067    -5.5731186784
   25      C      10.4920946519     2.2683830012    -3.4549399693
   26      H      10.7836114374     3.3116864062    -3.3698167123
   27      C      10.0402049522     1.5530062038    -2.3003379872
   28      H      10.0095833686     2.0726201599    -1.3469945783
   29      C       4.8065670100     2.8035025780    -0.8190015270
   30      C       4.2535259361     1.3830640464    -2.6703861301
   31      C       1.0221130164    -0.9337974992    -0.6032583834
   32      C       5.9319486581    -0.0300258819     3.3272713310
   33      C       3.0631108016    -3.7177193018     0.0926851759
   34      C       5.2244371319     2.0679602249    -1.9148984236
   35      C       4.4122703577    -2.3484179160     3.2114514716
   36      C       1.4695367192     1.4494259604    -0.5103069333
   37      C       5.8616613261    -2.1648442974    -2.2145835953
   38      C       6.5212844001    -1.2345171025     2.8714091997
   39      C       7.6709676078    -1.1053304726    -1.1359422120
   40      C       6.1987825637    -2.9449169593    -1.0875712114
   41      C       6.1029549320    -3.0472477848     1.6058109499
   42      C       3.4355335529    -3.0265840334     2.4132347520
   43      C       6.1085010760     0.1915425617    -2.6786796069
   44      C       1.4781350219    -2.2196892499     1.2020317140
   45      C       8.0650267350     0.1290646612    -0.3194496780
   46      C       7.7107529560     0.0638090412     1.1299328780
   47      C       1.8754831735    -2.9574089227     0.0902884294
   48      C       2.6722363117     1.2936615157     2.7367663840
   49      C       1.1185449226     0.1583967651     1.5744600503
   50      C       1.3507238365     1.3718214138     0.9316143660
   51      C       2.4922485631     2.1364595029    -1.2008714819
   52      C       7.0547893775     1.2304803629     1.5274650287
   53      C       6.7124792099    -1.0245153301    -2.2842095605
   54      C       2.9310771676     1.4272476674    -2.3215967061
   55      C       5.7448956408    -2.3654356251     2.8178574519
   56      C       4.8101200744     0.2002348702    -3.1668406649
   57      C       5.1704467243    -3.6777997427    -0.4919024888
   58      C       4.9923799523     1.9766636466     2.5965430755
   59      C       1.2568659188     0.2650311245    -1.3063728875
   60      C       7.2153549733    -2.2922652570    -0.3852092737
   61      C       3.3712138989     2.8106591505     0.9610061219
   62      C       5.1546474598    -3.7871507191     0.8857820714
   63      C       4.5786642817    -2.2022356820    -2.8046839837
   64      C       2.4478864862    -1.1169188647     3.1543192376
   65      C       3.8177890339    -1.1134355124     3.6580501937
   66      C       3.5638828090    -2.9098427302    -2.1765280890
   67      C       6.2113193268     1.2351562066     2.6925561882
   68      C       7.4443394335    -1.1743025139     1.7808127534
   69      C       3.9941999698     1.2454935060     3.2502952825
   70      C       7.2034440614     1.3418831971    -0.7613371020
   71      C       2.6976386542    -0.9459145341    -2.8313815880
   72      C       7.1502677470    -2.3232909078     0.9905156487
   73      C       3.9033855358    -3.6737816616    -1.0105794591
   74      C       4.7004304206     2.7094757585     1.4449755006
   75      C       1.6220523806    -2.1158738879    -1.0269624907
   76      C       3.4275913716     2.8508531879    -0.4527855954
   77      C       0.9327208632    -0.9748587092     0.8163021190
   78      C       4.0232227658    -0.9654876553    -3.2490149872
   79      C       2.4416210537    -2.1250295926    -2.1332858445
   80      C       6.3420330253     1.3506681340    -1.8925271178
   81      C       6.7325765254     1.9901624550     0.3984614871
   82      C       1.8569343274     0.1038057372     2.7453045774
   83      C       2.1428170262     0.2636218329    -2.3550909855
   84      C       3.8480604812    -3.7824864893     1.2809247191
   85      C       4.5941537686     0.0642067636     3.6824319176
   86      C       2.2579334896    -2.2219384087     2.3518139939
   87      C       5.5437496342     2.6915036868     0.3390805197
   88      C       2.3373734008     2.0690274112     1.6608005114
   89      O     -11.1473583757    -5.6655941495    -3.3339018049
   90      C     -11.5584558513    -5.9727419790    -4.6531747397
   91      H     -12.6493854403    -6.0222528096    -4.7543444463
   92      H     -11.0302475667    -6.8930524586    -4.9286990202
   93      H     -11.2325075540    -5.1952499414    -5.3553505288
   94      O      -9.0725652161    -4.8852086289    -3.8831747643
   95      C      -9.9698002123    -5.0261885005    -3.0663963138
   96      C      -9.9097552337    -4.4226848660    -1.6619918265
   97      H     -10.4045242097    -5.0817600722    -0.9374322825
   98      H     -10.5645089657    -3.5424871703    -1.6715608892
   99      C      -8.5262912142    -4.0912446203    -1.0618587828
  100      H      -7.9359254696    -5.0137731663    -1.0124991912
  101      H      -8.0064238072    -3.5099002695    -1.8340521685
  102      C      -8.5990496337    -3.3064204570     0.2882490815
  103      H      -9.2289253992    -2.4529703634     0.0086306667
  104      H      -9.1136119323    -3.8831417876     1.0668832366
  105      C      -7.3058926301    -2.7744934007     0.9640305335
  106      C      -6.8958774554    -3.7788870769     2.0140847701
  107      C      -5.9893289402    -4.7995334444     1.6372867046
  108      H      -5.5451493699    -4.7564104257     0.6467560818
  109      C      -5.5975399050    -5.8331187191     2.5484825297
  110      H      -4.9226680108    -6.6122935599     2.2075096658
  111      C      -6.1457588522    -5.8521220354     3.8579865809
  112      H      -5.8848291709    -6.6078407718     4.5935264459
  113      C      -6.9720299668    -4.7590175658     4.2585619965
  114      H      -7.3635926536    -4.7932655412     5.2714241482
  115      C      -7.3760584092    -3.7465280100     3.3396741267
  116      H      -8.1864051607    -3.1053629560     3.6733079318
  117      C      -5.5423749472     1.8382470271     3.4574525050
  118      C      -3.4592157579     0.8048293512     2.8851801055
  119      C      -2.4514726431     3.7422557290    -0.3270087260
  120      C      -8.5370914337     2.2867628198    -0.5240907573
  121      C      -3.5087577908     1.7054902659    -2.9830547657
  122      C      -4.7825639097     0.6844988270     3.3108739321
  123      C      -7.0588896214     2.7623902331    -2.8346618914
  124      C      -3.4166540892     4.1676445664     1.8695939038
  125      C      -3.8828899077    -1.4014236715    -0.4171909842
  126      C      -8.3228152381     1.2215827683    -1.4139548872
  127      C      -6.2091325633    -1.8449444770     0.3211330656
  128      C      -4.7387078676    -1.2214777881    -1.5246186788
  129      C      -6.7376395510     0.3068328641    -2.6244657934
  130      C      -5.6758588822     2.8182610303    -3.2412002396
  131      C      -4.3965092552    -1.0352412340     1.8825245609
  132      C      -3.7296387717     3.9534701121    -2.1612055072
  133      C      -7.2487276427    -1.2254065359     1.2269298477
  134      C      -8.1231843777    -0.2239237096     0.5225438972
  135      C      -2.9254766162     2.8331067094    -2.3848907182
  136      C      -6.5395863296     5.0434669458     0.5550847248
  137      C      -4.4508717896     5.1213752509    -0.1411098361
  138      C      -4.3955552767     4.9619058313     1.2321376243
  139      C      -3.6774604940     3.3003061833     2.8932804518
  140      C      -8.2330994990     0.8687044032     1.3502198442
  141      C      -4.7459990871    -1.6576884426     0.6916214036
  142      C      -2.8918792726     2.1115442113     2.7076003009
  143      C      -7.5809292678     1.4424904477    -2.5475222669
  144      C      -3.2107567262    -0.2803383226     2.0114723573
  145      C      -4.4139355021    -0.3171684380    -2.5559539831
  146      C      -8.0425377423     3.2894874411     1.4962770261
  147      C      -2.4950595280     3.4902794146     1.0355807648
  148      C      -6.1039260245    -1.4967950206    -1.1385735967
  149      C      -6.0691726422     3.9221392391     2.7666721947
  150      C      -5.4629825556     0.4629199793    -3.0672370171
  151      C      -2.6953446697    -0.6185460077    -0.3347963770
  152      C      -6.1088633831     4.5905812962    -1.7973255991
  153      C      -7.2696296933     3.8229139596    -1.9238737450
  154      C      -2.3651970705     0.3131134371    -1.3603802310
  155      C      -8.4790331729     2.1216050704     0.8345236678
  156      C      -8.0819189256    -0.0468040166    -0.9190145570
  157      C      -7.7278540967     4.2837477284     0.4571284880
  158      C      -6.7499588094    -0.4795075167     2.4340327033
  159      C      -1.9135501127     1.2680321384     0.6520122007
  160      C      -7.0673690642    -0.6776684797    -1.6567832254
  161      C      -3.1779102089     0.4708580929    -2.5063187015
  162      C      -7.2798588191     3.2145311502     2.6567641715
  163      C      -2.1026961064     2.7368977584    -1.2473191510
  164      C      -5.0158835676     3.1376468808     3.3116243623
  165      C      -3.4486129101     4.5454347301    -0.9392299116
  166      C      -2.4071001307    -0.0443826189     0.8769319295
  167      C      -1.8432374105     1.4381628070    -0.7370351993
  168      C      -5.3543313901    -0.4744599109     2.7482358670
  169      C      -7.5195035550     0.7234783383     2.5042247050
  170      C      -5.7689229512     5.2332619318    -0.5873065482
  171      C      -2.1203745681     2.2844869870     1.5522361648
  172      C      -4.8917342699     1.6891158182    -3.3517157696
  173      C      -8.0817620250     3.6685021809    -0.8144878435
  174      C      -5.1059384127     3.9976927002    -2.6333576658
  175      C      -6.9085145392     1.9303170160     3.1102699413
  176      C      -5.7335664948     4.8775382699     1.7075975015
 ----------------------------------------------------------------

    9   -5804.3167356827      8.38E-06 Convergence criterion met
 Total energy in the final basis set = -5804.3167356827

                    Orbital Energies (a.u.)
 --------------------------------------------------------------

 Alpha MOs
 -- Occupied --
-19.195 -19.191 -19.141 -19.137 -10.323 -10.318 -10.246 -10.246
-10.245 -10.244 -10.244 -10.244 -10.239 -10.239 -10.231 -10.230
-10.229 -10.228 -10.224 -10.224 -10.224 -10.224 -10.223 -10.223
-10.223 -10.222 -10.222 -10.221 -10.221 -10.221 -10.220 -10.220
-10.220 -10.220 -10.220 -10.219 -10.219 -10.219 -10.219 -10.219
-10.218 -10.218 -10.218 -10.218 -10.218 -10.217 -10.217 -10.217
-10.217 -10.217 -10.217 -10.217 -10.216 -10.216 -10.216 -10.216
-10.216 -10.216 -10.216 -10.216 -10.216 -10.215 -10.215 -10.215
-10.215 -10.215 -10.215 -10.215 -10.214 -10.214 -10.214 -10.214
-10.214 -10.214 -10.214 -10.214 -10.213 -10.213 -10.213 -10.213
-10.213 -10.213 -10.213 -10.213 -10.212 -10.212 -10.212 -10.212
-10.212 -10.212 -10.212 -10.211 -10.211 -10.211 -10.211 -10.211
-10.211 -10.211 -10.211 -10.211 -10.211 -10.211 -10.211 -10.210
-10.210 -10.210 -10.210 -10.210 -10.209 -10.209 -10.209 -10.209
-10.209 -10.208 -10.208 -10.208 -10.208 -10.208 -10.208 -10.207
-10.207 -10.207 -10.207 -10.207 -10.207 -10.207 -10.206 -10.206
-10.206 -10.206 -10.206 -10.205 -10.205 -10.205 -10.205 -10.204
-10.204 -10.204 -10.203 -10.203 -10.203 -10.203 -10.202 -10.202
-10.202 -10.201 -10.197 -10.195  -1.108  -1.095  -1.029  -1.012
 -0.981  -0.978  -0.963  -0.962  -0.961  -0.959  -0.957  -0.955
 -0.932  -0.926  -0.925  -0.924  -0.923  -0.921  -0.921  -0.919
 -0.919  -0.915  -0.893  -0.893  -0.888  -0.884  -0.884  -0.879
 -0.870  -0.866  -0.844  -0.844  -0.841  -0.840  -0.838  -0.837
 -0.836  -0.832  -0.821  -0.815  -0.806  -0.800  -0.796  -0.795
 -0.794  -0.793  -0.792  -0.792  -0.789  -0.788  -0.784  -0.780
 -0.769  -0.768  -0.768  -0.767  -0.765  -0.762  -0.762  -0.761
 -0.744  -0.744  -0.742  -0.741  -0.733  -0.729  -0.714  -0.713
 -0.713  -0.712  -0.711  -0.710  -0.708  -0.707  -0.707  -0.707
 -0.706  -0.705  -0.705  -0.703  -0.703  -0.702  -0.671  -0.670
 -0.658  -0.657  -0.656  -0.652  -0.646  -0.645  -0.628  -0.628
 -0.625  -0.624  -0.623  -0.623  -0.622  -0.621  -0.615  -0.614
 -0.613  -0.612  -0.611  -0.611  -0.610  -0.610  -0.608  -0.607
 -0.606  -0.602  -0.601  -0.598  -0.571  -0.564  -0.563  -0.560
 -0.559  -0.558  -0.557  -0.556  -0.555  -0.555  -0.553  -0.551
 -0.534  -0.532  -0.531  -0.530  -0.526  -0.525  -0.524  -0.522
 -0.521  -0.519  -0.518  -0.516  -0.515  -0.514  -0.514  -0.511
 -0.508  -0.505  -0.500  -0.499  -0.495  -0.492  -0.491  -0.485
 -0.484  -0.481  -0.481  -0.479  -0.478  -0.477  -0.477  -0.475
 -0.475  -0.472  -0.470  -0.468  -0.466  -0.466  -0.466  -0.464
 -0.463  -0.462  -0.462  -0.461  -0.461  -0.460  -0.459  -0.457
 -0.455  -0.453  -0.451  -0.450  -0.449  -0.447  -0.444  -0.443
 -0.442  -0.441  -0.440  -0.438  -0.436  -0.435  -0.431  -0.429
 -0.427  -0.427  -0.426  -0.425  -0.424  -0.422  -0.421  -0.421
 -0.420  -0.420  -0.419  -0.418  -0.418  -0.417  -0.417  -0.416
 -0.416  -0.415  -0.414  -0.414  -0.414  -0.412  -0.412  -0.411
 -0.410  -0.409  -0.407  -0.404  -0.403  -0.402  -0.397  -0.396
 -0.395  -0.394  -0.391  -0.390  -0.390  -0.386  -0.386  -0.382
 -0.379  -0.378  -0.376  -0.371  -0.369  -0.364  -0.364  -0.364
 -0.363  -0.361  -0.361  -0.360  -0.359  -0.358  -0.357  -0.356
 -0.355  -0.355  -0.353  -0.353  -0.352  -0.351  -0.350  -0.349
 -0.348  -0.348  -0.345  -0.344  -0.343  -0.343  -0.342  -0.342
 -0.341  -0.340  -0.339  -0.338  -0.338  -0.337  -0.336  -0.333
 -0.332  -0.331  -0.329  -0.329  -0.328  -0.327  -0.326  -0.322
 -0.311  -0.307  -0.301  -0.298  -0.286  -0.284  -0.272  -0.271
 -0.271  -0.269  -0.268  -0.267  -0.265  -0.263  -0.262  -0.262
 -0.261  -0.260  -0.258  -0.257  -0.256  -0.254  -0.253  -0.250
 -0.249  -0.248  -0.243  -0.241  -0.221  -0.218  -0.212  -0.209
 -0.208  -0.207  -0.205  -0.205  -0.200  -0.198

          Ground-State Mulliken Net Atomic Charges

     Atom                 Charge (a.u.)
  ----------------------------------------
      1 O                    -0.450399
      2 C                    -0.085601
      3 H                     0.117092
      4 H                     0.124903
      5 H                     0.127782
      6 O                    -0.446550
      7 C                     0.588234
      8 C                    -0.256642
      9 H                     0.134440
     10 H                     0.128796
     11 C                    -0.188905
     12 H                     0.116878
     13 H                     0.116756
     14 C                    -0.182999
     15 H                     0.110139
     16 H                     0.107626
     17 C                     0.010646
     18 C                     0.083248
     19 C                    -0.115694
     20 H                     0.094792
     21 C                    -0.098174
     22 H                     0.096497
     23 C                    -0.082240
     24 H                     0.098802
     25 C                    -0.093758
     26 H                     0.092741
     27 C                    -0.108487
     28 H                     0.095640
     29 C                    -0.017458
     30 C                    -0.006769
     31 C                     0.004128
     32 C                     0.007317
     33 C                    -0.014291
     34 C                     0.007944
     35 C                    -0.013165
     36 C                     0.001615
     37 C                     0.003442
     38 C                    -0.001208
     39 C                    -0.102617
     40 C                     0.007777
     41 C                    -0.001308
     42 C                    -0.004770
     43 C                    -0.021884
     44 C                    -0.009897
     45 C                    -0.087241
     46 C                     0.060330
     47 C                    -0.011768
     48 C                     0.014417
     49 C                     0.034610
     50 C                    -0.003102
     51 C                    -0.003241
     52 C                     0.014668
     53 C                     0.020906
     54 C                     0.015778
     55 C                     0.012618
     56 C                     0.013944
     57 C                    -0.001548
     58 C                    -0.008450
     59 C                    -0.012464
     60 C                     0.048035
     61 C                    -0.017150
     62 C                    -0.005142
     63 C                    -0.014602
     64 C                    -0.009920
     65 C                    -0.023620
     66 C                    -0.018210
     67 C                    -0.046500
     68 C                    -0.039826
     69 C                     0.012285
     70 C                     0.011130
     71 C                     0.001482
     72 C                    -0.006949
     73 C                     0.018417
     74 C                     0.013473
     75 C                     0.009937
     76 C                    -0.017834
     77 C                     0.004164
     78 C                    -0.019709
     79 C                     0.020512
     80 C                     0.044371
     81 C                     0.003573
     82 C                    -0.033621
     83 C                    -0.006309
     84 C                    -0.010508
     85 C                     0.011608
     86 C                     0.032571
     87 C                     0.015315
     88 C                    -0.009854
     89 O                    -0.465325
     90 C                    -0.082203
     91 H                     0.125678
     92 H                     0.127713
     93 H                     0.126953
     94 O                    -0.466905
     95 C                     0.594148
     96 C                    -0.263329
     97 H                     0.125473
     98 H                     0.133876
     99 C                    -0.186080
    100 H                     0.108832
    101 H                     0.128669
    102 C                    -0.185091
    103 H                     0.105840
    104 H                     0.116368
    105 C                     0.009433
    106 C                     0.081962
    107 C                    -0.108784
    108 H                     0.094896
    109 C                    -0.091228
    110 H                     0.094592
    111 C                    -0.082756
    112 H                     0.093329
    113 C                    -0.096427
    114 H                     0.090237
    115 C                    -0.111125
    116 H                     0.094105
    117 C                     0.039264
    118 C                     0.006840
    119 C                     0.007166
    120 C                    -0.004532
    121 C                     0.024416
    122 C                    -0.007143
    123 C                    -0.012059
    124 C                     0.017055
    125 C                     0.003237
    126 C                     0.014736
    127 C                    -0.060805
    128 C                     0.008501
    129 C                     0.010767
    130 C                    -0.027492
    131 C                     0.012883
    132 C                    -0.005285
    133 C                    -0.105206
    134 C                     0.024780
    135 C                     0.008730
    136 C                     0.007360
    137 C                     0.022329
    138 C                    -0.005826
    139 C                    -0.010491
    140 C                     0.039467
    141 C                     0.025186
    142 C                    -0.018024
    143 C                    -0.020209
    144 C                    -0.015896
    145 C                    -0.035234
    146 C                     0.005252
    147 C                     0.007193
    148 C                     0.020797
    149 C                    -0.006170
    150 C                     0.011919
    151 C                    -0.009616
    152 C                     0.012573
    153 C                     0.032817
    154 C                     0.014188
    155 C                     0.031753
    156 C                    -0.023035
    157 C                    -0.024203
    158 C                     0.019996
    159 C                     0.017142
    160 C                     0.026318
    161 C                    -0.020449
    162 C                    -0.014188
    163 C                    -0.038297
    164 C                    -0.004779
    165 C                    -0.006019
    166 C                    -0.003301
    167 C                     0.006520
    168 C                    -0.003427
    169 C                    -0.032512
    170 C                    -0.004618
    171 C                     0.003151
    172 C                     0.022796
    173 C                    -0.037637
    174 C                    -0.021847
    175 C                    -0.028821
    176 C                    -0.011856
  ----------------------------------------
  Sum of atomic charges =     0.000000

                    Cartesian Multipole Moments
 -----------------------------------------------------------------
    Charge (ESU x 10^10)
                 0.0000
    Dipole Moment (Debye)
         X      -0.9521      Y      -0.9556      Z       0.0742
       Tot       1.3510
    Quadrupole Moments (Debye-Ang)
        XX    -757.2614     XY      51.6968     YY    -797.2780
        XZ      -7.4464     YZ      -4.4903     ZZ    -797.6703

 Total job time:  834.45s(wall), 7044.39s(cpu)
        *  Thank you very much for using Q-Chem.  Have a nice day.  *
