 Q-Chem 4.4, Q-Chem, Inc., Pleasanton, CA (2016)
 Q-Chem 4.4.2 for Intel X86 Linux

User input:
--------------------------------------------------------------
$comment
SP
$end

$rem
MEM_STATIC 5000
MEM_TOTAL 20000
JOBTYPE SP
EXCHANGE B3LYP
BASIS 6-31g(d,p)
$end

$molecule
0 1
O         -19.687000     -2.086000     -7.426000
C         -20.590000     -2.967000     -6.814000
H         -20.397000     -3.994000     -7.148000
H         -21.647000     -2.704000     -6.950000
H         -20.484000     -3.005000     -5.723000
O         -20.155000     -0.374000     -6.036000
C         -19.641000     -0.806000     -7.062000
C         -18.773000      0.032000     -7.901000
H         -19.311000      0.142000     -8.850000
H         -17.813000     -0.476000     -8.053000
C         -18.534000      1.474000     -7.277000
H         -19.424000      2.116000     -7.297000
H         -18.267000      1.303000     -6.227000
C         -17.400000      2.310000     -7.922000
H         -16.928000      2.936000     -7.154000
H         -16.547000      1.654000     -8.135000
C         -17.839000      3.133000     -9.146000
C         -18.488000      2.257000    -10.231000
C         -19.900000      2.337000    -10.523000
H         -20.448000      2.991000     -9.851000
C         -20.521000      1.496000    -11.395000
H         -21.580000      1.633000    -11.589000
C         -19.792000      0.628000    -12.208000
H         -20.284000     -0.032000    -12.917000
C         -18.372000      0.639000    -12.034000
H         -17.722000      0.068000    -12.690000
C         -17.803000      1.398000    -11.030000
H         -16.739000      1.345000    -10.819000
C         -16.225000      7.026000    -12.724000
C         -18.635000      7.314000    -12.550000
C         -18.523000     11.250000    -10.270000
C         -14.157000      7.117000     -7.984000
C         -19.146000      9.787000     -7.195000
C         -17.520000      6.469000    -12.564000
C         -15.762000      8.910000     -6.533000
C         -17.143000     10.486000    -12.087000
C         -20.150000      6.192000     -8.949000
C         -15.156000      6.583000     -7.137000
C         -18.308000      4.540000     -8.930000
C         -19.460000      6.257000     -7.726000
C         -17.153000      6.878000     -6.237000
C         -16.841000      9.803000     -6.542000
C         -19.042000      5.697000    -11.064000
C         -17.623000     11.432000     -8.170000
C         -17.000000      4.283000     -9.565000
C         -15.803000      4.812000     -8.775000
C         -18.912000     10.858000     -8.082000
C         -14.262000     10.007000    -10.095000
C         -16.035000     11.353000    -10.096000
C         -15.992000     10.797000    -11.355000
C         -17.186000      9.258000    -12.750000
C         -14.896000      5.414000     -9.696000
C         -19.418000      5.251000     -9.728000
C         -18.491000      8.691000    -12.663000
C         -15.886000      7.490000     -6.401000
C         -19.592000      6.861000    -11.646000
C         -19.378000      7.487000     -7.049000
C         -13.892000      7.626000    -10.190000
C         -18.412000     10.663000    -11.519000
C         -18.393000      5.345000     -7.652000
C         -14.925000      8.706000    -12.040000
C         -18.254000      7.852000     -6.340000
C         -20.607000      7.411000     -9.528000
C         -15.330000     10.665000     -7.900000
C         -14.751000      9.485000     -7.323000
C         -20.518000      8.667000     -8.814000
C         -14.167000      6.594000     -9.279000
C         -15.968000      5.490000     -7.507000
C         -13.827000      8.806000     -9.507000
C         -16.742000      4.855000    -10.962000
C         -20.162000      9.106000    -10.963000
C         -17.210000      5.737000     -6.990000
C         -19.935000      8.691000     -7.562000
C         -14.425000      7.524000    -11.494000
C         -19.461000     10.792000     -9.361000
C         -16.096000      8.407000    -12.743000
C         -17.370000     11.613000     -9.532000
C         -20.386000      7.693000    -10.871000
C         -20.295000      9.705000     -9.668000
C         -17.788000      5.424000    -11.679000
C         -15.444000      5.402000    -10.986000
C         -15.004000     10.909000     -9.280000
C         -19.212000      9.610000    -11.858000
C         -18.103000      9.274000     -6.414000
C         -13.982000      8.518000     -8.115000
C         -16.603000     10.904000     -7.348000
C         -15.195000      6.464000    -11.918000
C         -14.876000      9.928000    -11.315000
O         -10.726000     11.463000     -7.314000
C         -11.291000     10.339000     -8.063000
H         -10.550000      9.936000     -8.765000
H         -12.086000     10.672000     -8.743000
H         -11.694000      9.621000     -7.339000
O         -12.591000     12.194000     -6.366000
C         -11.448000     12.324000     -6.579000
C         -10.588000     13.200000     -5.715000
H          -9.566000     13.266000     -6.108000
H         -10.559000     12.567000     -4.820000
C         -11.250000     14.583000     -5.477000
H         -12.329000     14.470000     -5.316000
H         -10.884000     15.154000     -4.614000
C         -11.073000     15.489000     -6.696000
H         -10.027000     15.736000     -6.916000
H         -11.444000     14.839000     -7.498000
C         -11.894000     16.739000     -6.559000
C         -11.273000     17.820000     -5.669000
C         -10.322000     18.766000     -6.183000
H         -10.085000     18.774000     -7.243000
C          -9.627000     19.640000     -5.365000
H          -8.956000     20.326000     -5.875000
C          -9.772000     19.615000     -3.962000
H          -9.436000     20.482000     -3.401000
C         -10.761000     18.756000     -3.453000
H         -11.036000     18.811000     -2.404000
C         -11.478000     17.849000     -4.274000
H         -12.219000     17.205000     -3.810000
C         -16.748000     19.192000     -6.290000
C         -15.384000     20.793000     -7.588000
C         -17.353000     19.997000    -11.693000
C         -16.489000     14.517000     -8.288000
C         -14.764000     17.716000    -12.742000
C         -15.494000     19.823000     -6.541000
C         -16.228000     14.864000    -11.108000
C         -18.261000     20.094000     -9.449000
C         -12.518000     18.824000     -9.625000
C         -15.230000     14.481000     -8.929000
C         -12.406000     17.299000     -7.854000
C         -12.439000     17.525000    -10.175000
C         -13.908000     15.235000    -10.567000
C         -16.057000     15.738000    -12.212000
C         -13.466000     19.569000     -7.506000
C         -17.207000     17.844000    -12.443000
C         -13.374000     16.723000     -6.800000
C         -14.189000     15.531000     -7.045000
C         -15.978000     18.481000    -12.772000
C         -19.103000     16.707000     -9.067000
C         -18.868000     18.218000    -10.775000
C         -19.051000     18.910000     -9.642000
C         -17.718000     20.374000     -8.212000
C         -15.468000     15.795000     -6.560000
C         -12.548000     18.750000     -8.220000
C         -16.519000     21.098000     -8.411000
C         -15.127000     14.582000    -10.319000
C         -14.104000     20.634000     -8.190000
C         -13.047000     17.311000    -11.431000
C         -17.846000     15.994000     -7.147000
C         -17.477000     20.611000    -10.440000
C         -12.484000     16.574000     -9.163000
C         -18.641000     18.301000     -7.254000
C         -13.677000     16.118000    -11.659000
C         -13.201000     19.860000    -10.304000
C         -18.079000     15.961000    -11.231000
C         -17.444000     14.924000    -10.523000
C         -13.748000     19.608000    -11.561000
C         -16.652000     15.289000     -7.148000
C         -14.128000     14.975000     -8.311000
C         -18.407000     15.676000     -8.392000
C         -14.309000     17.705000     -6.173000
C         -15.103000     21.013000    -10.412000
C         -13.301000     15.469000     -9.329000
C         -13.683000     18.339000    -12.183000
C         -17.974000     17.256000     -6.525000
C         -16.071000     19.822000    -12.255000
C         -17.843000     19.471000     -7.139000
C         -18.051000     18.741000    -11.818000
C         -14.001000     20.763000     -9.575000
C         -14.946000     20.352000    -11.635000
C         -14.336000     19.053000     -6.543000
C         -15.550000     17.064000     -6.004000
C         -18.881000     16.816000    -10.462000
C         -16.360000     21.158000     -9.798000
C         -14.792000     16.358000    -12.489000
C         -17.618000     14.809000     -9.088000
C         -17.205000     16.448000    -12.240000
C         -16.803000     17.785000     -6.010000
C         -19.194000     18.045000     -8.542000
$end

--------------------------------------------------------------

             Standard Nuclear Orientation (Angstroms)
    I     Atom           X                Y                Z
 ----------------------------------------------------------------
    1      O     -14.2846390551     1.3703797946    -1.7392139740
    2      C     -15.3301220387     1.2685136049    -2.6680318304
    3      H     -16.2934426653     1.4265658250    -2.1674652853
    4      H     -15.3381802356     0.3347927839    -3.2451059105
    5      H     -15.2920450374     2.0394019454    -3.4472893671
    6      O     -12.6767898827     1.5192084146    -3.3123443184
    7      C     -13.0167502685     1.3552235964    -2.1457115932
    8      C     -12.0316628089     1.2980396042    -1.0567112773
    9      H     -12.0985211708     0.2769745799    -0.6628824114
   10      H     -12.2975472200     2.0318833595    -0.2862913771
   11      C     -10.5481981847     1.5551110413    -1.5657377844
   12      H     -10.1432114109     0.7369073259    -2.1749933901
   13      H     -10.6017329426     2.4497248828    -2.1980589879
   14      C      -9.4916896791     1.8190483546    -0.4634656436
   15      H      -8.7358367542     2.5177318559    -0.8442696890
   16      H      -9.9297272169     2.4666578813     0.3059750730
   17      C      -8.8559914258     0.5452762325     0.1210155894
   18      C      -9.9113728173    -0.4302687438     0.6689974483
   19      C     -10.1900254938    -1.6878409093     0.0161016416
   20      H      -9.6591546818    -1.8191604014    -0.9222668212
   21      C     -11.1950945358    -2.5166106470     0.4114280164
   22      H     -11.3283450512    -3.4608302424    -0.1068186967
   23      C     -11.8957121318    -2.2916521752     1.5964861036
   24      H     -12.6867116920    -2.9609888547     1.9230639738
   25      C     -11.5322530361    -1.1217238249     2.3353786133
   26      H     -11.9571973784    -0.9220016029     3.3143629543
   27      C     -10.6133277090    -0.2314425925     1.8149618856
   28      H     -10.3967009590     0.7089524942     2.3131144045
   29      C      -4.8527803187    -1.3311392178     3.4400357595
   30      C      -5.1513337438    -3.0893035897     1.7844259342
   31      C      -1.2074419029    -2.4310383773    -0.3870813897
   32      C      -4.0486895644     3.1662801221     1.0153373576
   33      C      -2.6379053867    -0.6544962544    -2.9912694219
   34      C      -5.6998991613    -2.0798856586     2.5829229117
   35      C      -2.6358158970     2.4843253928    -1.3159714480
   36      C      -1.6943648870    -2.3699284329     1.9684984927
   37      C      -6.4443677847    -1.7252418007    -1.8195591386
   38      C      -4.7706654589     3.0644548932    -0.1966644702
   39      C      -7.5968165627     0.0242422490    -0.5028980683
   40      C      -6.1586661005    -0.4567023683    -2.3536342795
   41      C      -4.9294000902     2.0687195749    -2.1634762285
   42      C      -2.0330292374     1.4770521333    -2.0800524803
   43      C      -6.7501322634    -2.1127783642     0.5683766846
   44      C      -0.7178443213    -0.4813679223    -1.4880824456
   45      C      -7.5567013881     0.6617565509     0.8283060060
   46      C      -6.7177253226     1.9381556440     0.8889237982
   47      C      -1.5832220422    -1.2670271025    -2.2834452891
   48      C      -1.3688938402     1.1388773231     2.2513708391
   49      C      -0.4953850582    -0.4813080768     0.9994811964
   50      C      -1.0804178200    -1.1170264700     2.0717054229
   51      C      -2.9246066239    -2.5510597878     2.6033990370
   52      C      -5.9555408671     1.9099977890     2.0937374730
   53      C      -7.2134617137    -1.4609132231    -0.6504693510
   54      C      -3.7871333060    -3.3508445073     1.7981195046
   55      C      -4.0359686660     2.7820668368    -1.3270283974
   56      C      -5.7820500061    -3.1415447913     0.5443687366
   57      C      -4.9163813880    -0.2380323554    -2.9756191011
   58      C      -3.5904710602     1.8727691819     2.8353942935
   59      C      -1.8055437954    -3.0028510536     0.7229615778
   60      C      -6.7798507013     0.5864132923    -1.6452922644
   61      C      -2.8782419651    -0.2935909878     3.5103775016
   62      C      -4.2577037327     0.9685367838    -2.8775545362
   63      C      -5.4002629857    -2.6944148163    -1.7950676178
   64      C      -0.8918617112     1.5711229665    -0.1934639307
   65      C      -1.8686281739     2.6219437156    -0.1457876186
   66      C      -4.1294170297    -2.4529687189    -2.4446115640
   67      C      -4.6162425091     2.4611714962     2.0789911926
   68      C      -6.0437070318     2.4616973529    -0.2799801426
   69      C      -2.4004957294     2.0933092589     2.2041773843
   70      C      -7.0026921132    -0.1439969747     2.0069458914
   71      C      -3.7143538407    -3.6274584722    -0.6045152707
   72      C      -6.0827945059     1.8018733604    -1.4774635322
   73      C      -3.9081313976    -1.2375012749    -3.0623822024
   74      C      -3.8775344622     0.6790910717     3.5337038041
   75      C      -1.8381622226    -2.4648361240    -1.6187219990
   76      C      -3.4841132673    -1.5459096577     3.3708464500
   77      C      -0.5423508356    -1.1841572895    -0.2934682225
   78      C      -5.1338186552    -3.4311693588    -0.6469325374
   79      C      -3.1078962155    -3.0459134001    -1.7653466443
   80      C      -6.7377383252    -1.4997057571     1.8526112304
   81      C      -6.1584078132     0.6943385938     2.7612445692
   82      C      -0.6383983467     0.8980636874     1.0527140380
   83      C      -3.0355138053    -3.5858819389     0.6181819927
   84      C      -2.8464410101     0.7269043540    -2.8952264478
   85      C      -2.6545132232     2.9114755293     1.0593140445
   86      C      -0.9446553066     0.9117398091    -1.4363559968
   87      C      -5.1108286767     0.0668092576     3.5144071579
   88      C      -1.6495636010    -0.0678361584     2.8316328997
   89      O       1.0262496069     5.2126974917     2.0949416166
   90      C      -0.2339004755     4.5642634712     2.4625787895
   91      H      -0.4760188627     4.7668896094     3.5135856090
   92      H      -0.1349875703     3.4708604956     2.4621664758
   93      H      -0.9949261110     4.8716098853     1.7356075632
   94      O       1.3242268842     4.2513226347     0.1205409666
   95      C       1.7182709331     4.9456489261     0.9757358501
   96      C       2.8149549260     5.9407894180     0.7298667365
   97      H       3.1094797633     6.4456550420     1.6581203774
   98      H       2.2489434583     6.6602927565     0.1261275839
   99      C       4.0049793023     5.2942135062    -0.0273377102
  100      H       3.6406132329     4.6115594041    -0.8046096989
  101      H       4.6860663676     5.9849442600    -0.5409303847
  102      C       4.8709748846     4.4668544906     0.9232698380
  103      H       5.3545119648     5.0587886547     1.7102455920
  104      H       4.1148703758     3.8277138616     1.3956576321
  105      C       5.8889467402     3.6668011349     0.1623769879
  106      C       7.1273859504     4.4547998245    -0.2753768102
  107      C       8.2519291984     4.6398901323     0.5990699071
  108      H       8.2695040392     4.1517712457     1.5692575578
  109      C       9.3045193821     5.4830982086     0.2874948037
  110      H      10.1092829897     5.5174018823     1.0169574785
  111      C       9.3082729543     6.2586102257    -0.8909049680
  112      H      10.2552904868     6.6735516453    -1.2230004533
  113      C       8.2585758372     6.0230669297    -1.7951938146
  114      H       8.2923209054     6.4621795555    -2.7877120121
  115      C       7.1685291286     5.1686617794    -1.4909422541
  116      H       6.3853860011     5.0440232781    -2.2327408022
  117      C       7.0988288372    -0.3314922223    -3.3305761382
  118      C       8.9230772869    -0.4701752590    -1.6688343986
  119      C       7.4884997434    -4.3428927110     0.4061713384
  120      C       2.5416792433    -0.3750773955    -1.0622732679
  121      C       5.8599089736    -2.5664999559     3.0891554763
  122      C       8.0035938609     0.3135136796    -2.4366826107
  123      C       2.8142885460    -2.0209900391     1.2523726526
  124      C       7.4630008400    -3.6384931973    -1.9117113444
  125      C       7.6195972008     0.8272215410     1.9169691666
  126      C       2.7837688654     0.1740625370     0.2172172359
  127      C       6.2488663641     2.3509300515     0.7882445109
  128      C       6.3552847366     0.8236137042     2.5475585548
  129      C       3.7617571413    -0.0253344669     2.2179730348
  130      C       3.6529992495    -2.7738805906     2.1135655307
  131      C       8.2066600520     1.2828636891    -0.4050208079
  132      C       5.4039304067    -4.2363946638     1.3348552708
  133      C       5.5030485463     2.4110663544    -0.5607756550
  134      C       4.1389785731     1.9058155530    -0.7315056635
  135      C       6.3049223386    -3.6602605232     2.2733295596
  136      C       3.9936688234    -3.2952980528    -2.3271742806
  137      C       5.4379687392    -4.5166704177    -1.0318529693
  138      C       6.1150986485    -4.0941914322    -2.1084441604
  139      C       7.9219567536    -2.5178869250    -2.5727855095
  140      C       4.1059340503     1.1945573619    -1.9289119626
  141      C       7.6038970496     1.7007274262     0.8137275911
  142      C       8.9058198491    -1.9016672710    -1.7642901493
  143      C       2.8440416120    -0.6412393940     1.3506015296
  144      C       9.0528387212     0.1457876704    -0.3921838436
  145      C       5.9436362032    -0.3718780773     3.1755242269
  146      C       3.6946315417    -0.9969440662    -2.9619684649
  147      C       8.1097866516    -3.7841646852    -0.7181980719
  148      C       5.4684260442     1.6299367290     1.8447820331
  149      C       5.7321575639    -2.1595510734    -3.6420829079
  150      C       4.6243052476    -0.7277314096     3.1057586504
  151      C       8.4269683168    -0.3341318380     1.9016000395
  152      C       3.4220725151    -3.7219947624     0.0768214720
  153      C       2.6033781420    -2.5782063210     0.0401400773
  154      C       7.9932716216    -1.4763308551     2.5724581332
  155      C       3.3015028721     0.0494141537    -2.1414525755
  156      C       3.5580032229     1.2791921667     0.3572660179
  157      C       3.1941205970    -2.1277992359    -2.3012677918
  158      C       6.2557089992     1.8906394740    -1.7415957534
  159      C       9.0773023848    -2.0760763913     0.6762952721
  160      C       4.1917318066     1.1537984285     1.6010318691
  161      C       6.7513845254    -1.5420200326     3.2468996596
  162      C       4.9144310225    -0.9769133290    -3.6744289876
  163      C       7.6050450381    -3.6969112976     1.6548178888
  164      C       7.0649234370    -1.7436761480    -3.3780522770
  165      C       6.0962427100    -4.6714981426     0.2217700821
  166      C       9.1404686288    -0.6724546699     0.7339935279
  167      C       8.4198407935    -2.5811125938     1.8032299153
  168      C       7.5386898284     1.3463829558    -1.6298906308
  169      C       5.3407181038     1.2061818978    -2.5624687568
  170      C       4.0903770594    -4.0263552242    -1.1174664939
  171      C       8.9401029843    -2.6642649232    -0.5938545519
  172      C       4.5486062752    -2.1345354758     3.0357801910
  173      C       2.5143185505    -1.7848529144    -1.1703906994
  174      C       4.0608413031    -3.8050389377     1.3433932625
  175      C       5.7347024714     0.1077890427    -3.4158124471
  176      C       5.2917307836    -3.3247903699    -2.9503238218
 ----------------------------------------------------------------

    9   -5804.2622246012      8.15E-06 Convergence criterion met
 Total energy in the final basis set = -5804.2622246012

                    Orbital Energies (a.u.)
 --------------------------------------------------------------

 Alpha MOs
 -- Occupied --
-19.196 -19.182 -19.129 -19.126 -10.310 -10.307 -10.244 -10.243
-10.241 -10.240 -10.240 -10.236 -10.235 -10.232 -10.232 -10.232
-10.230 -10.227 -10.226 -10.225 -10.224 -10.224 -10.223 -10.222
-10.222 -10.222 -10.221 -10.221 -10.220 -10.220 -10.220 -10.220
-10.219 -10.219 -10.218 -10.218 -10.218 -10.218 -10.218 -10.218
-10.217 -10.217 -10.217 -10.217 -10.217 -10.217 -10.216 -10.216
-10.216 -10.216 -10.216 -10.215 -10.215 -10.215 -10.215 -10.215
-10.214 -10.214 -10.214 -10.214 -10.214 -10.214 -10.214 -10.214
-10.214 -10.213 -10.213 -10.213 -10.213 -10.213 -10.213 -10.213
-10.213 -10.213 -10.213 -10.213 -10.212 -10.212 -10.212 -10.212
-10.212 -10.212 -10.212 -10.212 -10.212 -10.212 -10.212 -10.212
-10.211 -10.211 -10.211 -10.211 -10.211 -10.211 -10.211 -10.211
-10.211 -10.211 -10.210 -10.210 -10.210 -10.210 -10.210 -10.210
-10.210 -10.210 -10.210 -10.210 -10.210 -10.210 -10.210 -10.209
-10.209 -10.209 -10.209 -10.209 -10.209 -10.209 -10.208 -10.208
-10.207 -10.207 -10.207 -10.207 -10.207 -10.207 -10.207 -10.206
-10.206 -10.205 -10.205 -10.205 -10.205 -10.203 -10.201 -10.201
-10.200 -10.200 -10.199 -10.199 -10.198 -10.197 -10.197 -10.197
-10.196 -10.195 -10.194 -10.190  -1.109  -1.102  -1.019  -1.007
 -0.982  -0.981  -0.964  -0.964  -0.962  -0.961  -0.960  -0.959
 -0.935  -0.931  -0.928  -0.926  -0.924  -0.924  -0.922  -0.921
 -0.920  -0.916  -0.899  -0.896  -0.890  -0.888  -0.884  -0.883
 -0.876  -0.871  -0.860  -0.849  -0.840  -0.839  -0.838  -0.837
 -0.834  -0.834  -0.818  -0.818  -0.803  -0.800  -0.798  -0.797
 -0.794  -0.794  -0.793  -0.793  -0.791  -0.788  -0.782  -0.781
 -0.771  -0.768  -0.767  -0.766  -0.765  -0.764  -0.762  -0.759
 -0.756  -0.748  -0.747  -0.744  -0.733  -0.730  -0.715  -0.715
 -0.714  -0.714  -0.712  -0.711  -0.709  -0.709  -0.708  -0.707
 -0.706  -0.706  -0.704  -0.703  -0.703  -0.702  -0.674  -0.669
 -0.656  -0.656  -0.656  -0.655  -0.645  -0.643  -0.631  -0.630
 -0.629  -0.626  -0.624  -0.621  -0.621  -0.620  -0.615  -0.615
 -0.613  -0.612  -0.611  -0.610  -0.609  -0.608  -0.608  -0.607
 -0.604  -0.602  -0.602  -0.602  -0.570  -0.564  -0.562  -0.561
 -0.560  -0.559  -0.557  -0.557  -0.555  -0.553  -0.552  -0.551
 -0.539  -0.531  -0.530  -0.530  -0.529  -0.527  -0.524  -0.524
 -0.523  -0.520  -0.520  -0.519  -0.516  -0.514  -0.512  -0.511
 -0.509  -0.505  -0.504  -0.502  -0.497  -0.493  -0.490  -0.487
 -0.484  -0.482  -0.481  -0.480  -0.480  -0.476  -0.476  -0.473
 -0.471  -0.471  -0.470  -0.469  -0.468  -0.466  -0.465  -0.464
 -0.464  -0.463  -0.462  -0.461  -0.460  -0.460  -0.459  -0.456
 -0.456  -0.450  -0.449  -0.448  -0.446  -0.445  -0.445  -0.443
 -0.442  -0.441  -0.440  -0.437  -0.435  -0.435  -0.434  -0.433
 -0.431  -0.429  -0.428  -0.428  -0.425  -0.424  -0.424  -0.423
 -0.423  -0.420  -0.420  -0.420  -0.419  -0.418  -0.417  -0.417
 -0.417  -0.416  -0.415  -0.414  -0.413  -0.411  -0.411  -0.410
 -0.410  -0.408  -0.408  -0.406  -0.402  -0.399  -0.395  -0.395
 -0.393  -0.392  -0.390  -0.390  -0.389  -0.385  -0.385  -0.381
 -0.377  -0.377  -0.374  -0.372  -0.371  -0.369  -0.367  -0.367
 -0.364  -0.363  -0.362  -0.361  -0.359  -0.359  -0.356  -0.355
 -0.355  -0.354  -0.354  -0.352  -0.351  -0.350  -0.350  -0.348
 -0.347  -0.347  -0.346  -0.345  -0.344  -0.343  -0.342  -0.342
 -0.342  -0.341  -0.340  -0.337  -0.336  -0.335  -0.333  -0.332
 -0.331  -0.330  -0.328  -0.327  -0.325  -0.323  -0.323  -0.323
 -0.311  -0.304  -0.299  -0.297  -0.287  -0.279  -0.272  -0.270
 -0.270  -0.267  -0.266  -0.266  -0.264  -0.264  -0.263  -0.262
 -0.262  -0.261  -0.258  -0.257  -0.256  -0.256  -0.255  -0.254
 -0.251  -0.247  -0.243  -0.243  -0.219  -0.216  -0.211  -0.209
 -0.208  -0.207  -0.204  -0.203  -0.201  -0.198

          Ground-State Mulliken Net Atomic Charges

     Atom                 Charge (a.u.)
  ----------------------------------------
      1 O                    -0.443401
      2 C                    -0.089637
      3 H                     0.119736
      4 H                     0.122409
      5 H                     0.127589
      6 O                    -0.484213
      7 C                     0.601220
      8 C                    -0.269321
      9 H                     0.151935
     10 H                     0.128199
     11 C                    -0.173549
     12 H                     0.113862
     13 H                     0.120474
     14 C                    -0.195685
     15 H                     0.108776
     16 H                     0.098356
     17 C                     0.011500
     18 C                     0.090923
     19 C                    -0.101006
     20 H                     0.091180
     21 C                    -0.099298
     22 H                     0.093690
     23 C                    -0.089044
     24 H                     0.097257
     25 C                    -0.091132
     26 H                     0.093008
     27 C                    -0.105123
     28 H                     0.081118
     29 C                    -0.023003
     30 C                     0.002683
     31 C                     0.011257
     32 C                    -0.033168
     33 C                     0.011429
     34 C                    -0.008221
     35 C                     0.037265
     36 C                    -0.012221
     37 C                    -0.020948
     38 C                    -0.018565
     39 C                    -0.074303
     40 C                     0.011702
     41 C                    -0.063850
     42 C                     0.016207
     43 C                     0.013108
     44 C                    -0.009613
     45 C                    -0.076605
     46 C                     0.004269
     47 C                    -0.007088
     48 C                    -0.022162
     49 C                    -0.002313
     50 C                     0.018871
     51 C                    -0.000514
     52 C                     0.006388
     53 C                    -0.014949
     54 C                    -0.019293
     55 C                     0.018009
     56 C                     0.013051
     57 C                     0.014683
     58 C                     0.012084
     59 C                     0.007917
     60 C                     0.047535
     61 C                    -0.017629
     62 C                    -0.013775
     63 C                     0.010371
     64 C                     0.031064
     65 C                    -0.021559
     66 C                     0.005967
     67 C                    -0.000863
     68 C                     0.023888
     69 C                     0.016503
     70 C                     0.032672
     71 C                    -0.034185
     72 C                     0.028599
     73 C                    -0.022619
     74 C                    -0.003742
     75 C                     0.003182
     76 C                     0.029892
     77 C                    -0.000587
     78 C                    -0.003531
     79 C                     0.006875
     80 C                     0.009058
     81 C                     0.012909
     82 C                    -0.004752
     83 C                     0.020613
     84 C                    -0.016574
     85 C                    -0.030653
     86 C                     0.015116
     87 C                    -0.008644
     88 C                    -0.005096
     89 O                    -0.482913
     90 C                    -0.086917
     91 H                     0.126083
     92 H                     0.126785
     93 H                     0.133280
     94 O                    -0.439380
     95 C                     0.572136
     96 C                    -0.251957
     97 H                     0.116442
     98 H                     0.141288
     99 C                    -0.195058
    100 H                     0.127757
    101 H                     0.100285
    102 C                    -0.169980
    103 H                     0.110266
    104 H                     0.105856
    105 C                     0.024563
    106 C                     0.083741
    107 C                    -0.092418
    108 H                     0.089122
    109 C                    -0.094794
    110 H                     0.090049
    111 C                    -0.091050
    112 H                     0.097777
    113 C                    -0.097038
    114 H                     0.090472
    115 C                    -0.110106
    116 H                     0.092768
    117 C                    -0.022321
    118 C                    -0.016164
    119 C                    -0.028411
    120 C                    -0.031684
    121 C                     0.020271
    122 C                    -0.009654
    123 C                     0.011560
    124 C                     0.014439
    125 C                    -0.007839
    126 C                     0.008934
    127 C                    -0.117222
    128 C                     0.006112
    129 C                    -0.019523
    130 C                     0.015101
    131 C                     0.014036
    132 C                     0.008596
    133 C                    -0.089359
    134 C                     0.028762
    135 C                    -0.018061
    136 C                    -0.016864
    137 C                    -0.000678
    138 C                     0.000583
    139 C                     0.012314
    140 C                     0.008302
    141 C                     0.010952
    142 C                    -0.019431
    143 C                    -0.000491
    144 C                    -0.012905
    145 C                    -0.003350
    146 C                     0.023089
    147 C                     0.011559
    148 C                     0.042021
    149 C                    -0.014606
    150 C                    -0.024381
    151 C                     0.002646
    152 C                    -0.042210
    153 C                     0.007182
    154 C                     0.000874
    155 C                    -0.007831
    156 C                     0.038995
    157 C                    -0.003545
    158 C                     0.029730
    159 C                     0.003379
    160 C                    -0.004018
    161 C                    -0.004198
    162 C                    -0.021546
    163 C                     0.003741
    164 C                     0.006430
    165 C                     0.004350
    166 C                     0.001267
    167 C                    -0.003457
    168 C                     0.042756
    169 C                    -0.005178
    170 C                     0.012696
    171 C                    -0.003311
    172 C                    -0.015512
    173 C                     0.014373
    174 C                     0.017252
    175 C                     0.015125
    176 C                    -0.002705
  ----------------------------------------
  Sum of atomic charges =     0.000000

                    Cartesian Multipole Moments
 -----------------------------------------------------------------
    Charge (ESU x 10^10)
                 0.0000
    Dipole Moment (Debye)
         X      -3.2783      Y       2.4112      Z       2.4435
       Tot       4.7468
    Quadrupole Moments (Debye-Ang)
        XX    -734.3799     XY      25.2257     YY    -793.5930
        XZ     -18.1951     YZ       6.3482     ZZ    -814.4472

 Total job time:  862.74s(wall), 7316.08s(cpu)
        *  Thank you very much for using Q-Chem.  Have a nice day.  *
