 Q-Chem 4.4, Q-Chem, Inc., Pleasanton, CA (2016)
 Q-Chem 4.4.2 for Intel X86 Linux

User input:
--------------------------------------------------------------
$comment
SP
$end

$rem
MEM_STATIC 5000
MEM_TOTAL 20000
JOBTYPE SP
EXCHANGE B3LYP
BASIS 6-31g(d,p)
$end

$molecule
0 1
O         -21.951000    -21.112000      6.329000
C         -22.655000    -22.319000      6.735000
H         -23.169000    -21.976000      7.641000
H         -21.942000    -23.129000      6.932000
H         -23.367000    -22.661000      5.975000
O         -20.233000    -21.581000      7.740000
C         -20.698000    -20.852000      6.904000
C         -20.165000    -19.496000      6.533000
H         -19.831000    -19.548000      5.490000
H         -19.350000    -19.327000      7.248000
C         -21.219000    -18.314000      6.658000
H         -22.019000    -18.513000      5.934000
H         -21.637000    -18.398000      7.669000
C         -20.590000    -17.044000      6.342000
H         -19.710000    -16.786000      6.944000
H         -20.088000    -17.121000      5.370000
C         -21.553000    -15.826000      6.408000
C         -21.949000    -15.706000      7.834000
C         -21.217000    -14.927000      8.709000
H         -20.278000    -14.537000      8.329000
C         -21.570000    -14.889000     10.029000
H         -20.984000    -14.410000     10.807000
C         -22.729000    -15.568000     10.482000
H         -23.015000    -15.718000     11.519000
C         -23.521000    -16.322000      9.618000
H         -24.410000    -16.866000      9.924000
C         -23.147000    -16.325000      8.277000
H         -23.687000    -16.954000      7.575000
C         -25.881000    -13.048000      4.690000
C         -24.359000    -11.339000      5.566000
C         -23.227000     -9.555000      1.641000
C         -23.475000    -15.815000      1.258000
C         -20.175000    -11.141000      1.414000
C         -24.866000    -12.625000      5.592000
C         -21.609000    -14.153000     -0.076000
C         -25.397000    -10.362000      2.454000
C         -20.469000    -12.417000      5.231000
C         -22.129000    -15.805000      1.626000
C         -21.314000    -14.658000      5.535000
C         -19.778000    -13.190000      4.298000
C         -20.293000    -14.594000      1.948000
C         -21.129000    -12.850000     -0.089000
C         -22.677000    -12.661000      6.244000
C         -22.187000    -10.806000      0.033000
C         -22.515000    -15.470000      5.280000
C         -22.789000    -16.190000      4.006000
C         -21.242000    -10.360000      0.988000
C         -25.473000    -13.115000      0.341000
C         -24.583000    -10.995000      0.260000
C         -25.606000    -11.043000      1.284000
C         -25.773000    -10.886000      3.697000
C         -24.093000    -16.062000      3.567000
C         -21.421000    -13.200000      5.912000
C         -24.794000    -10.420000      4.604000
C         -21.224000    -14.993000      0.995000
C         -23.010000    -11.358000      5.910000
C         -19.537000    -12.603000      3.075000
C         -25.512000    -15.073000      1.852000
C         -24.213000     -9.583000      2.617000
C         -20.361000    -14.518000      4.361000
C         -26.579000    -12.912000      2.507000
C         -19.770000    -13.300000      1.907000
C         -20.830000    -11.065000      4.971000
C         -23.309000    -12.790000     -0.805000
C         -23.004000    -14.100000     -0.489000
C         -20.487000    -10.479000      3.749000
C         -24.486000    -15.941000      2.223000
C         -21.832000    -15.987000      2.989000
C         -25.170000    -14.422000      0.618000
C         -23.809000    -14.802000      5.513000
C         -22.496000     -9.570000      4.364000
C         -20.679000    -15.189000      3.153000
C         -19.844000    -11.280000      2.778000
C         -26.197000    -14.273000      2.821000
C         -21.878000     -9.553000      1.953000
C         -26.380000    -12.175000      3.711000
C         -23.428000    -10.185000      0.421000
C         -22.079000    -10.558000      5.251000
C         -21.508000     -9.597000      3.345000
C         -23.849000    -13.462000      6.047000
C         -24.671000    -15.195000      4.568000
C         -24.559000    -12.273000     -0.371000
C         -23.859000     -9.644000      3.964000
C         -20.205000    -12.405000      0.898000
C         -23.908000    -14.907000      0.240000
C         -22.148000    -12.072000     -0.524000
C         -25.727000    -14.338000      4.163000
C         -26.193000    -12.297000      1.292000
O         -21.378000    -24.532000     -9.254000
C         -22.758000    -24.948000     -9.371000
H         -23.218000    -25.054000     -8.381000
H         -22.922000    -25.921000     -9.849000
H         -23.283000    -24.165000     -9.932000
O         -21.770000    -23.017000     -7.561000
C         -21.030000    -23.561000     -8.369000
C         -19.544000    -23.361000     -8.534000
H         -19.546000    -22.845000     -9.502000
H         -19.029000    -24.329000     -8.484000
C         -18.868000    -22.400000     -7.509000
H         -17.842000    -22.252000     -7.867000
H         -19.268000    -21.378000     -7.503000
C         -18.841000    -23.011000     -6.108000
H         -19.791000    -23.375000     -5.698000
H         -18.311000    -23.971000     -6.138000
C         -18.152000    -22.148000     -4.934000
C         -17.057000    -21.287000     -5.425000
C         -17.345000    -20.123000     -6.223000
H         -18.352000    -19.739000     -6.352000
C         -16.297000    -19.253000     -6.579000
H         -16.514000    -18.290000     -7.032000
C         -14.948000    -19.552000     -6.136000
H         -14.077000    -18.930000     -6.319000
C         -14.672000    -20.706000     -5.387000
H         -13.665000    -20.838000     -5.000000
C         -15.755000    -21.597000     -5.064000
H         -15.550000    -22.365000     -4.325000
C         -16.501000    -22.102000      0.273000
C         -17.070000    -19.798000     -0.162000
C         -20.864000    -19.673000      2.442000
C         -20.405000    -25.149000     -0.880000
C         -22.927000    -20.050000     -0.282000
C         -16.552000    -21.035000     -0.654000
C         -22.764000    -23.677000     -0.428000
C         -18.782000    -20.755000      2.767000
C         -19.999000    -19.454000     -2.943000
C         -21.075000    -24.527000     -1.964000
C         -19.066000    -21.430000     -3.962000
C         -21.062000    -20.291000     -3.254000
C         -22.337000    -22.735000     -2.562000
C         -23.290000    -22.496000      0.059000
C         -17.784000    -20.023000     -2.272000
C         -22.639000    -21.064000      1.912000
C         -18.252000    -22.657000     -3.571000
C         -18.980000    -23.870000     -2.996000
C         -22.653000    -19.939000      1.062000
C         -19.909000    -23.949000      2.362000
C         -20.722000    -21.990000      3.140000
C         -19.353000    -21.922000      3.084000
C         -17.587000    -20.797000      2.066000
C         -18.346000    -24.366000     -1.861000
C         -18.776000    -20.095000     -3.277000
C         -17.588000    -19.687000      1.175000
C         -22.245000    -23.797000     -1.721000
C         -17.821000    -19.178000     -1.153000
C         -22.203000    -20.278000     -2.470000
C         -18.640000    -24.868000      0.490000
C         -19.490000    -19.596000      2.438000
C         -20.526000    -21.560000     -3.724000
C         -17.583000    -23.248000      1.970000
C         -22.831000    -21.502000     -2.135000
C         -20.037000    -18.633000     -1.776000
C         -22.200000    -23.433000      1.789000
C         -22.043000    -24.268000      0.669000
C         -21.246000    -18.566000     -1.050000
C         -19.013000    -25.047000     -0.837000
C         -20.425000    -23.818000     -2.995000
C         -19.832000    -24.826000      1.259000
C         -17.285000    -22.479000     -2.501000
C         -19.468000    -18.258000      0.401000
C         -21.180000    -22.722000     -3.338000
C         -22.299000    -19.402000     -1.351000
C         -17.566000    -24.050000      0.835000
C         -21.566000    -19.087000      1.362000
C         -17.006000    -22.012000      1.598000
C         -21.518000    -20.898000      2.754000
C         -18.951000    -18.374000     -0.913000
C         -20.893000    -18.403000      0.332000
C         -17.045000    -21.173000     -1.921000
C         -17.299000    -23.509000     -1.577000
C         -21.082000    -23.291000      2.701000
C         -18.758000    -18.887000      1.429000
C         -23.321000    -21.359000     -0.795000
C         -20.906000    -25.047000      0.405000
C         -22.955000    -22.331000      1.414000
C         -16.904000    -23.340000     -0.211000
C         -18.813000    -23.182000      2.685000
$end

--------------------------------------------------------------

             Standard Nuclear Orientation (Angstroms)
    I     Atom           X                Y                Z
 ----------------------------------------------------------------
    1      O      -0.8598373420     6.0631318125     1.1452559498
    2      C      -0.3822512888     7.0326593085     2.1195397875
    3      H      -1.3195213678     7.5134711262     2.4245410906
    4      H       0.3205038003     7.7317406335     1.6497541068
    5      H       0.1191461842     6.5558567303     2.9696973467
    6      O      -0.8399283553     7.6320083836    -0.4981052207
    7      C      -1.0364152116     6.4889285785    -0.1797917361
    8      C      -1.6963389601     5.4444739489    -1.0365771077
    9      H      -0.9510539338     4.6662199148    -1.2390120057
   10      H      -2.0107235078     5.9959613215    -1.9315827133
   11      C      -2.9671646141     4.7550816097    -0.3782418136
   12      H      -2.6204656500     4.2153187484     0.5118328360
   13      H      -3.6144583622     5.5795701114    -0.0540034535
   14      C      -3.5666383506     3.8141538520    -1.3075873866
   15      H      -3.8638808350     4.2285006310    -2.2788400068
   16      H      -2.7960306454     3.1231761795    -1.6701209998
   17      C      -4.8042947936     3.0645500035    -0.7405339504
   18      C      -5.8430751785     4.1055028153    -0.5354862596
   19      C      -6.7377427040     4.4205262222    -1.5397871467
   20      H      -6.5434807796     3.9725221106    -2.5092073964
   21      C      -7.6399755402     5.4281921669    -1.3422061423
   22      H      -8.2918181480     5.8275639103    -2.1127412974
   23      C      -7.7203820803     6.0841117733    -0.0880788529
   24      H      -8.2951611028     6.9803763922     0.1264061310
   25      C      -6.8682387629     5.7577601548     0.9653073003
   26      H      -6.8880462561     6.2410873545     1.9378788818
   27      C      -5.9742862456     4.7146075417     0.7398133476
   28      H      -5.2399748453     4.4685790898     1.5015887531
   29      C      -7.1412158739    -0.3454281607     2.7682038261
   30      C      -8.5169740082    -0.5020346055     0.7464953957
   31      C      -7.2503993977    -4.6028071093    -0.4573146510
   32      C      -2.3460028103    -1.2641059802     1.5910412468
   33      C      -5.0434399514    -3.5746534580    -2.8973677389
   34      C      -7.7007995207     0.2260912726     1.5921980099
   35      C      -2.2942635639    -3.1402835806    -0.5305234263
   36      C      -7.7327341962    -3.6752055530     1.7626012246
   37      C      -6.3933383772     0.2185672360    -2.6265319823
   38      C      -2.1851479981    -0.8497977759     0.2682735267
   39      C      -5.1115179114     1.6991738182    -1.2147025159
   40      C      -5.0634425285    -0.0155943624    -2.9758804865
   41      C      -2.7690987877    -1.1314492442    -1.8579378752
   42      C      -3.1386502314    -3.8703986240    -1.3565507739
   43      C      -7.4308684229     0.9735980120    -0.5494116363
   44      C      -5.0630604121    -5.0679064976    -0.9384546737
   45      C      -4.6885053684     1.8593316798     0.1860757848
   46      C      -3.4744243572     1.2307525815     0.7755226572
   47      C      -5.6910888862    -4.4736584499    -2.0593540864
   48      C      -4.4281292104    -3.7690404321     2.8210599643
   49      C      -5.7358280780    -4.9950776943     1.3789027941
   50      C      -6.5905950421    -4.2369524209     2.2688626285
   51      C      -8.1699309586    -2.4021718473     2.1489238554
   52      C      -3.6864707936     0.6822654086     2.0260102141
   53      C      -6.4692509460     1.1380353779    -1.5625913740
   54      C      -8.7753426135    -1.8551516767     0.9945878293
   55      C      -2.1739182402    -1.7503509961    -0.7639124014
   56      C      -8.3192051096    -0.0897667154    -0.5685789936
   57      C      -4.7242674070    -1.3218968430    -3.2532125372
   58      C      -3.8377923189    -1.4085998837     3.2662888625
   59      C      -8.0816939648    -3.8916334035     0.3963464660
   60      C      -4.2587270939     0.7599343813    -2.0493653829
   61      C      -6.1655794884    -2.2465193586     3.6079507525
   62      C      -3.5780007412    -1.8748646862    -2.7197134320
   63      C      -7.3701673305    -0.8165398925    -2.6400755645
   64      C      -3.3867637473    -4.6826589955     0.7758958895
   65      C      -2.4905628280    -3.6322575552     0.8255116791
   66      C      -7.0017290267    -2.1120567246    -3.0145329772
   67      C      -3.1036124563    -0.5066378585     2.4974030228
   68      C      -2.7602124234     0.3813166857    -0.0960890526
   69      C      -3.5119450985    -2.7519726179     2.8755277002
   70      C      -5.7009084437     1.5360862542     1.2085734170
   71      C      -8.6245681736    -2.3349698766    -1.4153801297
   72      C      -3.1330182768     0.1517001083    -1.4382518680
   73      C      -5.6420273266    -2.3648105968    -3.3064538001
   74      C      -5.2075423865    -1.1607378936     3.5987571859
   75      C      -7.0498354685    -4.2286065924    -1.7752285646
   76      C      -7.3729742010    -1.6911562744     3.0920478035
   77      C      -6.1154145551    -5.2339595267     0.0317221913
   78      C      -8.2750621136    -1.0034273908    -1.6194441449
   79      C      -7.7257899730    -3.0483268696    -2.2511752881
   80      C      -7.0418864205     1.1766619462     0.8149387734
   81      C      -5.0952863575     0.9264613498     2.2342913922
   82      C      -4.3896837641    -4.7515478148     1.7796641747
   83      C      -8.7229669545    -2.7390814424    -0.0551387826
   84      C      -3.7906414332    -3.2517420209    -2.4602452425
   85      C      -2.5626706932    -2.6556641443     1.8457919179
   86      C      -3.7650645759    -4.7704679779    -0.5626047887
   87      C      -5.8097703341     0.0008185164     3.0382242203
   88      C      -5.8109847097    -3.5494422650     3.1835683272
   89      O      11.0213262768    -4.4217834525     3.0841012118
   90      C      11.0119676129    -4.3991852859     4.5299735223
   91      H      10.3816855736    -3.5825706987     4.9025606490
   92      H      11.9834559433    -4.2286235143     5.0087512431
   93      H      10.5964034194    -5.3581030047     4.8634674645
   94      O       8.7686753588    -3.9833509106     2.8639223121
   95      C       9.8655757874    -4.2466354160     2.3907513927
   96      C      10.2341754956    -4.3598234825     0.9324154518
   97      H      10.4086575018    -5.4416374994     0.8822311667
   98      H      11.0864267650    -3.7046727233     0.7106176688
   99      C       9.0976023062    -4.0359186305    -0.0846435593
  100      H       9.4874590121    -4.3163339026    -1.0706065525
  101      H       8.2043837435    -4.6670602226     0.0066849139
  102      C       8.7488730049    -2.5475924386    -0.0735070874
  103      H       8.5141798857    -2.0916967989     0.8961187712
  104      H       9.6461622421    -1.9601412166    -0.3040999895
  105      C       7.6031589748    -2.0451108000    -1.0896850068
  106      C       7.5494324296    -2.8442051650    -2.3306478000
  107      C       7.0510439796    -4.1954080290    -2.3082029014
  108      H       6.5479407669    -4.6171000887    -1.4437904048
  109      C       6.8980547651    -4.8954471451    -3.5200112757
  110      H       6.3704994334    -5.8445907850    -3.5418910134
  111      C       7.2503707730    -4.2393500029    -4.7653469615
  112      H       7.1338445606    -4.6710596902    -5.7548227761
  113      C       7.7664319038    -2.9345543278    -4.7744109344
  114      H       7.9272523733    -2.4529311688    -5.7353572957
  115      C       7.9446949736    -2.2519893202    -3.5200480331
  116      H       8.1534133727    -1.1880676358    -3.5698203080
  117      C       4.9909531671     2.2710487114    -3.1844198087
  118      C       3.3347442726     0.5178349357    -3.2523576788
  119      C       0.6334903826     2.1910507236     0.0784760530
  120      C       6.8649886425     2.7696898786     1.5160250664
  121      C       1.9258696223     0.0295303057     2.4185314762
  122      C       4.7092876854     0.8947080106    -3.3480346966
  123      C       4.8104722743     2.0532945683     3.3053571352
  124      C       1.8581733393     3.2787025288    -1.6327335211
  125      C       3.8663237673    -2.1919992562    -0.2849413121
  126      C       6.8364208730     1.4708430045     2.0843741495
  127      C       6.2285760986    -1.7678547015    -0.5157904413
  128      C       4.3804482817    -2.0495491978     0.9967150243
  129      C       5.4665662918    -0.1772443422     2.8385747355
  130      C       3.4790745201     1.7044892387     3.4250269398
  131      C       4.5370584808    -1.1143429733    -2.3021172787
  132      C       1.4932078003     2.4164251598     2.2177512399
  133      C       7.1630440667    -0.6588632645    -0.9826026188
  134      C       7.5394074651     0.4479976124    -0.0001630066
  135      C       1.1330009937     1.0714673434     1.9949048161
  136      C       4.1978768294     4.7213483938     0.3872542231
  137      C       2.0238294783     4.1242436109     0.5318847645
  138      C       2.3954327894     4.1653952101    -0.7880161883
  139      C       2.6412150232     2.8491595029    -2.6926997989
  140      C       7.4322276815     1.7107128771    -0.5748452268
  141      C       4.8971118070    -1.9724153570    -1.2375298531
  142      C       2.3201008742     1.4811920135    -2.9197078409
  143      C       5.8064739120     1.1307208602     2.9700237329
  144      C       3.2301521034    -0.7124450331    -2.6152127373
  145      C       3.5862283214    -1.5312259603     2.0053089346
  146      C       6.3531033622     3.8702203910    -0.3807859550
  147      C       0.9692487617     2.2692410420    -1.2538052931
  148      C       5.7715323322    -1.6345512374     0.8907959165
  149      C       4.5586975519     4.2091144049    -1.9924024216
  150      C       4.1399538580    -0.6018798805     2.9188125711
  151      C       2.5492476567    -1.7374891033    -0.5949494404
  152      C       3.4883222727     3.7466418434     2.4824261663
  153      C       4.8224478285     3.3491290704     2.6783000969
  154      C       1.7286051042    -1.3037690779     0.4688544610
  155      C       7.1593936422     2.8727120854     0.1549118746
  156      C       7.0872542840     0.2852292987     1.3635796293
  157      C       5.5311104470     4.3547722675     0.6697025629
  158      C       6.6773634392     0.1870837601    -2.0597103013
  159      C       1.1525192118    -0.1526733876    -1.4558929916
  160      C       6.2409339308    -0.7028968524     1.8065678565
  161      C       2.2389686693    -1.1529353171     1.7397140944
  162      C       5.8366322820     3.7672881566    -1.6708586578
  163      C       0.6207764485     0.9135804801     0.6871698453
  164      C       4.0029795889     3.2382553304    -2.8570521790
  165      C       1.1940239125     3.1000758759     1.0193057052
  166      C       2.1572080131    -1.0946789287    -1.7884091160
  167      C       0.8965572109    -0.2544541485    -0.0485781261
  168      C       5.4151149614    -0.0895947937    -2.7153121302
  169      C       6.9141670776     1.5333324786    -1.8442795122
  170      C       3.1655195929     4.5004281526     1.2868356721
  171      C       1.2305892914     1.1088873847    -2.0549710171
  172      C       3.1072538247     0.3477113163     3.2153866768
  173      C       5.8924644129     3.6980345074     1.8400665344
  174      C       2.6561809397     2.7292418072     2.9268268508
  175      C       6.0989099852     2.5701201019    -2.4019257239
  176      C       3.7392642245     4.6326327024    -0.9072101467
 ----------------------------------------------------------------

    9   -5804.2808003917      8.52E-06 Convergence criterion met
 Total energy in the final basis set = -5804.2808003917

                    Orbital Energies (a.u.)
 --------------------------------------------------------------

 Alpha MOs
 -- Occupied --
-19.197 -19.177 -19.142 -19.134 -10.321 -10.311 -10.249 -10.239
-10.238 -10.237 -10.237 -10.235 -10.232 -10.231 -10.230 -10.229
-10.226 -10.225 -10.224 -10.223 -10.223 -10.223 -10.223 -10.222
-10.222 -10.222 -10.222 -10.221 -10.221 -10.220 -10.220 -10.220
-10.220 -10.219 -10.219 -10.219 -10.218 -10.218 -10.218 -10.218
-10.217 -10.217 -10.217 -10.216 -10.216 -10.216 -10.215 -10.215
-10.215 -10.215 -10.215 -10.215 -10.215 -10.215 -10.215 -10.215
-10.215 -10.215 -10.215 -10.214 -10.214 -10.214 -10.214 -10.214
-10.214 -10.214 -10.214 -10.214 -10.214 -10.214 -10.214 -10.213
-10.213 -10.213 -10.213 -10.213 -10.213 -10.212 -10.212 -10.212
-10.212 -10.212 -10.212 -10.212 -10.212 -10.212 -10.212 -10.211
-10.211 -10.211 -10.211 -10.211 -10.211 -10.210 -10.210 -10.210
-10.210 -10.210 -10.210 -10.210 -10.210 -10.209 -10.209 -10.209
-10.209 -10.209 -10.209 -10.209 -10.209 -10.208 -10.208 -10.208
-10.208 -10.208 -10.208 -10.208 -10.208 -10.207 -10.207 -10.207
-10.207 -10.207 -10.206 -10.206 -10.206 -10.206 -10.206 -10.205
-10.205 -10.205 -10.205 -10.205 -10.204 -10.203 -10.203 -10.203
-10.202 -10.202 -10.200 -10.200 -10.199 -10.198 -10.197 -10.195
-10.194 -10.194 -10.194 -10.193  -1.097  -1.081  -1.014  -1.003
 -0.982  -0.981  -0.965  -0.965  -0.963  -0.959  -0.959  -0.958
 -0.935  -0.934  -0.926  -0.926  -0.924  -0.922  -0.921  -0.921
 -0.920  -0.917  -0.895  -0.895  -0.888  -0.885  -0.883  -0.883
 -0.877  -0.874  -0.856  -0.848  -0.842  -0.838  -0.837  -0.836
 -0.835  -0.835  -0.822  -0.820  -0.808  -0.807  -0.797  -0.796
 -0.795  -0.793  -0.792  -0.791  -0.789  -0.789  -0.782  -0.781
 -0.770  -0.770  -0.768  -0.765  -0.765  -0.764  -0.764  -0.763
 -0.754  -0.749  -0.746  -0.738  -0.735  -0.730  -0.715  -0.715
 -0.712  -0.712  -0.711  -0.711  -0.709  -0.708  -0.708  -0.706
 -0.705  -0.705  -0.704  -0.702  -0.701  -0.694  -0.674  -0.671
 -0.657  -0.656  -0.656  -0.655  -0.648  -0.647  -0.632  -0.632
 -0.625  -0.624  -0.624  -0.624  -0.622  -0.621  -0.617  -0.615
 -0.615  -0.614  -0.612  -0.612  -0.609  -0.609  -0.608  -0.607
 -0.607  -0.605  -0.602  -0.600  -0.565  -0.565  -0.562  -0.562
 -0.561  -0.558  -0.557  -0.554  -0.554  -0.553  -0.550  -0.550
 -0.538  -0.536  -0.534  -0.531  -0.529  -0.523  -0.523  -0.522
 -0.521  -0.521  -0.516  -0.515  -0.515  -0.514  -0.512  -0.509
 -0.506  -0.505  -0.501  -0.499  -0.492  -0.489  -0.488  -0.485
 -0.484  -0.483  -0.482  -0.478  -0.478  -0.477  -0.475  -0.473
 -0.472  -0.469  -0.469  -0.467  -0.467  -0.466  -0.466  -0.465
 -0.463  -0.462  -0.461  -0.460  -0.460  -0.459  -0.458  -0.456
 -0.455  -0.455  -0.453  -0.451  -0.450  -0.449  -0.445  -0.441
 -0.441  -0.441  -0.440  -0.439  -0.437  -0.435  -0.432  -0.430
 -0.430  -0.429  -0.428  -0.426  -0.425  -0.425  -0.425  -0.424
 -0.422  -0.422  -0.420  -0.420  -0.419  -0.418  -0.417  -0.416
 -0.416  -0.415  -0.414  -0.413  -0.412  -0.412  -0.411  -0.410
 -0.410  -0.408  -0.408  -0.403  -0.402  -0.399  -0.398  -0.396
 -0.395  -0.394  -0.391  -0.390  -0.387  -0.386  -0.386  -0.382
 -0.376  -0.375  -0.373  -0.370  -0.369  -0.368  -0.364  -0.364
 -0.363  -0.360  -0.360  -0.359  -0.359  -0.358  -0.357  -0.356
 -0.355  -0.353  -0.352  -0.352  -0.351  -0.351  -0.350  -0.349
 -0.348  -0.348  -0.348  -0.346  -0.345  -0.345  -0.343  -0.342
 -0.341  -0.340  -0.339  -0.338  -0.337  -0.337  -0.334  -0.331
 -0.331  -0.329  -0.328  -0.327  -0.327  -0.325  -0.322  -0.322
 -0.314  -0.310  -0.304  -0.290  -0.287  -0.283  -0.274  -0.270
 -0.269  -0.268  -0.267  -0.266  -0.265  -0.263  -0.262  -0.261
 -0.261  -0.259  -0.259  -0.258  -0.257  -0.255  -0.254  -0.252
 -0.248  -0.246  -0.244  -0.243  -0.220  -0.219  -0.213  -0.208
 -0.208  -0.205  -0.204  -0.203  -0.200  -0.197

          Ground-State Mulliken Net Atomic Charges

     Atom                 Charge (a.u.)
  ----------------------------------------
      1 O                    -0.490214
      2 C                    -0.082323
      3 H                     0.122975
      4 H                     0.137628
      5 H                     0.122924
      6 O                    -0.455383
      7 C                     0.584687
      8 C                    -0.265817
      9 H                     0.131937
     10 H                     0.133575
     11 C                    -0.180855
     12 H                     0.125029
     13 H                     0.119757
     14 C                    -0.169532
     15 H                     0.106665
     16 H                     0.103406
     17 C                    -0.004211
     18 C                     0.087324
     19 C                    -0.092379
     20 H                     0.089364
     21 C                    -0.094572
     22 H                     0.092362
     23 C                    -0.091032
     24 H                     0.087885
     25 C                    -0.084889
     26 H                     0.095076
     27 C                    -0.103244
     28 H                     0.087033
     29 C                    -0.004855
     30 C                    -0.016729
     31 C                     0.019709
     32 C                    -0.020204
     33 C                    -0.035027
     34 C                     0.021124
     35 C                    -0.036650
     36 C                    -0.011625
     37 C                     0.009017
     38 C                    -0.000223
     39 C                    -0.088264
     40 C                    -0.008531
     41 C                    -0.014704
     42 C                     0.022381
     43 C                    -0.013369
     44 C                    -0.002714
     45 C                    -0.066158
     46 C                     0.000275
     47 C                     0.000658
     48 C                    -0.002166
     49 C                     0.000648
     50 C                     0.014895
     51 C                     0.009974
     52 C                     0.007001
     53 C                     0.029257
     54 C                    -0.009791
     55 C                     0.024352
     56 C                    -0.005722
     57 C                     0.026451
     58 C                    -0.017381
     59 C                     0.009511
     60 C                    -0.003031
     61 C                    -0.003804
     62 C                    -0.013635
     63 C                     0.003430
     64 C                    -0.011169
     65 C                    -0.005720
     66 C                    -0.014718
     67 C                     0.016085
     68 C                     0.018097
     69 C                     0.012271
     70 C                     0.047351
     71 C                    -0.035041
     72 C                    -0.001577
     73 C                     0.003024
     74 C                    -0.013292
     75 C                     0.005455
     76 C                    -0.012591
     77 C                    -0.036709
     78 C                     0.032709
     79 C                    -0.009358
     80 C                    -0.006741
     81 C                     0.015957
     82 C                     0.002244
     83 C                     0.015199
     84 C                     0.022477
     85 C                     0.002203
     86 C                     0.025319
     87 C                    -0.009955
     88 C                    -0.009663
     89 O                    -0.465250
     90 C                    -0.090243
     91 H                     0.134691
     92 H                     0.127341
     93 H                     0.126558
     94 O                    -0.478322
     95 C                     0.604323
     96 C                    -0.264382
     97 H                     0.138907
     98 H                     0.137718
     99 C                    -0.179691
    100 H                     0.116050
    101 H                     0.109923
    102 C                    -0.171001
    103 H                     0.124393
    104 H                     0.100015
    105 C                     0.006393
    106 C                     0.083035
    107 C                    -0.106408
    108 H                     0.105653
    109 C                    -0.102173
    110 H                     0.097249
    111 C                    -0.082333
    112 H                     0.089351
    113 C                    -0.092134
    114 H                     0.095999
    115 C                    -0.118741
    116 H                     0.096395
    117 C                    -0.005449
    118 C                    -0.023319
    119 C                    -0.017649
    120 C                    -0.006591
    121 C                     0.023214
    122 C                    -0.025215
    123 C                    -0.000782
    124 C                     0.016473
    125 C                    -0.002583
    126 C                    -0.005960
    127 C                    -0.066876
    128 C                    -0.000671
    129 C                    -0.001141
    130 C                    -0.003283
    131 C                     0.029274
    132 C                     0.011076
    133 C                    -0.082399
    134 C                    -0.009502
    135 C                    -0.009803
    136 C                     0.039371
    137 C                    -0.013484
    138 C                     0.018229
    139 C                    -0.014057
    140 C                     0.031959
    141 C                    -0.006729
    142 C                    -0.009668
    143 C                     0.012363
    144 C                     0.015189
    145 C                     0.002005
    146 C                    -0.002065
    147 C                     0.000141
    148 C                     0.064483
    149 C                    -0.036898
    150 C                    -0.005811
    151 C                     0.023764
    152 C                     0.000293
    153 C                    -0.005840
    154 C                    -0.022274
    155 C                    -0.001295
    156 C                    -0.018430
    157 C                    -0.010203
    158 C                    -0.004991
    159 C                    -0.016530
    160 C                     0.013191
    161 C                     0.005282
    162 C                     0.007189
    163 C                    -0.004628
    164 C                     0.007506
    165 C                     0.022205
    166 C                    -0.018523
    167 C                     0.016565
    168 C                     0.036282
    169 C                     0.006494
    170 C                    -0.050017
    171 C                    -0.000022
    172 C                    -0.038447
    173 C                    -0.005319
    174 C                     0.006433
    175 C                    -0.005084
    176 C                     0.010105
  ----------------------------------------
  Sum of atomic charges =     0.000000

                    Cartesian Multipole Moments
 -----------------------------------------------------------------
    Charge (ESU x 10^10)
                 0.0000
    Dipole Moment (Debye)
         X       3.9257      Y      -1.9353      Z       0.2388
       Tot       4.3833
    Quadrupole Moments (Debye-Ang)
        XX    -759.5847     XY     -43.1184     YY    -807.4492
        XZ       8.5109     YZ      10.3922     ZZ    -791.6737

 Total job time:  839.55s(wall), 7182.44s(cpu)
        *  Thank you very much for using Q-Chem.  Have a nice day.  *
