 Q-Chem 4.4, Q-Chem, Inc., Pleasanton, CA (2016)
 Q-Chem 4.4.2 for Intel X86 Linux

User input:
--------------------------------------------------------------
$comment
SP
$end

$rem
MEM_STATIC 5000
MEM_TOTAL 20000
JOBTYPE SP
EXCHANGE B3LYP
BASIS 6-31g(d,p)
$end

$molecule
0 1
O         -18.521000     20.173000     10.818000
C         -18.609000     21.124000     11.905000
H         -17.619000     21.583000     12.012000
H         -18.945000     20.618000     12.818000
H         -19.288000     21.937000     11.618000
O         -18.662000     21.722000      9.090000
C         -18.564000     20.583000      9.507000
C         -18.511000     19.412000      8.492000
H         -19.229000     18.684000      8.888000
H         -17.494000     19.001000      8.497000
C         -18.736000     19.775000      6.956000
H         -17.940000     20.503000      6.761000
H         -18.490000     18.923000      6.309000
C         -20.203000     20.325000      6.680000
H         -20.889000     19.481000      6.828000
H         -20.483000     21.087000      7.417000
C         -20.335000     20.938000      5.279000
C         -19.357000     22.036000      4.956000
C         -18.151000     21.672000      4.330000
H         -17.843000     20.661000      4.079000
C         -17.395000     22.712000      3.904000
H         -16.429000     22.487000      3.462000
C         -17.787000     24.090000      3.943000
H         -17.113000     24.880000      3.623000
C         -18.928000     24.516000      4.691000
H         -19.079000     25.565000      4.927000
C         -19.777000     23.431000      5.150000
H         -20.718000     23.736000      5.599000
C         -24.114000     23.170000      1.966000
C         -22.366000     22.567000      0.409000
C         -24.631000     19.058000     -1.420000
C         -25.614000     19.233000      4.932000
C         -23.022000     16.681000      0.594000
C         -22.726000     23.097000      1.677000
C         -25.350000     16.852000      3.418000
C         -25.384000     21.245000     -0.746000
C         -20.380000     19.337000      1.949000
C         -24.465000     18.448000      5.101000
C         -20.800000     20.156000      4.116000
C         -20.775000     18.308000      2.750000
C         -22.976000     17.064000      4.090000
C         -24.866000     16.430000      2.157000
C         -20.987000     21.640000      2.001000
C         -25.167000     17.350000     -0.074000
C         -21.759000     21.091000      4.813000
C         -23.001000     20.350000      5.299000
C         -23.844000     17.171000     -0.395000
C         -27.281000     20.085000      1.886000
C         -26.663000     19.299000     -0.083000
C         -26.497000     20.702000     -0.120000
C         -24.722000     22.296000     -0.206000
C         -24.121000     21.160000      5.008000
C         -20.500000     20.486000      2.655000
C         -23.353000     22.146000     -0.524000
C         -24.334000     17.250000      4.339000
C         -21.299000     21.689000      0.667000
C         -21.465000     17.267000      2.168000
C         -26.293000     21.119000      3.824000
C         -24.478000     20.482000     -1.384000
C         -21.113000     18.704000      4.040000
C         -26.205000     22.270000      1.712000
C         -22.556000     16.666000      2.866000
C         -20.649000     19.350000      0.604000
C         -26.671000     17.752000      1.806000
C         -26.430000     17.695000      3.202000
C         -21.283000     18.290000     -0.065000
C         -25.457000     20.652000      4.885000
C         -23.150000     18.982000      5.309000
C         -26.986000     20.059000      3.274000
C         -22.344000     22.224000      3.949000
C         -22.064000     20.165000     -1.014000
C         -22.261000     18.153000      4.663000
C         -21.751000     17.247000      0.780000
C         -25.889000     22.231000      3.082000
C         -23.474000     18.269000     -1.200000
C         -25.123000     22.811000      1.054000
C         -25.702000     18.474000     -0.715000
C         -21.105000     20.465000     -0.023000
C         -22.174000     18.774000     -1.032000
C         -21.843000     22.585000      2.650000
C         -23.744000     22.225000      4.189000
C         -27.126000     18.891000      1.172000
C         -23.225000     20.974000     -1.245000
C         -23.555000     16.306000      1.893000
C         -26.521000     18.923000      3.941000
C         -25.712000     16.955000      1.163000
C         -24.589000     22.708000      3.196000
C         -26.892000     21.148000      1.116000
O         -22.979000     28.399000      0.195000
C         -22.019000     27.440000      0.622000
H         -22.119000     26.504000      0.058000
H         -22.295000     27.153000      1.644000
H         -20.981000     27.779000      0.521000
O         -24.852000     27.105000      0.219000
C         -24.305000     28.156000      0.042000
C         -25.112000     29.360000     -0.452000
H         -24.989000     30.119000      0.331000
H         -26.186000     29.158000     -0.554000
C         -24.707000     29.840000     -1.850000
H         -25.041000     30.854000     -2.102000
H         -23.612000     29.911000     -1.875000
C         -25.172000     28.912000     -2.936000
H         -24.990000     27.889000     -2.584000
H         -26.268000     28.879000     -2.963000
C         -24.337000     29.102000     -4.262000
C         -24.823000     30.201000     -5.095000
C         -24.161000     31.433000     -5.108000
H         -23.168000     31.578000     -4.691000
C         -24.707000     32.565000     -5.706000
H         -24.113000     33.470000     -5.800000
C         -26.012000     32.449000     -6.364000
H         -26.451000     33.291000     -6.891000
C         -26.693000     31.191000     -6.383000
H         -27.610000     31.091000     -6.957000
C         -26.095000     30.095000     -5.771000
H         -26.647000     29.165000     -5.678000
C         -21.861000     26.943000     -8.711000
C         -20.301000     28.632000     -7.978000
C         -17.114000     25.783000     -6.424000
C         -22.919000     23.838000     -4.939000
C         -18.153000     26.039000     -3.084000
C         -21.632000     28.233000     -8.175000
C         -20.748000     23.568000     -3.261000
C         -18.535000     25.669000     -8.376000
C         -20.571000     29.164000     -4.049000
C         -22.890000     24.538000     -3.705000
C         -22.892000     28.697000     -4.164000
C         -20.865000     28.277000     -2.993000
C         -21.539000     25.672000     -2.332000
C         -19.380000     23.968000     -2.997000
C         -21.593000     29.408000     -6.267000
C         -17.686000     24.332000     -4.736000
C         -23.836000     27.925000     -5.039000
C         -24.007000     26.444000     -4.756000
C         -17.428000     25.589000     -4.166000
C         -20.495000     23.043000     -7.297000
C         -18.341000     23.752000     -6.985000
C         -18.865000     24.327000     -8.137000
C         -19.482000     26.574000     -8.833000
C         -23.929000     25.692000     -5.973000
C         -21.722000     29.329000     -4.838000
C         -19.212000     27.836000     -8.350000
C         -21.797000     24.398000     -2.889000
C         -20.279000     29.379000     -6.793000
C         -19.910000     27.367000     -2.578000
C         -22.775000     23.869000     -7.196000
C         -17.706000     26.387000     -7.506000
C         -22.203000     27.971000     -3.073000
C         -21.151000     24.772000     -8.798000
C         -20.206000     26.053000     -2.186000
C         -19.257000     29.161000     -4.601000
C         -19.588000     22.845000     -5.070000
C         -20.848000     22.869000     -4.506000
C         -18.263000     28.238000     -4.071000
C         -23.432000     24.381000     -6.068000
C         -23.404000     25.835000     -3.649000
C         -21.804000     23.001000     -6.732000
C         -23.465000     27.903000     -6.513000
C         -17.986000     28.480000     -6.336000
C         -22.488000     26.580000     -2.914000
C         -18.597000     27.317000     -3.042000
C         -22.439000     24.725000     -8.267000
C         -17.040000     26.494000     -5.203000
C         -20.795000     26.126000     -8.987000
C         -17.517000     24.447000     -6.107000
C         -19.111000     29.235000     -5.965000
C         -17.470000     27.850000     -5.147000
C         -22.458000     28.729000     -7.058000
C         -23.608000     26.572000     -7.040000
C         -19.391000     22.959000     -6.442000
C         -18.037000     27.717000     -7.518000
C         -19.156000     25.252000     -2.580000
C         -21.928000     23.007000     -5.356000
C         -18.696000     23.478000     -4.157000
C         -22.857000     26.073000     -8.165000
C         -20.139000     23.910000     -8.402000
$end

--------------------------------------------------------------

             Standard Nuclear Orientation (Angstroms)
    I     Atom           X                Y                Z
 ----------------------------------------------------------------
    1      O     -11.1564813185     6.1135225114    -1.0471411817
    2      C     -11.4562718467     6.8914181087    -2.2298153038
    3      H     -11.1980128677     7.9328429091    -2.0040572810
    4      H     -12.5103190259     6.7636154677    -2.5039540078
    5      H     -10.7853303743     6.5845132098    -3.0422350989
    6      O      -8.8590471857     5.9871770019    -1.3804566744
    7      C      -9.8691010196     5.7350611728    -0.7503433025
    8      C      -9.7612794249     4.8615756462     0.5262429807
    9      H     -10.5631939314     4.1226014532     0.4114637737
   10      H      -9.9429699038     5.5041295758     1.3965004238
   11      C      -8.3354182441     4.2260974098     0.8499362062
   12      H      -7.6882231416     5.1081295625     0.9190938593
   13      H      -8.3156719589     3.7943226955     1.8589999704
   14      C      -7.8850852426     3.1733121495    -0.2544226048
   15      H      -8.5570895410     2.3105724788    -0.1599425363
   16      H      -8.0329139640     3.5742580813    -1.2641760544
   17      C      -6.4100812904     2.7758498504    -0.1048195905
   18      C      -5.4261295869     3.9151826091    -0.1181203500
   19      C      -5.0642624005     4.4790091779     1.1187950633
   20      H      -5.4511726679     4.1857189355     2.0905292239
   21      C      -4.0483091414     5.3729227172     1.0607471563
   22      H      -3.7657545824     5.8773142445     1.9799300044
   23      C      -3.2777063470     5.6742130719    -0.1094940391
   24      H      -2.5020337093     6.4350958231    -0.0966333261
   25      C      -3.6950069049     5.2385330368    -1.4052193771
   26      H      -3.2626011657     5.6690342741    -2.3033240265
   27      C      -4.7706304366     4.2631365645    -1.3867061409
   28      H      -5.0089609409     3.8166346705    -2.3479249658
   29      C      -2.6881884788    -0.6178374206    -2.3114084977
   30      C      -1.6917524702    -0.0926490247    -0.1725643169
   31      C      -2.4994131518    -4.1809914129     1.6772161404
   32      C      -7.5188229827    -2.3639099515    -1.9072723743
   33      C      -5.4221954044    -3.1184795271     3.2969748867
   34      C      -2.4072965108     0.3542380268    -1.3156359198
   35      C      -7.7266958965    -3.7947198803     0.5300673229
   36      C      -1.7726954036    -3.5642223701    -0.5354138021
   37      C      -4.7242000288     0.7122790794     2.4551815901
   38      C      -8.0469218120    -1.7128517246    -0.7837859206
   39      C      -5.9859009588     1.5955405062     0.6744485907
   40      C      -6.0074993374     0.2638195551     2.5473441613
   41      C      -7.9723874613    -1.5198465296     1.4771633547
   42      C      -6.9433430686    -4.0916598042     1.6705260151
   43      C      -3.4225437029     1.2493719976     0.5336759287
   44      C      -4.6344517680    -4.8223361023     1.8930009786
   45      C      -6.0441929856     1.5085768199    -0.8317898887
   46      C      -6.9613218709     0.3772904778    -1.2866600020
   47      C      -4.3962367218    -3.9617300276     2.9360838018
   48      C      -4.6950632769    -4.5507978831    -2.0710139356
   49      C      -3.5576702692    -5.1810232343    -0.2861234201
   50      C      -2.6734672593    -4.4491804500    -1.1106991754
   51      C      -1.5256856852    -2.3560429839    -1.0955332267
   52      C      -6.3190778068    -0.2881209497    -2.3543356055
   53      C      -4.6037860156     1.3988958486     1.2945374251
   54      C      -1.2692883133    -1.4444828528    -0.0461984302
   55      C      -8.1514540580    -2.4343326754     0.4415904490
   56      C      -2.3522148691     0.4871665095     0.9244955565
   57      C      -6.2169661865    -0.9793206666     3.1034296119
   58      C      -5.5491483810    -2.5296240510    -3.0642606199
   59      C      -1.6615963442    -3.4213459238     0.7977374721
   60      C      -6.8196144099     0.6786973339     1.4968654429
   61      C      -3.1696078488    -2.7982834877    -2.8219839954
   62      C      -7.2084320867    -1.8431549309     2.5471277762
   63      C      -3.6638215513    -0.0353628976     2.9003601597
   64      C      -5.9922555879    -5.1097408351    -0.1149301223
   65      C      -7.1216016908    -4.3835534660    -0.5703148882
   66      C      -3.8116200059    -1.2763426896     3.5416415119
   67      C      -6.6176531795    -1.6363246944    -2.7432937133
   68      C      -7.8018271076    -0.3363265697    -0.4632362615
   69      C      -5.7957207175    -3.7707191719    -2.5117807706
   70      C      -4.7150537013     1.1871070932    -1.5406311811
   71      C      -1.9821134980    -1.4656966192     2.2597530506
   72      C      -7.7251940658    -0.2391734178     0.9077366201
   73      C      -5.1433480345    -1.7722322043     3.5802685335
   74      C      -4.2623160912    -2.0141277346    -3.2335243360
   75      C      -3.0699779832    -3.5048895807     2.7848767768
   76      C      -2.2466737671    -1.9519579790    -2.2490138267
   77      C      -3.4848688080    -5.0184823541     1.1181024911
   78      C      -2.5254077490    -0.1661545662     2.1715271513
   79      C      -2.8114912202    -2.1690778720     3.1342199781
   80      C      -3.4295805884     1.2306866184    -0.8969055401
   81      C      -5.0010327229     0.1543681131    -2.4729761807
   82      C      -4.8337723398    -5.2320361481    -0.8560525279
   83      C      -1.3910400064    -2.1406760837     1.1413623094
   84      C      -6.7182672801    -3.1939766471     2.6438187969
   85      C      -6.9779935769    -3.6258891128    -1.7818046477
   86      C      -5.8939998127    -4.9409709726     1.2743868092
   87      C      -3.9776659982    -0.7120809201    -2.8408751065
   88      C      -3.4164166286    -4.0799639681    -2.2035589213
   89      O       1.9427650477     1.8747717082    -4.3382967942
   90      C       1.0917504947     2.4003321155    -3.3267778923
   91      H       0.9713145440     1.6859756356    -2.5025315691
   92      H       0.0866611012     2.4600276201    -3.7618189911
   93      H       1.4467577056     3.3450988513    -2.8978819897
   94      O       1.0180112788    -0.1910932859    -4.5835992467
   95      C       1.8280643649     0.6384027366    -4.8850778468
   96      C       2.8901439492     0.3164943087    -5.9401905994
   97      H       2.7313727976     1.0594353574    -6.7321055693
   98      H       2.7766714936    -0.6784280256    -6.3895652210
   99      C       4.3194321785     0.2951529753    -5.3874621805
  100      H       5.1068693292     0.3681825394    -6.1476367765
  101      H       4.4567050826     1.1991459311    -4.7803016699
  102      C       4.5945351916    -0.9182112201    -4.5455176090
  103      H       3.7116987203    -1.0778550117    -3.9141139151
  104      H       4.5214412262    -1.8271530153    -5.1550388024
  105      C       5.8214893689    -0.6907607328    -3.5788476950
  106      C       7.1122590562    -0.9348874021    -4.2208771209
  107      C       7.9083854598     0.1317950453    -4.6505378076
  108      H       7.7312592696     1.1621366428    -4.3539143000
  109      C       9.0277900983    -0.0525779626    -5.4568155820
  110      H       9.6871942463     0.7841546436    -5.6707354629
  111      C       9.3929576613    -1.4179510995    -5.8464998744
  112      H      10.2887939541    -1.6143826588    -6.4281406390
  113      C       8.6053842284    -2.5240716338    -5.3960429381
  114      H       8.9397520052    -3.5360917809    -5.6067047802
  115      C       7.5000208593    -2.2764622831    -4.5896773686
  116      H       6.8292486944    -3.0906454155    -4.3338971313
  117      C       8.2348390810    -1.4114975555     1.3447424178
  118      C       8.7729650286     0.8763969549     0.7974132903
  119      C       6.0403258974     2.8217342725     3.8693885668
  120      C       3.2927624719    -2.1163481210     1.0850551641
  121      C       3.4639934414     3.4277942838     1.5681151499
  122      C       8.5991766109    -0.4496830652     0.3721129659
  123      C       1.9424747298     0.1855392098     1.7777764135
  124      C       7.4290877062     0.8476265674     3.9989277767
  125      C       5.9460304026     2.4579854126    -1.5047560281
  126      C       2.7330182777    -1.2951045280     0.0722163822
  127      C       5.5985498414     0.3366222272    -2.5034704493
  128      C       4.5519487953     2.2546830657    -1.5643012046
  129      C       2.4136696243     0.8371163049    -0.5176452603
  130      C       2.0660414332     1.5686118226     2.1936627171
  131      C       7.7890134742     0.8558787681    -1.2593753091
  132      C       3.7850228138     2.3999987914     3.7364367515
  133      C       5.7667608147    -1.1107023684    -2.1433293886
  134      C       4.6394574688    -1.7825331717    -1.3814097485
  135      C       4.1044288393     3.3843449246     2.7874607344
  136      C       4.8576530804    -1.4493736418     4.1139538794
  137      C       5.1823682263     0.7215869172     4.7629772420
  138      C       6.4095337158     0.0907445586     4.5944311651
  139      C       8.2724130394     0.2970002704     3.0448334085
  140      C       5.1617039461    -2.5334276559    -0.2786436398
  141      C       6.5949306319     1.2872688177    -1.9324219573
  142      C       8.6649141254     1.2585090989     2.1391421421
  143      C       2.0736931483    -0.1494697483     0.4367932948
  144      C       8.2800122862     1.6929807053    -0.2286990683
  145      C       3.7396044154     2.7928260994    -0.5830526715
  146      C       5.1182800016    -2.8868281645     2.1757394684
  147      C       7.2245517501     2.1766427386     3.6096386050
  148      C       4.3404330745     1.0102370806    -2.1091821917
  149      C       7.0474280269    -1.8218453757     3.2543443802
  150      C       2.6173806878     2.1366079790    -0.0559211094
  151      C       6.4733608736     3.2960732783    -0.4796510073
  152      C       3.0273135244     0.0836819314     3.7661324894
  153      C       2.5067358381    -0.6969056095     2.7532386334
  154      C       5.5642966378     3.9058505555     0.4808899274
  155      C       4.4831282845    -2.7431234304     0.9339229578
  156      C       3.4330706987    -1.1207850004    -1.1232250886
  157      C       4.2932608411    -2.2978983596     3.1159873451
  158      C       6.9524625380    -1.4090128092    -1.2400446581
  159      C       7.5320990433     3.3315766341     1.5121421546
  160      C       3.3581890421     0.2363351968    -1.4180530177
  161      C       4.1685453538     3.6446769206     0.4328827840
  162      C       6.5085336878    -2.6691802378     2.2875297533
  163      C       5.5006144883     3.6788831721     2.8815397125
  164      C       8.0361584218    -1.0188164294     2.6433372464
  165      C       4.9572949398     2.0397168841     4.3825033192
  166      C       7.6138433843     2.9021307194     0.1771571101
  167      C       6.2418643662     3.9467038273     1.6959627580
  168      C       7.9516379891    -0.4536265719    -0.9532772341
  169      C       6.5621774049    -2.3157979940    -0.1935470979
  170      C       4.2016904769    -0.2548576897     4.4297729781
  171      C       8.0110666814     2.4858173215     2.5305601370
  172      C       2.5211807351     2.4763147084     1.2762507665
  173      C       3.1928166862    -1.8464911292     2.4131060079
  174      C       2.7417390454     1.4435246418     3.4511769055
  175      C       7.2091668473    -2.3768316197     1.0934286431
  176      C       6.2829549451    -1.2243543880     4.2456008691
 ----------------------------------------------------------------

    9   -5804.2318673582      8.29E-06 Convergence criterion met
 Total energy in the final basis set = -5804.2318673582

                    Orbital Energies (a.u.)
 --------------------------------------------------------------

 Alpha MOs
 -- Occupied --
-19.197 -19.189 -19.141 -19.131 -10.324 -10.315 -10.252 -10.242
-10.241 -10.241 -10.239 -10.234 -10.234 -10.231 -10.230 -10.229
-10.227 -10.226 -10.225 -10.224 -10.221 -10.220 -10.220 -10.220
-10.218 -10.218 -10.218 -10.218 -10.218 -10.218 -10.217 -10.217
-10.217 -10.216 -10.216 -10.216 -10.216 -10.216 -10.216 -10.215
-10.215 -10.215 -10.215 -10.214 -10.214 -10.214 -10.214 -10.214
-10.214 -10.213 -10.213 -10.213 -10.213 -10.213 -10.213 -10.213
-10.212 -10.212 -10.212 -10.212 -10.212 -10.212 -10.212 -10.212
-10.212 -10.212 -10.211 -10.211 -10.211 -10.211 -10.211 -10.210
-10.210 -10.210 -10.210 -10.210 -10.210 -10.210 -10.210 -10.210
-10.209 -10.209 -10.209 -10.209 -10.209 -10.209 -10.209 -10.208
-10.208 -10.208 -10.208 -10.208 -10.208 -10.208 -10.208 -10.207
-10.207 -10.207 -10.207 -10.207 -10.207 -10.207 -10.207 -10.207
-10.207 -10.207 -10.206 -10.206 -10.206 -10.206 -10.205 -10.205
-10.205 -10.205 -10.205 -10.205 -10.204 -10.204 -10.204 -10.204
-10.204 -10.204 -10.203 -10.203 -10.203 -10.203 -10.203 -10.203
-10.202 -10.202 -10.202 -10.202 -10.201 -10.201 -10.201 -10.201
-10.201 -10.200 -10.200 -10.199 -10.199 -10.199 -10.198 -10.198
-10.196 -10.195 -10.193 -10.192  -1.096  -1.091  -1.018  -1.017
 -0.984  -0.980  -0.967  -0.965  -0.964  -0.962  -0.959  -0.956
 -0.936  -0.931  -0.928  -0.928  -0.926  -0.921  -0.920  -0.918
 -0.918  -0.917  -0.898  -0.895  -0.890  -0.886  -0.885  -0.880
 -0.871  -0.871  -0.847  -0.844  -0.842  -0.839  -0.839  -0.837
 -0.835  -0.832  -0.822  -0.814  -0.810  -0.799  -0.795  -0.793
 -0.793  -0.792  -0.791  -0.790  -0.789  -0.786  -0.784  -0.777
 -0.770  -0.769  -0.768  -0.765  -0.763  -0.761  -0.761  -0.756
 -0.752  -0.749  -0.741  -0.737  -0.733  -0.727  -0.715  -0.714
 -0.713  -0.711  -0.711  -0.709  -0.708  -0.707  -0.706  -0.706
 -0.705  -0.704  -0.702  -0.702  -0.700  -0.700  -0.674  -0.669
 -0.659  -0.657  -0.654  -0.652  -0.647  -0.641  -0.628  -0.627
 -0.626  -0.624  -0.624  -0.624  -0.619  -0.617  -0.616  -0.614
 -0.614  -0.613  -0.612  -0.612  -0.609  -0.606  -0.606  -0.605
 -0.602  -0.601  -0.601  -0.596  -0.568  -0.567  -0.563  -0.562
 -0.560  -0.558  -0.556  -0.555  -0.553  -0.552  -0.551  -0.549
 -0.536  -0.534  -0.530  -0.528  -0.526  -0.524  -0.524  -0.523
 -0.521  -0.519  -0.518  -0.516  -0.514  -0.514  -0.511  -0.508
 -0.506  -0.500  -0.500  -0.495  -0.493  -0.488  -0.488  -0.485
 -0.484  -0.482  -0.480  -0.478  -0.477  -0.475  -0.474  -0.473
 -0.472  -0.471  -0.469  -0.468  -0.466  -0.464  -0.464  -0.464
 -0.463  -0.461  -0.460  -0.459  -0.459  -0.458  -0.456  -0.455
 -0.455  -0.453  -0.452  -0.450  -0.448  -0.446  -0.443  -0.442
 -0.441  -0.440  -0.439  -0.438  -0.436  -0.436  -0.434  -0.432
 -0.429  -0.427  -0.427  -0.427  -0.425  -0.425  -0.423  -0.423
 -0.423  -0.421  -0.420  -0.419  -0.418  -0.417  -0.416  -0.415
 -0.415  -0.414  -0.412  -0.412  -0.411  -0.411  -0.410  -0.409
 -0.409  -0.407  -0.406  -0.406  -0.404  -0.398  -0.395  -0.392
 -0.391  -0.389  -0.388  -0.388  -0.386  -0.386  -0.384  -0.383
 -0.375  -0.372  -0.371  -0.368  -0.367  -0.365  -0.365  -0.363
 -0.362  -0.360  -0.359  -0.357  -0.357  -0.357  -0.357  -0.355
 -0.354  -0.352  -0.352  -0.350  -0.350  -0.349  -0.349  -0.348
 -0.347  -0.347  -0.346  -0.345  -0.342  -0.341  -0.341  -0.339
 -0.339  -0.339  -0.338  -0.337  -0.336  -0.334  -0.333  -0.332
 -0.331  -0.329  -0.327  -0.327  -0.325  -0.325  -0.323  -0.320
 -0.315  -0.304  -0.303  -0.296  -0.288  -0.280  -0.270  -0.269
 -0.268  -0.266  -0.265  -0.264  -0.263  -0.263  -0.262  -0.260
 -0.260  -0.258  -0.257  -0.257  -0.256  -0.256  -0.252  -0.250
 -0.245  -0.241  -0.240  -0.235  -0.220  -0.217  -0.209  -0.208
 -0.206  -0.205  -0.203  -0.203  -0.198  -0.193

          Ground-State Mulliken Net Atomic Charges

     Atom                 Charge (a.u.)
  ----------------------------------------
      1 O                    -0.474966
      2 C                    -0.087315
      3 H                     0.129984
      4 H                     0.131923
      5 H                     0.135897
      6 O                    -0.461733
      7 C                     0.599962
      8 C                    -0.271422
      9 H                     0.124447
     10 H                     0.130021
     11 C                    -0.186027
     12 H                     0.126821
     13 H                     0.098645
     14 C                    -0.171552
     15 H                     0.100680
     16 H                     0.131590
     17 C                     0.018576
     18 C                     0.056447
     19 C                    -0.073345
     20 H                     0.102258
     21 C                    -0.092543
     22 H                     0.081525
     23 C                    -0.086758
     24 H                     0.085193
     25 C                    -0.094071
     26 H                     0.101034
     27 C                    -0.100147
     28 H                     0.098948
     29 C                     0.018399
     30 C                    -0.003770
     31 C                    -0.029438
     32 C                    -0.015581
     33 C                    -0.006999
     34 C                    -0.029843
     35 C                    -0.020958
     36 C                     0.037106
     37 C                     0.016379
     38 C                    -0.005821
     39 C                    -0.096764
     40 C                    -0.008436
     41 C                    -0.015996
     42 C                     0.002446
     43 C                     0.019490
     44 C                     0.016062
     45 C                    -0.117129
     46 C                     0.059982
     47 C                    -0.000198
     48 C                    -0.014559
     49 C                    -0.022026
     50 C                     0.002270
     51 C                    -0.015202
     52 C                     0.013883
     53 C                     0.050472
     54 C                    -0.013729
     55 C                     0.014887
     56 C                    -0.009131
     57 C                     0.001834
     58 C                     0.007314
     59 C                    -0.002215
     60 C                     0.044522
     61 C                    -0.015723
     62 C                    -0.008154
     63 C                     0.032006
     64 C                     0.014519
     65 C                    -0.011748
     66 C                    -0.033259
     67 C                    -0.046696
     68 C                    -0.004209
     69 C                     0.017854
     70 C                     0.012210
     71 C                    -0.016819
     72 C                    -0.010801
     73 C                    -0.002949
     74 C                    -0.014649
     75 C                     0.011616
     76 C                     0.014693
     77 C                    -0.007148
     78 C                    -0.010194
     79 C                    -0.008515
     80 C                    -0.007969
     81 C                     0.003986
     82 C                     0.002423
     83 C                     0.025091
     84 C                     0.003921
     85 C                     0.011492
     86 C                    -0.003481
     87 C                     0.007486
     88 C                     0.016894
     89 O                    -0.466823
     90 C                    -0.089414
     91 H                     0.132227
     92 H                     0.121498
     93 H                     0.128882
     94 O                    -0.458173
     95 C                     0.592160
     96 C                    -0.237780
     97 H                     0.120351
     98 H                     0.124639
     99 C                    -0.192699
    100 H                     0.109109
    101 H                     0.118433
    102 C                    -0.189706
    103 H                     0.119065
    104 H                     0.111826
    105 C                     0.015645
    106 C                     0.091929
    107 C                    -0.108494
    108 H                     0.093540
    109 C                    -0.096516
    110 H                     0.095775
    111 C                    -0.097584
    112 H                     0.090868
    113 C                    -0.084946
    114 H                     0.097111
    115 C                    -0.101828
    116 H                     0.089795
    117 C                    -0.021842
    118 C                     0.024575
    119 C                    -0.028878
    120 C                     0.014498
    121 C                     0.007033
    122 C                    -0.028251
    123 C                    -0.004085
    124 C                    -0.007463
    125 C                    -0.015234
    126 C                     0.004887
    127 C                    -0.086371
    128 C                     0.024151
    129 C                    -0.043060
    130 C                    -0.028790
    131 C                     0.005441
    132 C                     0.020220
    133 C                    -0.086738
    134 C                     0.015272
    135 C                     0.004714
    136 C                    -0.014921
    137 C                    -0.003277
    138 C                     0.012432
    139 C                     0.005590
    140 C                    -0.011511
    141 C                     0.027438
    142 C                    -0.011318
    143 C                     0.002484
    144 C                    -0.012147
    145 C                     0.011209
    146 C                    -0.012057
    147 C                     0.051719
    148 C                     0.024213
    149 C                     0.018725
    150 C                    -0.029085
    151 C                    -0.023799
    152 C                     0.013107
    153 C                     0.002163
    154 C                    -0.017840
    155 C                     0.011712
    156 C                    -0.001804
    157 C                    -0.002080
    158 C                     0.057334
    159 C                    -0.019580
    160 C                     0.020885
    161 C                    -0.005618
    162 C                     0.003833
    163 C                    -0.011403
    164 C                     0.019894
    165 C                    -0.004820
    166 C                     0.029138
    167 C                    -0.004693
    168 C                    -0.005970
    169 C                    -0.000515
    170 C                     0.010825
    171 C                    -0.020151
    172 C                     0.053739
    173 C                     0.001321
    174 C                    -0.034592
    175 C                    -0.014593
    176 C                    -0.018162
  ----------------------------------------
  Sum of atomic charges =     0.000000

                    Cartesian Multipole Moments
 -----------------------------------------------------------------
    Charge (ESU x 10^10)
                 0.0000
    Dipole Moment (Debye)
         X      -1.1096      Y       3.8346      Z      -2.2847
       Tot       4.5994
    Quadrupole Moments (Debye-Ang)
        XX    -757.6170     XY     -38.4292     YY    -790.7142
        XZ     -17.4178     YZ      -1.7260     ZZ    -791.5893

 Total job time:  848.69s(wall), 7242.50s(cpu)
        *  Thank you very much for using Q-Chem.  Have a nice day.  *
