 Q-Chem 4.4, Q-Chem, Inc., Pleasanton, CA (2016)
 Q-Chem 4.4.2 for Intel X86 Linux

User input:
--------------------------------------------------------------
$comment
SP
$end

$rem
MEM_STATIC 5000
MEM_TOTAL 20000
JOBTYPE SP
EXCHANGE B3LYP
BASIS 6-31g(d,p)
$end

$molecule
0 1
O          -7.460000     33.374000    -14.429000
C          -6.867000     33.576000    -15.742000
H          -7.486000     33.112000    -16.520000
H          -5.808000     33.289000    -15.729000
H          -6.945000     34.635000    -16.015000
O          -7.779000     31.050000    -14.600000
C          -7.992000     32.101000    -14.004000
C          -8.694000     32.139000    -12.739000
H          -9.774000     32.170000    -12.930000
H          -8.444000     33.152000    -12.402000
C          -8.351000     31.112000    -11.692000
H          -8.368000     30.142000    -12.205000
H          -7.315000     31.224000    -11.348000
C          -9.311000     31.080000    -10.488000
H          -8.834000     30.990000     -9.504000
H          -9.856000     32.028000    -10.401000
C         -10.330000     29.887000    -10.642000
C         -11.229000     30.093000    -11.783000
C         -10.910000     29.329000    -12.929000
H         -10.144000     28.559000    -12.936000
C         -11.619000     29.566000    -14.115000
H         -11.380000     28.909000    -14.947000
C         -12.692000     30.526000    -14.112000
H         -13.264000     30.623000    -15.031000
C         -12.943000     31.253000    -12.968000
H         -13.729000     32.002000    -12.943000
C         -12.241000     31.037000    -11.760000
H         -12.381000     31.743000    -10.947000
C         -14.040000     27.115000     -7.627000
C         -13.432000     25.559000     -9.370000
C         -11.160000     22.706000     -6.887000
C          -9.912000     28.811000     -5.256000
C          -8.004000     24.006000     -7.703000
C         -13.673000     26.850000     -8.962000
C          -8.046000     26.666000     -5.253000
C         -13.275000     23.819000     -6.330000
C          -9.697000     26.149000    -10.638000
C          -8.857000     28.807000     -6.193000
C         -10.057000     28.463000    -10.164000
C          -8.560000     26.637000    -10.030000
C          -7.602000     27.503000     -7.518000
C          -7.767000     25.397000     -5.678000
C         -12.057000     26.995000    -10.558000
C          -9.357000     23.473000     -5.719000
C         -10.899000     29.359000     -9.352000
C         -10.359000     29.683000     -7.985000
C          -8.946000     23.191000     -7.037000
C         -11.836000     26.134000     -4.042000
C         -11.522000     23.975000     -4.746000
C         -12.785000     24.290000     -5.086000
C         -13.992000     24.702000     -7.158000
C         -11.380000     29.575000     -7.024000
C         -10.634000     27.223000    -10.716000
C         -13.602000     24.521000     -8.507000
C          -7.933000     27.763000     -6.176000
C         -12.413000     25.635000    -10.316000
C          -7.779000     25.710000     -9.193000
C         -12.114000     28.308000     -5.016000
C         -12.500000     23.035000     -7.211000
C          -8.743000     27.939000     -9.580000
C         -13.646000     26.502000     -5.481000
C          -7.312000     26.162000     -7.949000
C         -10.086000     24.860000    -10.489000
C          -9.582000     25.350000     -4.234000
C          -9.101000     26.681000     -4.324000
C          -9.406000     23.969000     -9.696000
C         -11.201000     29.184000     -5.652000
C          -9.087000     29.232000     -7.479000
C         -11.380000     27.479000     -4.174000
C         -12.302000     28.899000     -9.059000
C         -11.584000     23.470000     -9.509000
C          -8.273000     28.460000     -8.329000
C          -8.211000     24.367000     -9.035000
C         -13.251000     27.804000     -5.707000
C         -10.052000     22.688000     -7.768000
C         -14.181000     26.007000     -6.721000
C         -10.743000     23.140000     -5.580000
C         -11.495000     24.570000    -10.407000
C         -10.314000     23.095000     -9.105000
C         -12.801000     27.735000     -9.684000
C         -12.542000     29.056000     -7.691000
C         -10.881000     25.076000     -4.065000
C         -12.651000     23.501000     -8.527000
C          -7.440000     25.102000     -7.050000
C         -10.031000     27.743000     -4.320000
C          -8.701000     24.560000     -5.009000
C         -13.466000     28.222000     -7.003000
C         -12.954000     25.638000     -4.619000
O         -22.979000     28.399000      0.195000
C         -22.019000     27.440000      0.622000
H         -22.119000     26.504000      0.058000
H         -22.295000     27.153000      1.644000
H         -20.981000     27.779000      0.521000
O         -24.852000     27.105000      0.219000
C         -24.305000     28.156000      0.042000
C         -25.112000     29.360000     -0.452000
H         -24.989000     30.119000      0.331000
H         -26.186000     29.158000     -0.554000
C         -24.707000     29.840000     -1.850000
H         -25.041000     30.854000     -2.102000
H         -23.612000     29.911000     -1.875000
C         -25.172000     28.912000     -2.936000
H         -24.990000     27.889000     -2.584000
H         -26.268000     28.879000     -2.963000
C         -24.337000     29.102000     -4.262000
C         -24.823000     30.201000     -5.095000
C         -24.161000     31.433000     -5.108000
H         -23.168000     31.578000     -4.691000
C         -24.707000     32.565000     -5.706000
H         -24.113000     33.470000     -5.800000
C         -26.012000     32.449000     -6.364000
H         -26.451000     33.291000     -6.891000
C         -26.693000     31.191000     -6.383000
H         -27.610000     31.091000     -6.957000
C         -26.095000     30.095000     -5.771000
H         -26.647000     29.165000     -5.678000
C         -21.861000     26.943000     -8.711000
C         -20.301000     28.632000     -7.978000
C         -17.114000     25.783000     -6.424000
C         -22.919000     23.838000     -4.939000
C         -18.153000     26.039000     -3.084000
C         -21.632000     28.233000     -8.175000
C         -20.748000     23.568000     -3.261000
C         -18.535000     25.669000     -8.376000
C         -20.571000     29.164000     -4.049000
C         -22.890000     24.538000     -3.705000
C         -22.892000     28.697000     -4.164000
C         -20.865000     28.277000     -2.993000
C         -21.539000     25.672000     -2.332000
C         -19.380000     23.968000     -2.997000
C         -21.593000     29.408000     -6.267000
C         -17.686000     24.332000     -4.736000
C         -23.836000     27.925000     -5.039000
C         -24.007000     26.444000     -4.756000
C         -17.428000     25.589000     -4.166000
C         -20.495000     23.043000     -7.297000
C         -18.341000     23.752000     -6.985000
C         -18.865000     24.327000     -8.137000
C         -19.482000     26.574000     -8.833000
C         -23.929000     25.692000     -5.973000
C         -21.722000     29.329000     -4.838000
C         -19.212000     27.836000     -8.350000
C         -21.797000     24.398000     -2.889000
C         -20.279000     29.379000     -6.793000
C         -19.910000     27.367000     -2.578000
C         -22.775000     23.869000     -7.196000
C         -17.706000     26.387000     -7.506000
C         -22.203000     27.971000     -3.073000
C         -21.151000     24.772000     -8.798000
C         -20.206000     26.053000     -2.186000
C         -19.257000     29.161000     -4.601000
C         -19.588000     22.845000     -5.070000
C         -20.848000     22.869000     -4.506000
C         -18.263000     28.238000     -4.071000
C         -23.432000     24.381000     -6.068000
C         -23.404000     25.835000     -3.649000
C         -21.804000     23.001000     -6.732000
C         -23.465000     27.903000     -6.513000
C         -17.986000     28.480000     -6.336000
C         -22.488000     26.580000     -2.914000
C         -18.597000     27.317000     -3.042000
C         -22.439000     24.725000     -8.267000
C         -17.040000     26.494000     -5.203000
C         -20.795000     26.126000     -8.987000
C         -17.517000     24.447000     -6.107000
C         -19.111000     29.235000     -5.965000
C         -17.470000     27.850000     -5.147000
C         -22.458000     28.729000     -7.058000
C         -23.608000     26.572000     -7.040000
C         -19.391000     22.959000     -6.442000
C         -18.037000     27.717000     -7.518000
C         -19.156000     25.252000     -2.580000
C         -21.928000     23.007000     -5.356000
C         -18.696000     23.478000     -4.157000
C         -22.857000     26.073000     -8.165000
C         -20.139000     23.910000     -8.402000
$end

--------------------------------------------------------------

             Standard Nuclear Orientation (Angstroms)
    I     Atom           X                Y                Z
 ----------------------------------------------------------------
    1      O     -10.9529219893    -7.0166772246     1.0108793676
    2      C     -11.9936184752    -7.8094794917     0.3746110363
    3      H     -11.6869480623    -8.1086946825    -0.6354209074
    4      H     -12.9625557186    -7.3011586521     0.4570097158
    5      H     -12.0602663742    -8.7844831539     0.8716220182
    6      O     -10.6338689267    -5.4811929773    -0.7419672513
    7      C     -10.2556553708    -5.9550581831     0.3246124564
    8      C      -9.1400932085    -5.3994934675     1.0603718660
    9      H      -8.2075968741    -5.8322421348     0.6769384594
   10      H      -9.2859085293    -5.8780877616     2.0360374818
   11      C      -9.0367036916    -3.9027501766     1.1932519964
   12      H      -9.1736489631    -3.5006332776     0.1813695961
   13      H      -9.8773765407    -3.4945431995     1.7684147774
   14      C      -7.7011800915    -3.4024628533     1.7749128148
   15      H      -7.7798818809    -2.6040882002     2.5234373246
   16      H      -7.1975215462    -4.2013132939     2.3330024521
   17      C      -6.7668344236    -2.8866539548     0.6146260601
   18      C      -6.3578297622    -3.9817111573    -0.2719871082
   19      C      -7.0470626866    -4.0289142721    -1.5054792411
   20      H      -7.7332842875    -3.2534302625    -1.8332435853
   21      C      -6.8323098064    -5.1230248657    -2.3553317045
   22      H      -7.3358188497    -5.0792578064    -3.3173904802
   23      C      -5.8692047459    -6.1253580055    -1.9802384902
   24      H      -5.6785975098    -6.9149138494    -2.7023357488
   25      C      -5.2425475523    -6.0334519981    -0.7558529106
   26      H      -4.5303566986    -6.7877413929    -0.4345217780
   27      C      -5.4434874541    -4.9433781531     0.1216926257
   28      H      -5.0407672211    -5.0083344112     1.1279739474
   29      C      -2.1097766797     0.0119615767    -0.0548141316
   30      C      -3.2577390695     0.2661933725    -2.1634624061
   31      C      -4.3528271863     4.5213833488    -1.7621865884
   32      C      -5.1380728043     1.3221516317     3.7728830353
   33      C      -7.6334500002     3.9118978720    -0.6748810166
   34      C      -2.9313505207    -0.5086223107    -1.0751806539
   35      C      -6.7924772237     3.4235708915     2.8085319003
   36      C      -2.2234610513     3.4618794693    -1.1576252661
   37      C      -7.2163901229     0.0645864189    -1.7223439717
   38      C      -6.4625264534     1.0377639869     3.3779701352
   39      C      -6.7927404843    -1.4621467514     0.0660851743
   40      C      -8.0678038303     0.3823871190    -0.6856789274
   41      C      -8.0675880068     1.5360011828     1.8925061988
   42      C      -7.1612340568     4.1819414981     1.7325581920
   43      C      -5.0246641697    -1.1548861689    -1.6916853114
   44      C      -5.6278483541     5.1551805900     0.0199312749
   45      C      -5.7449155866    -1.8592166611     1.0229145586
   46      C      -5.7567393947    -1.1169598580     2.3321815428
   47      C      -6.4834497317     4.6695605159    -0.9888741703
   48      C      -2.8057689544     3.5322917347     2.3524815155
   49      C      -3.2768144380     4.7906423740     0.4950201241
   50      C      -2.2393788529     4.0060932100     0.1512120148
   51      C      -1.8935429217     2.1047356613    -1.3269672642
   52      C      -4.4509593799    -0.7254554427     2.6775637163
   53      C      -6.4136161022    -1.0351376293    -1.2937533869
   54      C      -2.7447194501     1.5194123663    -2.2952426164
   55      C      -7.2767191221     2.0743446540     2.9234464076
   56      C      -4.5549769023    -0.0928993115    -2.5202248612
   57      C      -8.4522837203     1.7950815637    -0.5234179648
   58      C      -2.9848941675     1.2456782864     3.0535871396
   59      C      -3.2384655398     3.7153464922    -2.1047062324
   60      C      -7.7803031017    -0.3591723294     0.4538937625
   61      C      -1.6654413450     1.8875012492     1.1373427571
   62      C      -8.4461270694     2.3471751965     0.7669632643
   63      C      -6.7527894777     1.0079630664    -2.5768367703
   64      C      -4.9423803303     4.6084200921     2.2582711835
   65      C      -5.4713651992     3.6948903154     3.2051926984
   66      C      -7.0608773317     2.3395994894    -2.4466203698
   67      C      -4.0991658888     0.4531913926     3.4221031559
   68      C      -6.7365893512    -0.1273423205     2.7036276254
   69      C      -3.3274550021     2.5758795122     3.2730814983
   70      C      -4.3164587253    -1.7185616920     0.5694995447
   71      C      -4.9496131889     2.2342274797    -3.1943599360
   72      C      -7.7768986663     0.1467546879     1.7960443736
   73      C      -7.9434299470     2.7724263717    -1.4184609603
   74      C      -2.1633703398     0.8889716365     1.9480895293
   75      C      -5.7054625321     4.2960376073    -2.1139619686
   76      C      -1.6053494757     1.3513649475    -0.1959977220
   77      C      -4.2764049934     5.1118470126    -0.4522223484
   78      C      -5.4024792882     0.8915641730    -3.0659366473
   79      C      -5.9678501309     3.1044176912    -2.8440693055
   80      C      -4.0394258815    -1.3715416469    -0.7711539869
   81      C      -3.5968363981    -1.0631091030     1.5725940616
   82      C      -3.6629473029     4.5632004476     1.8683425847
   83      C      -3.5984742687     2.5228401789    -2.7528847633
   84      C      -7.9581157136     3.6501578522     0.6562107671
   85      C      -4.6445459787     2.6561609346     3.6849543581
   86      C      -6.0167594663     4.9599541436     1.4079657779
   87      C      -2.4547893742    -0.2729865545     1.2658189753
   88      C      -1.9603371416     3.2445572867     1.3369408038
   89      O       9.0233526846     1.4210868035     4.0446806731
   90      C       8.3231307655     2.6551836708     3.9431711363
   91      H       8.2433510922     2.9783252164     2.8975102231
   92      H       8.9654691372     3.4190062624     4.3981496684
   93      H       7.3088576266     2.6229574219     4.3588362283
   94      O      10.8204914633     1.8893102112     2.7277903775
   95      C      10.2085031011     1.1484616395     3.4431592602
   96      C      10.7329230748    -0.2671761485     3.6997802734
   97      H      10.8782440406    -0.3185580401     4.7863071797
   98      H      11.7010817255    -0.4707247704     3.2244690221
   99      C       9.8255340700    -1.3695110448     3.1427057987
  100      H      10.0061808865    -2.3676424179     3.5602659618
  101      H       8.7960349469    -1.1406612781     3.4467622735
  102      C       9.8930195280    -1.4707257806     1.6453727395
  103      H       9.8906945717    -0.4459245150     1.2537939345
  104      H      10.9029579588    -1.7599011767     1.3300380662
  105      C       8.6230713597    -2.1969522129     1.0525592623
  106      C       8.7285245743    -3.6550004278     1.0819024489
  107      C       8.0632258970    -4.3987799894     2.0619058335
  108      H       7.2881114440    -3.9820759709     2.6994937456
  109      C       8.3095239096    -5.7538019975     2.2628950034
  110      H       7.6896930815    -6.3226425359     2.9505920199
  111      C       9.2850561371    -6.4241313399     1.3977704771
  112      H       9.4686293890    -7.4912351690     1.4814620488
  113      C       9.9572183253    -5.6857695731     0.3732189196
  114      H      10.6023939425    -6.2113785609    -0.3252426863
  115      C       9.6664091602    -4.3348270710     0.2191138080
  116      H      10.2477555334    -3.7366367652    -0.4754779804
  117      C       4.7674648207    -2.6442102597    -2.8869478714
  118      C       3.5246951895    -3.0275087335    -0.8541626088
  119      C       1.2379155220     0.9042860571    -0.8718961010
  120      C       7.2499104735     1.6841314579    -2.5847979817
  121      C       3.4206229514     2.4763427981     1.3786777992
  122      C       4.7040657733    -3.2125153516    -1.5920166441
  123      C       5.8582245765     3.5002540976    -1.0463786885
  124      C       1.8460304881    -0.5908659403    -2.6711341877
  125      C       5.1988242108    -1.0915521146     2.1859572885
  126      C       7.6503706450     1.9270934715    -1.2453211768
  127      C       7.3309253428    -1.4442855457     1.2122638617
  128      C       5.8924147940     0.1339689901     2.2592452472
  129      C       6.8572418671     2.2911244142     0.8125209489
  130      C       4.6690312099     3.7355516996    -0.2516622765
  131      C       5.3252775418    -2.9072795846     0.5395407830
  132      C       2.4426696855     2.8602187490    -0.8024431658
  133      C       7.9153506438    -1.6621523526    -0.1529196872
  134      C       8.2325953115    -0.4350165278    -0.9872963937
  135      C       2.3660144217     2.3451010522     0.5015088000
  136      C       4.1603481849     1.4890070172    -4.1610264921
  137      C       2.2469093149     1.7372226105    -2.9294089743
  138      C       2.2897901843     0.4629615004    -3.4832364332
  139      C       2.5251374185    -1.7996774782    -2.6234745289
  140      C       7.7408398955    -0.5999295115    -2.3228327349
  141      C       5.9728020330    -2.0090634154     1.4554243710
  142      C       2.4051991489    -2.3684973329    -1.3741179808
  143      C       6.9392951322     2.8268278855    -0.4936865585
  144      C       3.9119421987    -2.8513498747     0.4806504157
  145      C       5.1906338006     1.3229618313     2.1808267502
  146      C       6.2861665870     0.3189360201    -4.1089978169
  147      C       1.3686355266    -0.3671206039    -1.3743315523
  148      C       7.1178377565    -0.0504302341     1.6637492446
  149      C       4.1553731585    -0.8919893706    -4.2211051907
  150      C       5.6579464137     2.4588361940     1.5031215386
  151      C       3.7749867040    -1.0708503246     2.1262313297
  152      C       4.1423929982     3.2448851822    -2.5063508498
  153      C       5.5196770682     3.2305665387    -2.4106661234
  154      C       3.0796638881     0.2087515174     2.1294418773
  155      C       7.2921887034     0.4507026339    -3.1411475905
  156      C       8.1010153596     0.8583866038    -0.4679371198
  157      C       5.5859650460     1.5110494052    -4.1210177632
  158      C       7.0300930458    -2.4472527369    -1.1072452981
  159      C       1.9816199765    -1.2820412082     0.7739513322
  160      C       7.4921975049     1.0030459397     0.7741258804
  161      C       3.8017655701     1.4321643417     2.1510803209
  162      C       5.5491711351    -0.8813451244    -4.2029971685
  163      C       1.5913743188     1.1433213317     0.4770913031
  164      C       3.7053678434    -1.9170842890    -3.3594506052
  165      C       1.7779438202     1.9815959100    -1.6436259229
  166      C       3.1357137448    -1.9209645270     1.2567924724
  167      C       1.9617809655     0.0535559850     1.3149352057
  168      C       5.8637078000    -3.1214158212    -0.6848715370
  169      C       7.0183729754    -1.8196607824    -2.4017451933
  170      C       3.4513129949     2.3739852590    -3.3418930408
  171      C       1.6230153289    -1.4523399785    -0.5767133321
  172      C       4.5668028859     3.0975246309     0.9546510449
  173      C       6.2062588407     2.3150359997    -3.1841991232
  174      C       3.6253564008     3.5751779705    -1.2204652285
  175      C       5.9256097968    -1.9337627057    -3.3352741894
  176      C       3.3918755871     0.2651693325    -4.2664835355
 ----------------------------------------------------------------

    9   -5804.2493607376      9.33E-06 Convergence criterion met
 Total energy in the final basis set = -5804.2493607376

                    Orbital Energies (a.u.)
 --------------------------------------------------------------

 Alpha MOs
 -- Occupied --
-19.191 -19.182 -19.138 -19.132 -10.318 -10.316 -10.244 -10.243
-10.243 -10.241 -10.240 -10.238 -10.237 -10.234 -10.234 -10.234
-10.233 -10.230 -10.230 -10.226 -10.225 -10.224 -10.222 -10.222
-10.222 -10.222 -10.221 -10.221 -10.221 -10.221 -10.221 -10.221
-10.219 -10.219 -10.219 -10.219 -10.219 -10.219 -10.219 -10.218
-10.218 -10.218 -10.218 -10.218 -10.218 -10.218 -10.218 -10.217
-10.217 -10.217 -10.217 -10.217 -10.217 -10.217 -10.217 -10.216
-10.216 -10.216 -10.216 -10.216 -10.216 -10.215 -10.215 -10.215
-10.215 -10.215 -10.215 -10.215 -10.215 -10.215 -10.215 -10.215
-10.215 -10.214 -10.214 -10.214 -10.214 -10.214 -10.214 -10.214
-10.214 -10.214 -10.213 -10.213 -10.213 -10.213 -10.213 -10.213
-10.213 -10.213 -10.213 -10.213 -10.212 -10.212 -10.212 -10.212
-10.212 -10.212 -10.211 -10.211 -10.211 -10.211 -10.211 -10.210
-10.210 -10.210 -10.210 -10.210 -10.210 -10.210 -10.209 -10.209
-10.209 -10.209 -10.209 -10.209 -10.209 -10.208 -10.208 -10.208
-10.208 -10.208 -10.208 -10.207 -10.207 -10.207 -10.207 -10.206
-10.206 -10.205 -10.205 -10.204 -10.204 -10.204 -10.203 -10.203
-10.203 -10.202 -10.202 -10.202 -10.202 -10.201 -10.200 -10.198
-10.198 -10.197 -10.197 -10.193  -1.097  -1.067  -1.019  -1.000
 -0.984  -0.980  -0.968  -0.965  -0.964  -0.963  -0.961  -0.959
 -0.937  -0.933  -0.929  -0.926  -0.926  -0.923  -0.921  -0.921
 -0.918  -0.917  -0.899  -0.896  -0.891  -0.890  -0.886  -0.883
 -0.875  -0.872  -0.854  -0.848  -0.843  -0.840  -0.839  -0.837
 -0.836  -0.833  -0.823  -0.822  -0.811  -0.810  -0.800  -0.798
 -0.794  -0.793  -0.793  -0.792  -0.791  -0.788  -0.785  -0.783
 -0.771  -0.769  -0.769  -0.767  -0.766  -0.765  -0.763  -0.762
 -0.754  -0.753  -0.744  -0.742  -0.733  -0.732  -0.716  -0.715
 -0.713  -0.713  -0.712  -0.711  -0.710  -0.710  -0.709  -0.707
 -0.707  -0.705  -0.705  -0.703  -0.703  -0.701  -0.674  -0.672
 -0.660  -0.658  -0.656  -0.655  -0.648  -0.648  -0.631  -0.629
 -0.629  -0.627  -0.626  -0.625  -0.624  -0.623  -0.620  -0.617
 -0.615  -0.614  -0.613  -0.612  -0.610  -0.610  -0.607  -0.607
 -0.606  -0.603  -0.601  -0.601  -0.570  -0.568  -0.565  -0.563
 -0.561  -0.559  -0.557  -0.557  -0.556  -0.554  -0.553  -0.551
 -0.537  -0.536  -0.535  -0.532  -0.529  -0.528  -0.524  -0.524
 -0.522  -0.520  -0.518  -0.518  -0.516  -0.515  -0.514  -0.512
 -0.507  -0.506  -0.501  -0.498  -0.494  -0.493  -0.489  -0.486
 -0.485  -0.482  -0.479  -0.479  -0.478  -0.477  -0.476  -0.474
 -0.473  -0.471  -0.470  -0.469  -0.469  -0.467  -0.466  -0.465
 -0.465  -0.464  -0.464  -0.462  -0.462  -0.460  -0.459  -0.457
 -0.456  -0.455  -0.454  -0.451  -0.451  -0.445  -0.444  -0.443
 -0.441  -0.440  -0.440  -0.437  -0.437  -0.436  -0.435  -0.434
 -0.430  -0.430  -0.429  -0.428  -0.428  -0.427  -0.426  -0.425
 -0.424  -0.423  -0.422  -0.421  -0.420  -0.419  -0.419  -0.417
 -0.416  -0.416  -0.415  -0.415  -0.415  -0.414  -0.412  -0.412
 -0.410  -0.410  -0.409  -0.407  -0.406  -0.402  -0.399  -0.398
 -0.393  -0.392  -0.389  -0.389  -0.389  -0.387  -0.386  -0.384
 -0.381  -0.376  -0.375  -0.372  -0.368  -0.368  -0.366  -0.365
 -0.364  -0.363  -0.363  -0.361  -0.361  -0.358  -0.358  -0.357
 -0.357  -0.356  -0.354  -0.352  -0.351  -0.350  -0.350  -0.350
 -0.349  -0.348  -0.347  -0.345  -0.344  -0.342  -0.342  -0.340
 -0.340  -0.340  -0.339  -0.339  -0.338  -0.337  -0.335  -0.335
 -0.333  -0.332  -0.331  -0.329  -0.326  -0.325  -0.324  -0.324
 -0.315  -0.307  -0.297  -0.294  -0.290  -0.289  -0.272  -0.270
 -0.270  -0.267  -0.267  -0.266  -0.265  -0.264  -0.264  -0.263
 -0.261  -0.261  -0.259  -0.259  -0.257  -0.257  -0.256  -0.254
 -0.250  -0.245  -0.243  -0.241  -0.222  -0.221  -0.211  -0.210
 -0.209  -0.206  -0.205  -0.205  -0.198  -0.197

          Ground-State Mulliken Net Atomic Charges

     Atom                 Charge (a.u.)
  ----------------------------------------
      1 O                    -0.510179
      2 C                    -0.072732
      3 H                     0.125704
      4 H                     0.126959
      5 H                     0.121402
      6 O                    -0.461314
      7 C                     0.600600
      8 C                    -0.260811
      9 H                     0.155411
     10 H                     0.126216
     11 C                    -0.184053
     12 H                     0.132998
     13 H                     0.110614
     14 C                    -0.185495
     15 H                     0.109729
     16 H                     0.110447
     17 C                    -0.002432
     18 C                     0.084547
     19 C                    -0.086590
     20 H                     0.104902
     21 C                    -0.101125
     22 H                     0.097426
     23 C                    -0.079381
     24 H                     0.094045
     25 C                    -0.098451
     26 H                     0.088959
     27 C                    -0.105092
     28 H                     0.095577
     29 C                    -0.019572
     30 C                     0.036574
     31 C                    -0.009038
     32 C                    -0.016166
     33 C                     0.007906
     34 C                    -0.018730
     35 C                     0.008279
     36 C                     0.013113
     37 C                     0.040203
     38 C                     0.012360
     39 C                    -0.074017
     40 C                     0.002376
     41 C                    -0.014636
     42 C                     0.002279
     43 C                    -0.015481
     44 C                    -0.006444
     45 C                    -0.091937
     46 C                     0.034048
     47 C                     0.010609
     48 C                     0.010496
     49 C                    -0.001495
     50 C                     0.013352
     51 C                    -0.005829
     52 C                    -0.010550
     53 C                     0.003521
     54 C                     0.007374
     55 C                    -0.001223
     56 C                    -0.001655
     57 C                    -0.037393
     58 C                    -0.012770
     59 C                    -0.020491
     60 C                     0.045165
     61 C                     0.004277
     62 C                     0.007912
     63 C                    -0.000657
     64 C                     0.013592
     65 C                    -0.001644
     66 C                     0.024041
     67 C                    -0.014750
     68 C                     0.007466
     69 C                     0.009992
     70 C                     0.034601
     71 C                     0.006060
     72 C                    -0.037463
     73 C                    -0.002963
     74 C                     0.012301
     75 C                    -0.002991
     76 C                    -0.010209
     77 C                    -0.006716
     78 C                    -0.036990
     79 C                    -0.002350
     80 C                     0.014111
     81 C                     0.006515
     82 C                     0.004009
     83 C                    -0.002782
     84 C                    -0.001925
     85 C                    -0.004075
     86 C                    -0.027898
     87 C                     0.008115
     88 C                    -0.023446
     89 O                    -0.466647
     90 C                    -0.087662
     91 H                     0.130162
     92 H                     0.120833
     93 H                     0.130315
     94 O                    -0.457995
     95 C                     0.591934
     96 C                    -0.237823
     97 H                     0.120774
     98 H                     0.124652
     99 C                    -0.192802
    100 H                     0.109334
    101 H                     0.118621
    102 C                    -0.190221
    103 H                     0.118832
    104 H                     0.111842
    105 C                     0.015653
    106 C                     0.092020
    107 C                    -0.108439
    108 H                     0.093632
    109 C                    -0.096216
    110 H                     0.095601
    111 C                    -0.097465
    112 H                     0.090761
    113 C                    -0.085137
    114 H                     0.097073
    115 C                    -0.101509
    116 H                     0.089650
    117 C                    -0.022549
    118 C                     0.024802
    119 C                    -0.024179
    120 C                     0.015028
    121 C                     0.007321
    122 C                    -0.028843
    123 C                    -0.003693
    124 C                    -0.007712
    125 C                    -0.016514
    126 C                     0.005451
    127 C                    -0.086949
    128 C                     0.025308
    129 C                    -0.042745
    130 C                    -0.031398
    131 C                     0.005584
    132 C                     0.017622
    133 C                    -0.086489
    134 C                     0.015485
    135 C                     0.005297
    136 C                    -0.014460
    137 C                    -0.005341
    138 C                     0.014060
    139 C                     0.004392
    140 C                    -0.012990
    141 C                     0.027364
    142 C                    -0.012030
    143 C                    -0.004651
    144 C                    -0.011745
    145 C                     0.011385
    146 C                    -0.013012
    147 C                     0.049161
    148 C                     0.024349
    149 C                     0.018121
    150 C                    -0.028243
    151 C                    -0.023058
    152 C                     0.014799
    153 C                     0.001389
    154 C                    -0.017728
    155 C                     0.012542
    156 C                    -0.002134
    157 C                    -0.001270
    158 C                     0.056304
    159 C                    -0.019206
    160 C                     0.020476
    161 C                    -0.004926
    162 C                     0.003577
    163 C                    -0.004612
    164 C                     0.021659
    165 C                    -0.001939
    166 C                     0.026822
    167 C                    -0.005572
    168 C                    -0.005060
    169 C                     0.001009
    170 C                     0.009411
    171 C                    -0.018874
    172 C                     0.052966
    173 C                    -0.001288
    174 C                    -0.033733
    175 C                    -0.015215
    176 C                    -0.017544
  ----------------------------------------
  Sum of atomic charges =     0.000000

                    Cartesian Multipole Moments
 -----------------------------------------------------------------
    Charge (ESU x 10^10)
                 0.0000
    Dipole Moment (Debye)
         X      -0.2012      Y      -5.6511      Z       2.0555
       Tot       6.0167
    Quadrupole Moments (Debye-Ang)
        XX    -804.8150     XY       1.1848     YY    -774.2183
        XZ       1.8190     YZ      -4.9469     ZZ    -802.1833

 Total job time:  851.46s(wall), 7238.07s(cpu)
        *  Thank you very much for using Q-Chem.  Have a nice day.  *
