 Q-Chem 4.4, Q-Chem, Inc., Pleasanton, CA (2016)
 Q-Chem 4.4.2 for Intel X86 Linux

User input:
--------------------------------------------------------------
$comment
SP
$end

$rem
MEM_STATIC 5000
MEM_TOTAL 20000
JOBTYPE SP
EXCHANGE B3LYP
BASIS 6-31g(d,p)
$end

$molecule
0 1
O         -24.359000      5.673000     -1.620000
C         -25.180000      6.530000     -2.328000
H         -25.163000      6.282000     -3.396000
H         -24.767000      7.546000     -2.295000
H         -26.184000      6.435000     -1.895000
O         -25.318000      3.714000     -2.375000
C         -24.460000      4.306000     -1.728000
C         -23.422000      3.785000     -0.785000
H         -23.580000      4.349000      0.142000
H         -22.451000      3.962000     -1.264000
C         -23.722000      2.323000     -0.347000
H         -24.704000      2.271000      0.139000
H         -23.762000      1.794000     -1.307000
C         -22.649000      1.766000      0.597000
H         -21.638000      1.926000      0.203000
H         -22.749000      2.456000      1.445000
C         -22.926000      0.311000      1.042000
C         -24.224000      0.155000      1.678000
C         -25.254000     -0.319000      0.912000
H         -25.028000     -0.559000     -0.123000
C         -26.467000     -0.674000      1.441000
H         -27.177000     -1.164000      0.781000
C         -26.651000     -0.408000      2.839000
H         -27.582000     -0.790000      3.248000
C         -25.642000      0.227000      3.612000
H         -25.909000      0.381000      4.654000
C         -24.420000      0.407000      3.030000
H         -23.608000      0.711000      3.684000
C         -20.997000     -4.094000      3.556000
C         -22.437000     -4.953000      1.879000
C         -19.224000     -6.810000     -0.822000
C         -17.524000     -0.975000      1.529000
C         -19.247000     -3.989000     -2.953000
C         -22.191000     -3.991000      2.829000
C         -16.977000     -1.891000     -1.016000
C         -19.418000     -6.772000      1.648000
C         -22.549000     -2.537000     -1.301000
C         -18.113000     -0.310000      0.437000
C         -22.236000     -0.748000      0.209000
C         -21.632000     -1.616000     -1.924000
C         -18.950000     -0.637000     -1.661000
C         -17.267000     -2.921000     -1.960000
C         -23.128000     -2.962000      1.011000
C         -17.615000     -5.368000     -1.718000
C         -21.716000     -0.510000      1.549000
C         -20.233000     -0.162000      1.634000
C         -18.813000     -5.248000     -2.460000
C         -16.846000     -4.393000      2.090000
C         -17.434000     -5.965000      0.571000
C         -18.109000     -6.290000      1.755000
C         -20.431000     -6.148000      2.431000
C         -19.679000     -0.878000      2.665000
C         -22.920000     -2.060000     -0.087000
C         -21.596000     -6.047000      1.671000
C         -17.812000     -0.793000     -0.837000
C         -23.073000     -4.371000      0.798000
C         -20.626000     -2.190000     -2.679000
C         -17.908000     -2.536000      3.133000
C         -19.978000     -7.002000      0.352000
C         -21.338000     -0.580000     -0.967000
C         -18.754000     -4.773000      3.536000
C         -19.304000     -1.719000     -2.549000
C         -22.520000     -3.936000     -1.554000
C         -16.355000     -3.919000     -0.156000
C         -16.355000     -2.501000      0.039000
C         -21.509000     -4.450000     -2.354000
C         -18.339000     -1.270000      2.657000
C         -19.446000      0.120000      0.510000
C         -16.866000     -3.017000      2.341000
C         -21.855000     -1.618000      2.547000
C         -21.890000     -5.883000     -0.689000
C         -19.962000     -0.059000     -0.771000
C         -20.594000     -3.615000     -2.937000
C         -18.882000     -3.377000      3.757000
C         -19.777000     -6.101000     -1.924000
C         -20.130000     -5.212000      3.424000
C         -17.920000     -6.288000     -0.668000
C         -22.793000     -4.849000     -0.522000
C         -21.112000     -5.621000     -1.837000
C         -22.649000     -2.742000      2.322000
C         -20.635000     -1.763000      3.207000
C         -16.573000     -4.867000      0.808000
C         -21.252000     -6.455000      0.451000
C         -18.495000     -2.829000     -2.695000
C         -16.596000     -2.074000      1.359000
C         -16.899000     -4.176000     -1.434000
C         -20.215000     -2.968000      3.788000
C         -17.723000     -5.312000      2.716000
O         -21.951000    -21.112000      6.329000
C         -22.655000    -22.319000      6.735000
H         -23.169000    -21.976000      7.641000
H         -21.942000    -23.129000      6.932000
H         -23.367000    -22.661000      5.975000
O         -20.233000    -21.581000      7.740000
C         -20.698000    -20.852000      6.904000
C         -20.165000    -19.496000      6.533000
H         -19.831000    -19.548000      5.490000
H         -19.350000    -19.327000      7.248000
C         -21.219000    -18.314000      6.658000
H         -22.019000    -18.513000      5.934000
H         -21.637000    -18.398000      7.669000
C         -20.590000    -17.044000      6.342000
H         -19.710000    -16.786000      6.944000
H         -20.088000    -17.121000      5.370000
C         -21.553000    -15.826000      6.408000
C         -21.949000    -15.706000      7.834000
C         -21.217000    -14.927000      8.709000
H         -20.278000    -14.537000      8.329000
C         -21.570000    -14.889000     10.029000
H         -20.984000    -14.410000     10.807000
C         -22.729000    -15.568000     10.482000
H         -23.015000    -15.718000     11.519000
C         -23.521000    -16.322000      9.618000
H         -24.410000    -16.866000      9.924000
C         -23.147000    -16.325000      8.277000
H         -23.687000    -16.954000      7.575000
C         -25.881000    -13.048000      4.690000
C         -24.359000    -11.339000      5.566000
C         -23.227000     -9.555000      1.641000
C         -23.475000    -15.815000      1.258000
C         -20.175000    -11.141000      1.414000
C         -24.866000    -12.625000      5.592000
C         -21.609000    -14.153000     -0.076000
C         -25.397000    -10.362000      2.454000
C         -20.469000    -12.417000      5.231000
C         -22.129000    -15.805000      1.626000
C         -21.314000    -14.658000      5.535000
C         -19.778000    -13.190000      4.298000
C         -20.293000    -14.594000      1.948000
C         -21.129000    -12.850000     -0.089000
C         -22.677000    -12.661000      6.244000
C         -22.187000    -10.806000      0.033000
C         -22.515000    -15.470000      5.280000
C         -22.789000    -16.190000      4.006000
C         -21.242000    -10.360000      0.988000
C         -25.473000    -13.115000      0.341000
C         -24.583000    -10.995000      0.260000
C         -25.606000    -11.043000      1.284000
C         -25.773000    -10.886000      3.697000
C         -24.093000    -16.062000      3.567000
C         -21.421000    -13.200000      5.912000
C         -24.794000    -10.420000      4.604000
C         -21.224000    -14.993000      0.995000
C         -23.010000    -11.358000      5.910000
C         -19.537000    -12.603000      3.075000
C         -25.512000    -15.073000      1.852000
C         -24.213000     -9.583000      2.617000
C         -20.361000    -14.518000      4.361000
C         -26.579000    -12.912000      2.507000
C         -19.770000    -13.300000      1.907000
C         -20.830000    -11.065000      4.971000
C         -23.309000    -12.790000     -0.805000
C         -23.004000    -14.100000     -0.489000
C         -20.487000    -10.479000      3.749000
C         -24.486000    -15.941000      2.223000
C         -21.832000    -15.987000      2.989000
C         -25.170000    -14.422000      0.618000
C         -23.809000    -14.802000      5.513000
C         -22.496000     -9.570000      4.364000
C         -20.679000    -15.189000      3.153000
C         -19.844000    -11.280000      2.778000
C         -26.197000    -14.273000      2.821000
C         -21.878000     -9.553000      1.953000
C         -26.380000    -12.175000      3.711000
C         -23.428000    -10.185000      0.421000
C         -22.079000    -10.558000      5.251000
C         -21.508000     -9.597000      3.345000
C         -23.849000    -13.462000      6.047000
C         -24.671000    -15.195000      4.568000
C         -24.559000    -12.273000     -0.371000
C         -23.859000     -9.644000      3.964000
C         -20.205000    -12.405000      0.898000
C         -23.908000    -14.907000      0.240000
C         -22.148000    -12.072000     -0.524000
C         -25.727000    -14.338000      4.163000
C         -26.193000    -12.297000      1.292000
$end

--------------------------------------------------------------

             Standard Nuclear Orientation (Angstroms)
    I     Atom           X                Y                Z
 ----------------------------------------------------------------
    1      O     -14.0261454351    -3.6132977274     0.0556722940
    2      C     -15.0028422140    -4.4181248602    -0.4993688652
    3      H     -15.0977566686    -4.2201268188    -1.5737082073
    4      H     -15.9843974778    -4.1342386957    -0.0995290100
    5      H     -14.7122676273    -5.4559373831    -0.2919042252
    6      O     -12.3357695330    -4.2217651079    -1.3933907676
    7      C     -12.7554233943    -3.5392322046    -0.4642640418
    8      C     -12.0396429003    -2.5935003440     0.4475383119
    9      H     -12.2786543437    -2.9464482391     1.4578305039
   10      H     -12.4200088991    -1.5910237486     0.2152165896
   11      C     -10.4972280221    -2.7821067023     0.3791863922
   12      H     -10.2325944464    -3.8108358796     0.6528821184
   13      H     -10.2883913684    -2.6231134914    -0.6857781194
   14      C      -9.7493108022    -1.7979552522     1.2873602497
   15      H     -10.0900178443    -0.7663443829     1.1368453806
   16      H     -10.1361098965    -2.0971551183     2.2702487992
   17      C      -8.2129160640    -1.9657623616     1.2315840668
   18      C      -7.7822798525    -3.3145345241     1.5617387383
   19      C      -7.4998042913    -4.1627614937     0.5258571981
   20      H      -7.6060843021    -3.7649632765    -0.4793105181
   21      C      -6.9189647876    -5.3897010401     0.7115446252
   22      H      -6.6099877382    -5.9366790391    -0.1745412913
   23      C      -6.7282934928    -5.8010982646     2.0729456613
   24      H      -6.1776256905    -6.7305708699     2.1861342097
   25      C      -7.1599978978    -4.9931121416     3.1590509655
   26      H      -6.9672124005    -5.4222782163     4.1385504460
   27      C      -7.5916981312    -3.7295357994     2.8737130326
   28      H      -7.7328173566    -3.0599514248     3.7170505271
   29      C      -3.3865683959     0.0799297982     2.6340011852
   30      C      -2.9921254997    -0.9966401950     0.5581346550
   31      C      -2.2765859138     2.7621842829    -1.9769118229
   32      C      -7.2028299630     3.4231913811     2.2373040215
   33      C      -5.6088644070     2.7182707966    -3.1574721347
   34      C      -3.6286989265    -1.0017307217     1.7760050745
   35      C      -7.1543515424     4.4304222950    -0.3314360838
   36      C      -1.5385161862     2.2140836102     0.3241354886
   37      C      -6.2574002733    -0.9313299720    -1.7431074505
   38      C      -8.1311374984     2.9234739435     1.3044923565
   39      C      -7.5106794862    -1.0461288030     0.2555677214
   40      C      -7.3845877356    -0.0472968251    -1.9018299124
   41      C      -8.4115262551     2.4383501421    -0.9080037547
   42      C      -6.4484624424     4.3992596926    -1.5711479337
   43      C      -5.1029553485    -1.7818087256     0.2075726374
   44      C      -4.0284940899     4.3052662987    -2.1210528482
   45      C      -7.3582777622    -0.7539914038     1.6747482788
   46      C      -7.7612687810     0.6514051001     2.1107263813
   47      C      -4.2911131605     3.2198539474    -2.9888542376
   48      C      -3.8315362219     4.4042990076     1.8782283523
   49      C      -2.7686144156     4.2250005092    -0.1123339507
   50      C      -2.0502834160     3.4298199921     0.7903257417
   51      C      -1.8218028031     1.0343461894     1.0701933352
   52      C      -6.8010264273     1.1313280782     2.9652095920
   53      C      -6.3111937207    -1.5246189070    -0.5248790218
   54      C      -2.0741398113    -0.0138607800     0.1855384966
   55      C      -8.0854705035     3.4572233458     0.0160855492
   56      C      -3.8351415301    -1.5345415404    -0.3967303173
   57      C      -7.1396546567     1.1157822317    -2.6080819175
   58      C      -5.2015309020     2.9968057012     3.2221848877
   59      C      -1.6822815897     1.8754147667    -1.0581636553
   60      C      -8.0924313666    -0.0147534109    -0.6474458722
   61      C      -2.8980101556     2.3660247410     2.8000456323
   62      C      -7.6347623189     2.3422807110    -2.1212607151
   63      C      -5.0096686930    -0.7050583188    -2.3865497887
   64      C      -5.0062712095     5.1531833573    -0.0110685909
   65      C      -6.2918423535     4.9615124498     0.5883628871
   66      C      -4.8358762764     0.4624360892    -3.1166662199
   67      C      -6.5208862587     2.4949331924     3.0721234747
   68      C      -8.4277749347     1.5530701538     1.2710605680
   69      C      -5.0586578578     4.1898167868     2.5145827092
   70      C      -5.9899685314    -0.9052679607     2.2645230258
   71      C      -2.9374492382     0.0154951227    -2.0363451783
   72      C      -8.6182515713     1.2496168653    -0.0746335847
   73      C      -5.8689904003     1.3487208085    -3.2633413828
   74      C      -4.1461515665     2.0473590941     3.3955590444
   75      C      -3.2521323867     2.2942002774    -2.9000553924
   76      C      -2.4241203904     1.0801768087     2.3302961399
   77      C      -2.8114949342     3.9616678983    -1.4556370428
   78      C      -3.8069944481    -1.0154377162    -1.7305305128
   79      C      -3.5917713641     0.9140538671    -2.9059926577
   80      C      -4.9396735689    -1.5237490968     1.5871763081
   81      C      -5.7303627142     0.2163771442     3.0516329790
   82      C      -3.7950074947     4.9106289810     0.5801433743
   83      C      -2.0858742792     0.5457749100    -1.0227123866
   84      C      -6.6803511924     3.2865922395    -2.4457173972
   85      C      -6.2741929221     4.4866357516     1.9138781148
   86      C      -5.1199342492     4.8307883775    -1.3816200093
   87      C      -4.4358035430     0.6853838177     3.3164636651
   88      C      -2.7079908042     3.5589248595     2.0472083634
   89      O      13.6815204096     0.7117033066     0.0858301231
   90      C      14.9990345464     0.1010940959    -0.0069809278
   91      H      14.9870282505    -0.5732607423     0.8577631968
   92      H      15.7808574075     0.8673638898     0.0627443675
   93      H      15.1368774487    -0.4506540689    -0.9440408496
   94      O      14.4468127221     2.2529607983     1.5694941757
   95      C      13.5283897514     1.8311508315     0.9174684102
   96      C      12.0916706952     2.2514581205     1.0576330860
   97      H      11.7973103616     2.7348434905     0.1185912456
   98      H      12.0972632907     2.9308678460     1.9192490955
   99      C      11.0788058976     1.0610031911     1.3415115158
  100      H      11.0979086594     0.4010897743     0.4651974358
  101      H      11.4979710835     0.5153319673     2.1961719527
  102      C       9.7342447392     1.5777492810     1.5246119525
  103      H       9.6162173367     2.3269212212     2.3171893532
  104      H       9.4742813514     2.2190140840     0.6737797190
  105      C       8.6629630951     0.4810183806     1.7791428368
  106      C       9.0149590193    -0.1259049408     3.0877432156
  107      C       8.4965140227     0.3785863282     4.2646006178
  108      H       7.9466576309     1.3108538566     4.1824044881
  109      C       8.8907918354    -0.1614473718     5.4568093282
  110      H       8.6368907568     0.2480483600     6.4294184418
  111      C       9.7520796671    -1.2870174521     5.4852041405
  112      H      10.2330842282    -1.6990285660     6.3675569351
  113      C      10.2541927563    -1.8549469357     4.3157536083
  114      H      10.9240527224    -2.7097003940     4.2917296311
  115      C       9.8188277102    -1.2953125784     3.1176581769
  116      H      10.2354292991    -1.6531263357     2.1803975776
  117      C       5.7859736670    -3.8486394521     0.2372651235
  118      C       4.3325733683    -2.6751745652     1.8231871679
  119      C       1.3544766071    -1.2075677624    -1.1511656950
  120      C       7.1936562701    -0.6734770471    -3.3904783061
  121      C       2.5860028250     2.0081071977    -1.3073922140
  122      C       5.5948088145    -3.0287029868     1.3835278299
  123      C       5.0808450434     1.1594141633    -3.8380210762
  124      C       2.5156259650    -3.3635859007    -0.9948456506
  125      C       4.9928239979     1.3209825954     1.8579154523
  126      C       7.2077762214     0.5958502572    -2.8109536548
  127      C       7.2695648024     0.7057958493     1.3416610802
  128      C       5.3927659406     2.2228537269     0.8719266569
  129      C       6.0352953862     2.2146727536    -1.8384294052
  130      C       3.8082843549     1.4825806586    -3.3857703602
  131      C       5.6838629779    -0.9660079583     2.3610141855
  132      C       1.9767342409     0.1890480519    -2.8524959699
  133      C       8.0416831987    -0.3445072875     0.6579458596
  134      C       8.3506213193    -0.3485883119    -0.7984512644
  135      C       1.7847458925     0.9299449527    -1.6616230730
  136      C       4.4820895801    -2.8182846762    -3.8029092940
  137      C       2.3858968573    -2.1767582720    -3.1047109398
  138      C       2.8152671430    -3.3231427858    -2.3308552011
  139      C       3.4210401100    -3.8503031467    -0.0438816406
  140      C       8.1808586851    -1.5824246616    -1.3970742763
  141      C       6.0092601966     0.3783149139     2.1056836831
  142      C       3.1930113715    -3.0714353771     1.1135352643
  143      C       6.1823636395     1.4818223491    -3.0112346804
  144      C       4.3666176627    -1.3961182906     2.3721443906
  145      C       4.4427355108     2.5667341336    -0.0648590435
  146      C       6.8084601565    -2.8463943622    -2.9628998970
  147      C       1.7476063584    -2.3130324979    -0.4102522605
  148      C       6.7113316228     1.7941831807     0.4417312308
  149      C       5.0307353696    -4.2384659433    -1.8955357159
  150      C       4.7597779974     2.5851483821    -1.4077912745
  151      C       3.6537511242     0.8471126812     1.9482268212
  152      C       3.6761309411    -0.5648930735    -4.4148684078
  153      C       4.9963400613    -0.1589247081    -4.4497763609
  154      C       2.6981729534     1.2912286058     1.0295536447
  155      C       7.6780648048    -1.7906233555    -2.6929437210
  156      C       7.7807182807     0.7140148071    -1.5315488965
  157      C       5.7875663982    -2.4090548778    -3.8739603284
  158      C       7.5658925087    -1.7269353615     0.8515042212
  159      C       2.1590994757    -0.8764580226     1.5306738564
  160      C       6.9970442324     1.7317584251    -0.9457486627
  161      C       3.1161782731     2.1545826245    -0.0086093440
  162      C       6.3935894964    -3.7506317562    -1.9341029925
  163      C       1.3587306005     0.0736361545    -0.6261443367
  164      C       4.6890959109    -4.3000669524    -0.5128304704
  165      C       1.5897770029    -1.1580061401    -2.5178691629
  166      C       3.3422294950    -0.4792010055     2.1464597119
  167      C       1.8047791731     0.2434716217     0.7335234848
  168      C       6.4614818438    -1.9973650622     1.7400428305
  169      C       7.7051289059    -2.3937973100    -0.3002016298
  170      C       3.4026448699    -1.9153547249    -4.0690307335
  171      C       2.1969873538    -2.1505293346     0.8993642646
  172      C       3.6285075567     2.1983772358    -2.1686896057
  173      C       6.0471419942    -1.0584976690    -4.1556849030
  174      C       3.0038985175     0.4532338021    -3.7411271859
  175      C       6.8374866675    -3.4729274240    -0.6105001045
  176      C       4.0469250281    -3.7564327192    -2.7917539834
 ----------------------------------------------------------------

    9   -5804.2777450440      8.56E-06 Convergence criterion met
 Total energy in the final basis set = -5804.2777450440

                    Orbital Energies (a.u.)
 --------------------------------------------------------------

 Alpha MOs
 -- Occupied --
-19.186 -19.180 -19.143 -19.138 -10.319 -10.315 -10.241 -10.240
-10.238 -10.237 -10.236 -10.234 -10.234 -10.233 -10.233 -10.232
-10.229 -10.228 -10.225 -10.225 -10.225 -10.224 -10.224 -10.224
-10.223 -10.223 -10.223 -10.223 -10.223 -10.222 -10.221 -10.221
-10.221 -10.220 -10.220 -10.219 -10.219 -10.219 -10.219 -10.219
-10.218 -10.218 -10.218 -10.218 -10.218 -10.217 -10.217 -10.217
-10.217 -10.217 -10.217 -10.217 -10.216 -10.216 -10.216 -10.216
-10.216 -10.216 -10.215 -10.215 -10.215 -10.215 -10.215 -10.215
-10.215 -10.215 -10.215 -10.215 -10.215 -10.215 -10.215 -10.215
-10.215 -10.214 -10.214 -10.214 -10.214 -10.214 -10.214 -10.214
-10.214 -10.214 -10.214 -10.214 -10.213 -10.213 -10.213 -10.213
-10.213 -10.213 -10.213 -10.212 -10.212 -10.212 -10.212 -10.212
-10.212 -10.211 -10.211 -10.211 -10.211 -10.211 -10.210 -10.210
-10.210 -10.210 -10.210 -10.210 -10.210 -10.210 -10.209 -10.209
-10.209 -10.209 -10.209 -10.208 -10.208 -10.208 -10.208 -10.208
-10.207 -10.207 -10.207 -10.207 -10.206 -10.206 -10.206 -10.206
-10.205 -10.203 -10.203 -10.202 -10.201 -10.201 -10.200 -10.200
-10.200 -10.200 -10.199 -10.198 -10.197 -10.196 -10.196 -10.196
-10.196 -10.196 -10.190 -10.188  -1.098  -1.084  -1.015  -1.006
 -0.983  -0.981  -0.966  -0.964  -0.964  -0.962  -0.960  -0.958
 -0.935  -0.934  -0.927  -0.926  -0.925  -0.924  -0.922  -0.921
 -0.921  -0.917  -0.896  -0.896  -0.890  -0.887  -0.884  -0.882
 -0.879  -0.877  -0.858  -0.858  -0.843  -0.842  -0.837  -0.836
 -0.836  -0.835  -0.824  -0.820  -0.810  -0.808  -0.799  -0.797
 -0.797  -0.795  -0.794  -0.792  -0.791  -0.788  -0.783  -0.783
 -0.772  -0.770  -0.769  -0.768  -0.767  -0.767  -0.766  -0.764
 -0.759  -0.756  -0.749  -0.740  -0.735  -0.732  -0.716  -0.714
 -0.714  -0.714  -0.713  -0.711  -0.709  -0.709  -0.709  -0.708
 -0.706  -0.706  -0.705  -0.704  -0.699  -0.697  -0.673  -0.669
 -0.658  -0.658  -0.658  -0.655  -0.649  -0.647  -0.633  -0.632
 -0.626  -0.626  -0.625  -0.625  -0.623  -0.619  -0.617  -0.616
 -0.616  -0.613  -0.612  -0.612  -0.611  -0.610  -0.609  -0.608
 -0.607  -0.604  -0.603  -0.601  -0.568  -0.567  -0.563  -0.560
 -0.559  -0.558  -0.558  -0.555  -0.555  -0.555  -0.552  -0.552
 -0.540  -0.539  -0.533  -0.530  -0.529  -0.528  -0.525  -0.525
 -0.522  -0.520  -0.519  -0.516  -0.516  -0.513  -0.513  -0.511
 -0.507  -0.506  -0.502  -0.502  -0.495  -0.490  -0.489  -0.487
 -0.485  -0.483  -0.480  -0.479  -0.479  -0.479  -0.478  -0.476
 -0.476  -0.471  -0.470  -0.469  -0.468  -0.468  -0.467  -0.466
 -0.465  -0.464  -0.463  -0.462  -0.462  -0.461  -0.460  -0.460
 -0.459  -0.457  -0.453  -0.451  -0.450  -0.449  -0.447  -0.444
 -0.443  -0.443  -0.441  -0.438  -0.436  -0.434  -0.434  -0.432
 -0.432  -0.429  -0.428  -0.427  -0.427  -0.426  -0.425  -0.425
 -0.424  -0.423  -0.422  -0.420  -0.420  -0.418  -0.418  -0.417
 -0.417  -0.417  -0.415  -0.415  -0.415  -0.415  -0.414  -0.413
 -0.412  -0.410  -0.409  -0.408  -0.405  -0.405  -0.397  -0.397
 -0.397  -0.394  -0.393  -0.387  -0.386  -0.384  -0.384  -0.380
 -0.379  -0.376  -0.373  -0.371  -0.371  -0.367  -0.366  -0.364
 -0.363  -0.362  -0.362  -0.361  -0.360  -0.359  -0.358  -0.357
 -0.355  -0.354  -0.354  -0.353  -0.353  -0.351  -0.350  -0.350
 -0.349  -0.348  -0.347  -0.346  -0.344  -0.343  -0.343  -0.342
 -0.341  -0.340  -0.340  -0.339  -0.338  -0.337  -0.336  -0.333
 -0.333  -0.331  -0.328  -0.328  -0.327  -0.326  -0.324  -0.324
 -0.311  -0.300  -0.297  -0.292  -0.289  -0.288  -0.275  -0.272
 -0.271  -0.271  -0.270  -0.268  -0.267  -0.266  -0.263  -0.263
 -0.262  -0.261  -0.261  -0.259  -0.259  -0.258  -0.256  -0.255
 -0.248  -0.246  -0.245  -0.241  -0.223  -0.220  -0.215  -0.211
 -0.209  -0.208  -0.206  -0.205  -0.199  -0.197

          Ground-State Mulliken Net Atomic Charges

     Atom                 Charge (a.u.)
  ----------------------------------------
      1 O                    -0.456079
      2 C                    -0.076061
      3 H                     0.118399
      4 H                     0.118593
      5 H                     0.120126
      6 O                    -0.475394
      7 C                     0.594158
      8 C                    -0.260853
      9 H                     0.138931
     10 H                     0.139604
     11 C                    -0.190169
     12 H                     0.122559
     13 H                     0.115065
     14 C                    -0.175038
     15 H                     0.101865
     16 H                     0.098366
     17 C                     0.015251
     18 C                     0.096076
     19 C                    -0.093191
     20 H                     0.095010
     21 C                    -0.086513
     22 H                     0.098590
     23 C                    -0.103953
     24 H                     0.090013
     25 C                    -0.083709
     26 H                     0.096922
     27 C                    -0.110729
     28 H                     0.091359
     29 C                    -0.005494
     30 C                     0.011627
     31 C                    -0.026378
     32 C                    -0.026359
     33 C                     0.009440
     34 C                     0.008058
     35 C                     0.028588
     36 C                    -0.021825
     37 C                     0.005602
     38 C                     0.000334
     39 C                    -0.078422
     40 C                    -0.014907
     41 C                    -0.042408
     42 C                    -0.030854
     43 C                     0.012418
     44 C                    -0.019477
     45 C                    -0.105145
     46 C                     0.046874
     47 C                     0.001256
     48 C                    -0.001424
     49 C                     0.037950
     50 C                     0.001063
     51 C                    -0.002503
     52 C                     0.013635
     53 C                     0.028061
     54 C                     0.022636
     55 C                     0.022581
     56 C                    -0.022608
     57 C                    -0.017769
     58 C                    -0.010543
     59 C                     0.003965
     60 C                     0.038387
     61 C                    -0.012125
     62 C                     0.030775
     63 C                     0.000486
     64 C                    -0.001900
     65 C                    -0.004305
     66 C                     0.021395
     67 C                    -0.007066
     68 C                     0.009553
     69 C                     0.040121
     70 C                     0.048823
     71 C                    -0.011821
     72 C                    -0.039856
     73 C                    -0.008844
     74 C                    -0.003855
     75 C                     0.003509
     76 C                    -0.016455
     77 C                    -0.004760
     78 C                    -0.026223
     79 C                     0.008434
     80 C                    -0.024945
     81 C                     0.003483
     82 C                    -0.006349
     83 C                     0.027404
     84 C                    -0.008652
     85 C                    -0.028227
     86 C                     0.014942
     87 C                     0.006539
     88 C                    -0.016144
     89 O                    -0.490812
     90 C                    -0.081632
     91 H                     0.124266
     92 H                     0.137376
     93 H                     0.122267
     94 O                    -0.453851
     95 C                     0.582376
     96 C                    -0.261193
     97 H                     0.130455
     98 H                     0.135269
     99 C                    -0.180424
    100 H                     0.125083
    101 H                     0.120943
    102 C                    -0.168241
    103 H                     0.107429
    104 H                     0.100852
    105 C                    -0.004479
    106 C                     0.086809
    107 C                    -0.092450
    108 H                     0.089601
    109 C                    -0.094886
    110 H                     0.092909
    111 C                    -0.090562
    112 H                     0.088241
    113 C                    -0.084829
    114 H                     0.095307
    115 C                    -0.103453
    116 H                     0.086751
    117 C                    -0.004052
    118 C                    -0.016201
    119 C                     0.020925
    120 C                    -0.019156
    121 C                    -0.034103
    122 C                     0.020515
    123 C                    -0.035100
    124 C                    -0.010246
    125 C                     0.009202
    126 C                    -0.002963
    127 C                    -0.086811
    128 C                    -0.008555
    129 C                    -0.016272
    130 C                     0.024508
    131 C                    -0.013486
    132 C                    -0.001578
    133 C                    -0.067621
    134 C                     0.002748
    135 C                     0.002951
    136 C                    -0.001695
    137 C                     0.000480
    138 C                     0.015860
    139 C                     0.009021
    140 C                     0.005789
    141 C                     0.028759
    142 C                    -0.009400
    143 C                     0.021484
    144 C                    -0.005896
    145 C                     0.026523
    146 C                    -0.016381
    147 C                     0.009829
    148 C                    -0.003573
    149 C                    -0.003687
    150 C                    -0.014142
    151 C                     0.003270
    152 C                    -0.010134
    153 C                    -0.006098
    154 C                    -0.013439
    155 C                     0.015816
    156 C                     0.009546
    157 C                     0.011841
    158 C                     0.048071
    159 C                    -0.034095
    160 C                    -0.000682
    161 C                     0.003509
    162 C                    -0.012664
    163 C                     0.008094
    164 C                    -0.012441
    165 C                    -0.035326
    166 C                     0.032491
    167 C                    -0.009393
    168 C                    -0.006714
    169 C                     0.016487
    170 C                     0.003675
    171 C                     0.015006
    172 C                     0.020103
    173 C                     0.002103
    174 C                     0.025366
    175 C                    -0.011512
    176 C                    -0.009168
  ----------------------------------------
  Sum of atomic charges =     0.000000

                    Cartesian Multipole Moments
 -----------------------------------------------------------------
    Charge (ESU x 10^10)
                 0.0000
    Dipole Moment (Debye)
         X      -1.3104      Y      -2.0980      Z       2.5216
       Tot       3.5323
    Quadrupole Moments (Debye-Ang)
        XX    -757.8132     XY      -6.2284     YY    -807.4302
        XZ     -20.4489     YZ     -11.5421     ZZ    -803.5676

 Total job time:  831.08s(wall), 7052.10s(cpu)
        *  Thank you very much for using Q-Chem.  Have a nice day.  *
