 Q-Chem 4.4, Q-Chem, Inc., Pleasanton, CA (2016)
 Q-Chem 4.4.2 for Intel X86 Linux

User input:
--------------------------------------------------------------
$comment
SP
$end

$rem
MEM_STATIC 5000
MEM_TOTAL 20000
JOBTYPE SP
EXCHANGE B3LYP
BASIS 6-31g(d,p)
$end

$molecule
0 1
O          13.630000     -9.461000     -5.264000
C          12.239000     -9.144000     -5.324000
H          11.721000     -9.830000     -4.643000
H          11.826000     -9.300000     -6.329000
H          12.050000     -8.097000     -5.057000
O          14.234000     -7.441000     -5.984000
C          14.579000     -8.558000     -5.675000
C          16.018000     -8.993000     -5.533000
H          16.152000     -9.973000     -6.008000
H          16.118000     -8.942000     -4.442000
C          17.092000     -8.069000     -6.283000
H          16.896000     -7.977000     -7.359000
H          17.246000     -7.048000     -5.915000
C          18.508000     -8.651000     -6.286000
H          18.490000     -9.537000     -6.932000
H          19.042000     -7.864000     -6.831000
C          19.228000     -8.868000     -4.940000
C          19.304000     -7.562000     -4.205000
C          18.360000     -7.315000     -3.258000
H          17.604000     -8.073000     -3.075000
C          18.305000     -6.132000     -2.541000
H          17.522000     -6.023000     -1.797000
C          19.282000     -5.186000     -2.770000
H          19.174000     -4.198000     -2.333000
C          20.241000     -5.350000     -3.687000
H          20.764000     -4.479000     -4.069000
C          20.276000     -6.559000     -4.350000
H          20.952000     -6.640000     -5.197000
C          23.400000    -10.933000     -2.194000
C          21.613000    -11.165000     -0.631000
C          21.278000    -15.700000     -0.742000
C          22.237000    -13.242000     -6.532000
C          18.531000    -15.620000     -3.008000
C          22.232000    -10.457000     -1.640000
C          20.568000    -15.400000     -5.960000
C          23.290000    -14.245000     -0.694000
C          18.130000    -11.617000     -2.472000
C          20.815000    -13.109000     -6.683000
C          19.011000    -10.216000     -4.244000
C          17.851000    -12.272000     -3.681000
C          18.831000    -13.640000     -5.825000
C          19.945000    -16.011000     -4.893000
C          20.017000    -10.200000     -1.951000
C          20.785000    -16.717000     -2.746000
C          20.346000     -9.832000     -4.814000
C          20.925000    -10.786000     -5.885000
C          19.550000    -16.190000     -2.169000
C          24.128000    -14.877000     -4.087000
C          23.097000    -15.969000     -2.436000
C          23.793000    -14.936000     -1.824000
C          23.380000    -12.848000     -0.578000
C          22.320000    -10.994000     -5.577000
C          18.889000    -10.444000     -2.776000
C          22.179000    -12.329000     -0.121000
C          19.982000    -14.181000     -6.452000
C          20.264000    -11.016000     -0.840000
C          17.671000    -13.647000     -3.740000
C          24.007000    -12.696000     -5.175000
C          22.004000    -14.604000     -0.179000
C          18.327000    -11.497000     -4.748000
C          24.458000    -12.853000     -2.762000
C          18.194000    -14.330000     -4.808000
C          18.310000    -12.370000     -1.286000
C          22.215000    -16.316000     -4.672000
C          22.007000    -15.510000     -5.769000
C          18.222000    -13.801000     -1.341000
C          22.982000    -12.185000     -5.984000
C          20.219000    -11.912000     -6.295000
C          23.907000    -14.088000     -5.219000
C          21.482000     -9.737000     -3.846000
C          20.020000    -13.323000     -0.069000
C          18.948000    -12.235000     -5.767000
C          17.877000    -14.424000     -2.573000
C          24.287000    -12.121000     -3.913000
C          19.888000    -15.564000     -0.944000
C          23.944000    -12.108000     -1.676000
C          21.811000    -16.333000     -1.887000
C          19.468000    -12.076000     -0.510000
C          19.220000    -14.382000     -0.541000
C          21.278000     -9.878000     -2.463000
C          22.628000    -10.405000     -4.380000
C          23.318000    -15.999000     -3.821000
C          21.405000    -13.369000      0.144000
C          18.750000    -15.557000     -4.350000
C          22.781000    -14.406000     -6.019000
C          20.931000    -16.578000     -4.102000
C          23.613000    -10.946000     -3.564000
C          24.452000    -14.233000     -2.861000
O          30.240000    -11.146000      8.457000
C          31.270000    -10.468000      9.217000
H          31.956000     -9.950000      8.535000
H          31.848000    -11.234000      9.747000
H          30.749000     -9.831000      9.942000
O          29.366000    -12.192000     10.341000
C          29.350000    -11.952000      9.156000
C          28.325000    -12.504000      8.195000
H          27.474000    -12.820000      8.812000
H          28.789000    -13.427000      7.828000
C          27.846000    -11.574000      7.012000
H          27.247000    -10.749000      7.416000
H          28.719000    -11.112000      6.535000
C          27.069000    -12.538000      6.082000
H          27.626000    -13.117000      5.335000
H          26.570000    -13.237000      6.764000
C          25.902000    -11.803000      5.282000
C          26.471000    -10.826000      4.282000
C          26.538000    -11.154000      2.893000
H          26.214000    -12.103000      2.477000
C          27.084000    -10.280000      1.957000
H          27.243000    -10.587000      0.927000
C          27.407000     -8.974000      2.376000
H          27.636000     -8.149000      1.709000
C          27.130000     -8.590000      3.682000
H          27.278000     -7.546000      3.941000
C          26.834000     -9.516000      4.706000
H          26.630000     -9.162000      5.712000
C          21.664000     -8.542000      6.203000
C          21.080000     -9.630000      4.054000
C          17.767000    -12.250000      5.719000
C          22.723000    -11.928000      9.713000
C          19.789000    -15.093000      5.932000
C          22.077000     -9.088000      4.947000
C          21.106000    -14.239000      9.204000
C          18.339000     -9.910000      6.197000
C          22.731000    -13.248000      3.810000
C          23.267000    -13.069000      9.094000
C          24.551000    -12.430000      5.152000
C          23.025000    -14.199000      4.822000
C          22.828000    -14.642000      7.560000
C          20.198000    -14.805000      8.366000
C          22.941000    -10.852000      3.951000
C          18.226000    -13.809000      7.284000
C          24.793000    -11.323000      6.166000
C          24.504000    -11.605000      7.650000
C          18.690000    -14.273000      6.050000
C          19.477000    -10.536000      9.481000
C          17.885000    -11.477000      8.039000
C          18.284000    -10.204000      7.540000
C          19.356000     -9.066000      5.671000
C          23.834000    -10.496000      8.188000
C          23.523000    -12.107000      4.082000
C          19.745000     -9.620000      4.406000
C          22.461000    -14.131000      8.786000
C          21.610000    -10.708000      3.391000
C          22.025000    -15.016000      5.331000
C          21.803000     -9.915000      9.382000
C          18.077000    -10.954000      5.247000
C          24.078000    -13.720000      5.651000
C          20.232000     -8.820000      7.961000
C          21.960000    -15.253000      6.737000
C          21.365000    -13.108000      3.319000
C          19.226000    -12.987000      9.367000
C          20.529000    -13.126000      9.830000
C          20.370000    -13.977000      3.814000
C          23.012000    -10.633000      9.342000
C          24.181000    -12.924000      8.052000
C          20.791000    -10.739000      9.861000
C          24.085000    -10.026000      5.967000
C          19.462000    -11.894000      3.491000
C          23.903000    -13.865000      7.067000
C          20.694000    -14.904000      4.846000
C          21.558000     -8.865000      8.476000
C          18.364000    -13.365000      5.081000
C          20.330000     -8.647000      6.597000
C          17.656000    -12.526000      7.088000
C          20.812000    -11.840000      3.033000
C          19.192000    -13.195000      3.919000
C          23.236000     -9.855000      4.864000
C          23.597000     -9.558000      7.220000
C          18.694000    -11.687000      9.164000
C          18.935000    -10.771000      4.159000
C          20.595000    -15.293000      7.138000
C          21.339000    -11.966000     10.065000
C          18.988000    -14.033000      8.433000
C          22.487000     -8.764000      7.341000
C          19.201000     -9.628000      8.458000
$end

--------------------------------------------------------------

             Standard Nuclear Orientation (Angstroms)
    I     Atom           X                Y                Z
 ----------------------------------------------------------------
    1      O       8.8588830211     5.7300731052     0.6259519122
    2      C       9.3570401082     7.0655067456     0.5397747187
    3      H       8.8637766207     7.5403430105    -0.3169064667
    4      H      10.4386444910     7.0883503377     0.3539249688
    5      H       9.1773598459     7.6256780033     1.4655944449
    6      O       9.3805502559     5.5575215119     2.7850501601
    7      C       8.9634729918     5.0105395020     1.7905391060
    8      C       8.3707720715     3.6218590433     1.7709891037
    9      H       8.7661044933     3.0679792830     0.9102275296
   10      H       7.3043740633     3.8779393626     1.7609812068
   11      C       8.7582126150     2.6921538582     3.0181018068
   12      H       9.8424898995     2.5696571532     3.1363952035
   13      H       8.3745781271     2.9645693500     4.0081499770
   14      C       8.3083582615     1.2370250323     2.8631174187
   15      H       8.9150523801     0.7965220636     2.0627953703
   16      H       8.6688831764     0.8187242625     3.8100050845
   17      C       6.8014876086     0.9300321094     2.7522067310
   18      C       6.0978799666     1.4684776537     3.9632598604
   19      C       5.4987414907     2.6844419984     3.8564057591
   20      H       5.5519832488     3.2023766127     2.9032541182
   21      C       4.8516651476     3.2999745800     4.9142407402
   22      H       4.3927740026     4.2677627760     4.7372918078
   23      C       4.7752803378     2.6230414331     6.1133290921
   24      H       4.4079669372     3.1441579922     6.9921324816
   25      C       5.3423730105     1.4269999680     6.3013629036
   26      H       5.5527727221     1.0929144411     7.3124083141
   27      C       5.9441090231     0.8383677724     5.2087051761
   28      H       6.5347672640    -0.0555452125     5.3903323157
   29      C       2.8560457537    -2.6226055536     1.7409801465
   30      C       1.9302650819    -0.5962175398     0.8884288195
   31      C       2.0783305743    -1.6592700945    -3.5318389186
   32      C       7.3075522161    -3.5662787451    -0.4489662279
   33      C       5.0932358955     0.1645811420    -4.0524900220
   34      C       2.7034874655    -1.2558385126     1.8209165233
   35      C       7.2589326755    -2.5141949189    -3.0297538524
   36      C       1.4209722038    -3.0402882425    -1.5752751329
   37      C       4.7655136049     1.8674461087    -0.3830275266
   38      C       7.8992954401    -2.2845003356    -0.7125152095
   39      C       6.1903334806     0.9420988378     1.3468761557
   40      C       5.9918176157     1.5601754715    -0.9915587325
   41      C       7.7005225327    -0.3818216594    -1.8503571082
   42      C       6.4332435409    -1.8048056029    -3.8752970218
   43      C       3.6978628105     0.7323447086     1.4640690039
   44      C       4.1215505061    -2.1207249110    -4.4835036508
   45      C       6.3174905035    -0.3281045773     2.1374426462
   46      C       7.1392224172    -1.4588052004     1.4751203963
   47      C       3.9689017283    -0.6712609796    -4.3756349250
   48      C       4.3701038718    -5.0170381457    -1.6711877241
   49      C       3.1115157137    -3.9017339535    -3.1385930558
   50      C       2.3262056315    -4.0427590410    -2.0030539769
   51      C       1.3018451671    -2.6759855649    -0.2238842537
   52      C       6.4058828006    -2.6904251278     1.6468130320
   53      C       4.8319166438     1.4319760444     0.9772601119
   54      C       1.2523259563    -1.2961683152    -0.1044555918
   55      C       7.9268231417    -1.7744826473    -1.9914046431
   56      C       2.5543639417     0.6064772811     0.6654741581
   57      C       6.0854007954     1.3012260683    -2.3519606566
   58      C       5.4710150062    -4.5971717790     0.4658319080
   59      C       1.3309838921    -1.8238626065    -2.3236819579
   60      C       6.8659311550     1.0321967984    -0.0309058081
   61      C       3.0365344078    -4.3183529606     0.2509289469
   62      C       6.9256064957     0.3018333865    -2.7713776909
   63      C       3.5727255438     1.8436126579    -1.1463712290
   64      C       5.5063722721    -3.8843005445    -3.5415659343
   65      C       6.6241954216    -3.7924569378    -2.7426008798
   66      C       3.6328479392     1.4860512600    -2.5345589484
   67      C       6.5679408497    -3.7641118978     0.7284950540
   68      C       7.7346303774    -1.2746352946     0.2317448268
   69      C       5.5250010489    -4.9290520174    -0.8893584899
   70      C       5.0431192065    -1.0352998431     2.4727002387
   71      C       1.8672716391     0.3839556047    -1.6700374072
   72      C       7.6280866748    -0.0572692089    -0.4790450528
   73      C       4.9021537754     1.2410011287    -3.1293623843
   74      C       4.1929808014    -4.2982058182     0.9939577696
   75      C       2.7084806899    -0.4211141014    -3.7793880421
   76      C       2.1772693922    -3.3034208627     0.7307137628
   77      C       2.9891819462    -2.6764404367    -3.8944920218
   78      C       2.4764559166     1.1165930822    -0.5993689978
   79      C       2.5519800598     0.6541484470    -2.8710516480
   80      C       3.7923441660    -0.4713887386     2.1697942064
   81      C       5.1809536091    -2.4324804220     2.2014363315
   82      C       4.3564936127    -4.5319167505    -2.9941435030
   83      C       1.2294898862    -0.8198731898    -1.3387661148
   84      C       6.2993034758    -0.4233819514    -3.8231553485
   85      C       6.6336740296    -4.2453812661    -1.4483204972
   86      C       5.3648809022    -2.6244558169    -4.2010895918
   87      C       4.0895306513    -3.2359817696     1.8982144462
   88      C       3.1133781910    -4.7486102385    -1.0617822581
   89      O      -9.4060195944    -5.6451812948     2.6244728105
   90      C     -10.4416100960    -6.1482125104     3.5035040438
   91      H     -10.0024716692    -6.8249690365     4.2472795787
   92      H     -11.1368178001    -6.7359809653     2.8928040425
   93      H     -10.9574646660    -5.2684383903     3.9068978468
   94      O     -10.9344670765    -4.5877869905     1.2268986336
   95      C      -9.8012020702    -4.8630395299     1.5463160174
   96      C      -8.5746336820    -4.3886191594     0.8051646825
   97      H      -8.8974660551    -3.5227347997     0.2129066859
   98      H      -8.3846740570    -5.1919515154     0.0837172024
   99      C      -7.2883559505    -4.0409015996     1.6527566221
  100      H      -7.4723955569    -3.1327874282     2.2393570610
  101      H      -7.1033233395    -4.8412455229     2.3796091087
  102      C      -6.1747770299    -3.9028809287     0.5856027990
  103      H      -5.6485435837    -4.8049200118     0.2495926019
  104      H      -6.6751357714    -3.4487790030    -0.2782019074
  105      C      -5.0387137187    -2.8725704329     1.0214174788
  106      C      -4.2546252129    -3.4050841566     2.1961192917
  107      C      -2.9615956713    -3.9845150672     2.0124662909
  108      H      -2.4780151394    -4.0963112289     1.0469174897
  109      C      -2.2324598558    -4.5070004065     3.0771061514
  110      H      -1.3088347174    -5.0544774469     2.9109270496
  111      C      -2.7136533356    -4.2884604613     4.3833293817
  112      H      -2.1410067786    -4.4562985702     5.2898950384
  113      C      -3.8611699554    -3.5275067233     4.5676552234
  114      H      -4.1391283968    -3.2760347704     5.5866851355
  115      C      -4.7530716847    -3.2200958730     3.5170944806
  116      H      -5.6391337547    -2.6253236763     3.7173644037
  117      C      -4.5371786507     2.2063123504     2.8643548758
  118      C      -2.3287098718     1.7623670026     1.8306338396
  119      C      -2.9050124533     4.5007552628    -1.7445163771
  120      C      -8.2484971911     1.3186712810    -0.3519761121
  121      C      -3.7813916288     1.8976217899    -3.9060338217
  122      C      -3.4820699259     1.2897059474     2.5597251320
  123      C      -7.2893518068     1.9499959764    -2.9779921556
  124      C      -3.5061582328     4.8154947343     0.6157443748
  125      C      -2.6654285133    -0.8712973852    -1.1401730287
  126      C      -7.8474395863     0.3021532127    -1.2390058830
  127      C      -4.4996787602    -1.8721172158     0.0499419651
  128      C      -3.7315664226    -1.1095334817    -2.0465805092
  129      C      -6.2750174067    -0.2287493732    -2.7442756041
  130      C      -6.2164841283     2.3516748219    -3.7092055647
  131      C      -2.8322026666    -0.3145212086     1.1979851505
  132      C      -4.5563159912     4.1024367838    -3.2294157053
  133      C      -5.5230174519    -1.4577589955     1.0955490554
  134      C      -6.8449229971    -0.8275548579     0.6257517859
  135      C      -3.5369777963     3.1704042603    -3.4429877532
  136      C      -6.9896976063     4.5987398737     0.0776488780
  137      C      -5.1338128265     5.3263939329    -1.1574706523
  138      C      -4.7678617371     5.1872541415     0.2120003837
  139      C      -3.3145655784     3.9820349254     1.7523788815
  140      C      -7.1299586217     0.2691103765     1.4529791163
  141      C      -3.1566323466    -1.1709485817     0.1529073843
  142      C      -2.2434863905     3.0820893781     1.4340246996
  143      C      -7.3165750974     0.6267643288    -2.4576750414
  144      C      -1.8806176791     0.7636739766     1.0033620423
  145      C      -3.9119873085    -0.2887120359    -3.1512390348
  146      C      -7.6176118081     2.6433646316     1.3377875282
  147      C      -2.5364261806     4.4572352095    -0.3804232114
  148      C      -4.8426252584    -1.6709159882    -1.3567334649
  149      C      -5.7601928314     3.9567721091     2.0528137820
  150      C      -5.2295712422     0.1280166949    -3.5083661025
  151      C      -1.7684096605     0.2584176250    -1.3540378771
  152      C      -6.8364373286     4.0711615347    -2.3268407525
  153      C      -7.6870772339     2.9903170824    -2.1276272451
  154      C      -1.9378271818     1.0551682839    -2.5058612538
  155      C      -7.9692101688     1.3245954935     0.9971534824
  156      C      -7.1432921022    -0.8002972036    -0.7584183256
  157      C      -7.7658814136     3.4638817096     0.2254346846
  158      C      -5.0938867926    -0.4954826543     2.1505111971
  159      C      -1.3173398607     2.3919933395    -0.7464362752
  160      C      -6.1338898057    -1.1244265783    -1.6578832512
  161      C      -3.0320416530     0.8028812090    -3.3824312298
  162      C      -6.6661240470     2.8985229549     2.3442299114
  163      C      -2.5022036658     3.4380740827    -2.5901710289
  164      C      -4.4937254003     3.5040987776     2.3547675876
  165      C      -4.1735636881     4.9364566289    -2.1489914495
  166      C      -1.3057649039     1.0452598740    -0.2759524888
  167      C      -1.6567869998     2.3844184973    -2.1004684985
  168      C      -3.7778214122    -0.0112291450     2.1615317825
  169      C      -6.1236697905     0.4652508051     2.3595929925
  170      C      -6.4587390263     4.8736144061    -1.2188487031
  171      C      -1.7705004344     3.4027139116     0.1242941190
  172      C      -5.1821319669     1.4751273103    -3.9651685817
  173      C      -8.1485474144     2.6686892258    -0.8083373625
  174      C      -5.8894587500     3.6954303589    -3.3193998970
  175      C      -5.8790078413     1.7412718347     2.7944353348
  176      C      -5.9193627178     4.8046820493     0.9489353101
 ----------------------------------------------------------------

    9   -5804.3024062631      8.39E-06 Convergence criterion met
 Total energy in the final basis set = -5804.3024062631

                    Orbital Energies (a.u.)
 --------------------------------------------------------------

 Alpha MOs
 -- Occupied --
-19.189 -19.184 -19.140 -19.129 -10.316 -10.314 -10.245 -10.244
-10.243 -10.241 -10.241 -10.241 -10.236 -10.235 -10.230 -10.230
-10.229 -10.228 -10.228 -10.228 -10.225 -10.225 -10.224 -10.223
-10.223 -10.223 -10.222 -10.221 -10.221 -10.221 -10.220 -10.220
-10.220 -10.220 -10.220 -10.220 -10.220 -10.219 -10.219 -10.219
-10.219 -10.219 -10.219 -10.218 -10.218 -10.218 -10.218 -10.218
-10.218 -10.218 -10.218 -10.217 -10.217 -10.217 -10.217 -10.217
-10.217 -10.217 -10.217 -10.217 -10.216 -10.216 -10.216 -10.216
-10.216 -10.216 -10.216 -10.216 -10.215 -10.215 -10.215 -10.215
-10.215 -10.215 -10.215 -10.215 -10.215 -10.215 -10.215 -10.215
-10.215 -10.214 -10.214 -10.214 -10.214 -10.214 -10.214 -10.214
-10.214 -10.214 -10.213 -10.213 -10.213 -10.213 -10.213 -10.213
-10.213 -10.213 -10.213 -10.212 -10.212 -10.212 -10.212 -10.212
-10.212 -10.212 -10.212 -10.212 -10.212 -10.211 -10.211 -10.211
-10.211 -10.210 -10.210 -10.210 -10.210 -10.209 -10.209 -10.209
-10.209 -10.209 -10.208 -10.208 -10.208 -10.207 -10.207 -10.207
-10.206 -10.206 -10.205 -10.204 -10.204 -10.203 -10.203 -10.203
-10.203 -10.202 -10.201 -10.200 -10.200 -10.199 -10.196 -10.196
-10.194 -10.192 -10.191 -10.190  -1.092  -1.087  -1.015  -1.005
 -0.984  -0.982  -0.968  -0.964  -0.963  -0.961  -0.961  -0.959
 -0.935  -0.932  -0.929  -0.928  -0.925  -0.923  -0.923  -0.921
 -0.919  -0.918  -0.901  -0.894  -0.891  -0.887  -0.882  -0.881
 -0.881  -0.873  -0.865  -0.852  -0.845  -0.841  -0.841  -0.837
 -0.837  -0.836  -0.821  -0.820  -0.804  -0.804  -0.799  -0.798
 -0.795  -0.795  -0.794  -0.793  -0.792  -0.791  -0.784  -0.781
 -0.773  -0.771  -0.771  -0.770  -0.768  -0.768  -0.767  -0.760
 -0.757  -0.751  -0.749  -0.739  -0.734  -0.731  -0.717  -0.716
 -0.715  -0.714  -0.713  -0.712  -0.711  -0.710  -0.709  -0.708
 -0.707  -0.707  -0.705  -0.705  -0.703  -0.696  -0.677  -0.673
 -0.661  -0.659  -0.658  -0.656  -0.650  -0.647  -0.633  -0.633
 -0.628  -0.626  -0.626  -0.622  -0.621  -0.619  -0.619  -0.617
 -0.616  -0.616  -0.616  -0.614  -0.613  -0.612  -0.609  -0.608
 -0.606  -0.606  -0.604  -0.601  -0.567  -0.565  -0.562  -0.561
 -0.561  -0.560  -0.559  -0.557  -0.556  -0.555  -0.552  -0.551
 -0.541  -0.537  -0.534  -0.534  -0.528  -0.526  -0.526  -0.524
 -0.523  -0.522  -0.520  -0.517  -0.516  -0.514  -0.514  -0.512
 -0.507  -0.504  -0.504  -0.498  -0.495  -0.491  -0.489  -0.487
 -0.485  -0.484  -0.483  -0.482  -0.481  -0.479  -0.477  -0.475
 -0.471  -0.469  -0.469  -0.468  -0.468  -0.467  -0.466  -0.465
 -0.465  -0.464  -0.463  -0.462  -0.462  -0.461  -0.459  -0.459
 -0.457  -0.455  -0.453  -0.452  -0.448  -0.447  -0.445  -0.445
 -0.442  -0.442  -0.441  -0.439  -0.438  -0.438  -0.434  -0.433
 -0.432  -0.432  -0.429  -0.429  -0.428  -0.426  -0.425  -0.425
 -0.424  -0.423  -0.422  -0.422  -0.421  -0.420  -0.419  -0.419
 -0.418  -0.417  -0.416  -0.415  -0.414  -0.414  -0.413  -0.412
 -0.412  -0.410  -0.409  -0.408  -0.406  -0.401  -0.397  -0.395
 -0.393  -0.392  -0.392  -0.390  -0.389  -0.385  -0.385  -0.381
 -0.381  -0.379  -0.376  -0.373  -0.372  -0.369  -0.368  -0.367
 -0.364  -0.362  -0.362  -0.361  -0.360  -0.359  -0.358  -0.358
 -0.357  -0.357  -0.356  -0.355  -0.353  -0.352  -0.352  -0.351
 -0.351  -0.348  -0.348  -0.348  -0.348  -0.346  -0.345  -0.343
 -0.343  -0.342  -0.341  -0.340  -0.338  -0.338  -0.337  -0.334
 -0.333  -0.333  -0.332  -0.330  -0.329  -0.327  -0.325  -0.323
 -0.317  -0.312  -0.300  -0.293  -0.287  -0.286  -0.272  -0.271
 -0.270  -0.269  -0.269  -0.267  -0.265  -0.265  -0.264  -0.264
 -0.263  -0.261  -0.261  -0.260  -0.258  -0.257  -0.256  -0.254
 -0.254  -0.250  -0.249  -0.246  -0.221  -0.219  -0.214  -0.213
 -0.210  -0.207  -0.206  -0.203  -0.203  -0.201

          Ground-State Mulliken Net Atomic Charges

     Atom                 Charge (a.u.)
  ----------------------------------------
      1 O                    -0.476191
      2 C                    -0.081334
      3 H                     0.121430
      4 H                     0.119044
      5 H                     0.134391
      6 O                    -0.462884
      7 C                     0.578359
      8 C                    -0.250525
      9 H                     0.133847
     10 H                     0.144932
     11 C                    -0.175803
     12 H                     0.114044
     13 H                     0.126557
     14 C                    -0.203007
     15 H                     0.101434
     16 H                     0.109060
     17 C                     0.025426
     18 C                     0.111305
     19 C                    -0.114431
     20 H                     0.081424
     21 C                    -0.072590
     22 H                     0.093305
     23 C                    -0.090960
     24 H                     0.083629
     25 C                    -0.067998
     26 H                     0.099567
     27 C                    -0.139220
     28 H                     0.079475
     29 C                    -0.003563
     30 C                     0.025261
     31 C                     0.002994
     32 C                    -0.004125
     33 C                    -0.002751
     34 C                    -0.008994
     35 C                    -0.038406
     36 C                     0.011484
     37 C                     0.017900
     38 C                     0.001861
     39 C                    -0.063959
     40 C                     0.031705
     41 C                     0.001949
     42 C                     0.057539
     43 C                     0.006991
     44 C                    -0.030618
     45 C                    -0.093883
     46 C                    -0.000420
     47 C                    -0.020138
     48 C                     0.009546
     49 C                     0.011956
     50 C                    -0.000609
     51 C                    -0.048985
     52 C                    -0.005657
     53 C                    -0.001689
     54 C                     0.050249
     55 C                    -0.021923
     56 C                     0.009841
     57 C                     0.002490
     58 C                    -0.012700
     59 C                    -0.035305
     60 C                     0.002080
     61 C                     0.028074
     62 C                    -0.012317
     63 C                    -0.039646
     64 C                    -0.018860
     65 C                    -0.000375
     66 C                    -0.003270
     67 C                    -0.004409
     68 C                     0.032692
     69 C                    -0.012270
     70 C                     0.039296
     71 C                     0.008854
     72 C                    -0.010032
     73 C                    -0.012348
     74 C                     0.000854
     75 C                     0.001814
     76 C                    -0.013076
     77 C                     0.009085
     78 C                    -0.015780
     79 C                     0.008483
     80 C                    -0.000013
     81 C                     0.023093
     82 C                    -0.007745
     83 C                     0.008186
     84 C                     0.010532
     85 C                     0.026847
     86 C                     0.016275
     87 C                    -0.011237
     88 C                    -0.025616
     89 O                    -0.479062
     90 C                    -0.082238
     91 H                     0.125042
     92 H                     0.129226
     93 H                     0.130116
     94 O                    -0.464507
     95 C                     0.591766
     96 C                    -0.277315
     97 H                     0.137037
     98 H                     0.139006
     99 C                    -0.173378
    100 H                     0.110855
    101 H                     0.135294
    102 C                    -0.183034
    103 H                     0.116048
    104 H                     0.111123
    105 C                    -0.008116
    106 C                     0.074158
    107 C                    -0.101145
    108 H                     0.091961
    109 C                    -0.092485
    110 H                     0.096495
    111 C                    -0.080360
    112 H                     0.090259
    113 C                    -0.093838
    114 H                     0.085498
    115 C                    -0.097362
    116 H                     0.097188
    117 C                    -0.016573
    118 C                     0.012876
    119 C                     0.002262
    120 C                     0.005372
    121 C                    -0.019378
    122 C                    -0.030718
    123 C                    -0.007522
    124 C                    -0.018372
    125 C                    -0.003383
    126 C                    -0.009057
    127 C                    -0.085874
    128 C                     0.007971
    129 C                     0.014682
    130 C                     0.015675
    131 C                    -0.003376
    132 C                    -0.003945
    133 C                    -0.076584
    134 C                     0.023075
    135 C                     0.041184
    136 C                    -0.019942
    137 C                    -0.006215
    138 C                     0.026428
    139 C                    -0.025511
    140 C                     0.025289
    141 C                     0.021455
    142 C                    -0.007812
    143 C                     0.023879
    144 C                     0.001538
    145 C                    -0.000760
    146 C                     0.006879
    147 C                    -0.006734
    148 C                     0.016909
    149 C                     0.012682
    150 C                    -0.018132
    151 C                     0.000697
    152 C                     0.016764
    153 C                    -0.020410
    154 C                    -0.001118
    155 C                    -0.026512
    156 C                    -0.043632
    157 C                     0.055118
    158 C                     0.011723
    159 C                     0.006117
    160 C                     0.022511
    161 C                    -0.002768
    162 C                    -0.046566
    163 C                    -0.002056
    164 C                     0.044675
    165 C                    -0.015067
    166 C                    -0.022680
    167 C                    -0.014639
    168 C                     0.045812
    169 C                     0.032116
    170 C                    -0.009258
    171 C                     0.019315
    172 C                    -0.014847
    173 C                    -0.003508
    174 C                    -0.019298
    175 C                    -0.031818
    176 C                    -0.006665
  ----------------------------------------
  Sum of atomic charges =     0.000000

                    Cartesian Multipole Moments
 -----------------------------------------------------------------
    Charge (ESU x 10^10)
                 0.0000
    Dipole Moment (Debye)
         X       1.8266      Y      -1.9255      Z       3.3146
       Tot       4.2463
    Quadrupole Moments (Debye-Ang)
        XX    -827.2019     XY      13.6325     YY    -794.1294
        XZ     -15.5426     YZ     -18.2034     ZZ    -791.3651

 Total job time:  830.18s(wall), 7047.52s(cpu)
        *  Thank you very much for using Q-Chem.  Have a nice day.  *
