 Q-Chem 4.4, Q-Chem, Inc., Pleasanton, CA (2016)
 Q-Chem 4.4.2 for Intel X86 Linux

User input:
--------------------------------------------------------------
$comment
SP
$end

$rem
MEM_STATIC 5000
MEM_TOTAL 20000
JOBTYPE SP
EXCHANGE B3LYP
BASIS 6-31g(d,p)
$end

$molecule
0 1
O          15.727000    -15.018000      1.207000
C          16.812000    -14.672000      2.076000
H          16.942000    -15.506000      2.777000
H          16.555000    -13.688000      2.488000
H          17.785000    -14.699000      1.570000
O          16.991000    -16.490000      0.014000
C          15.895000    -15.978000      0.245000
C          14.679000    -16.361000     -0.556000
H          14.071000    -16.976000      0.117000
H          15.010000    -16.863000     -1.474000
C          13.846000    -15.101000     -0.883000
H          13.105000    -15.475000     -1.600000
H          13.345000    -14.780000      0.038000
C          14.543000    -13.927000     -1.489000
H          15.397000    -13.557000     -0.909000
H          14.986000    -14.201000     -2.455000
C          13.575000    -12.738000     -1.650000
C          12.815000    -12.719000     -2.928000
C          11.528000    -13.306000     -2.947000
H          11.140000    -13.610000     -1.980000
C          10.847000    -13.342000     -4.105000
H           9.914000    -13.895000     -4.153000
C          11.364000    -12.916000     -5.343000
H          10.783000    -13.029000     -6.253000
C          12.675000    -12.433000     -5.371000
H          12.992000    -11.967000     -6.300000
C          13.403000    -12.350000     -4.130000
H          14.392000    -11.903000     -4.166000
C          13.197000     -7.274000     -1.549000
C          11.053000     -8.037000     -0.760000
C          11.431000     -6.698000      3.540000
C          16.806000     -9.412000      1.313000
C          12.277000     -9.985000      4.612000
C          12.154000     -8.232000     -1.565000
C          15.760000     -9.719000      3.894000
C          12.136000     -5.610000      1.503000
C          11.158000    -11.541000      1.018000
C          16.306000    -10.644000      1.707000
C          13.029000    -12.131000     -0.394000
C          12.174000    -12.093000      1.829000
C          14.740000    -11.676000      2.920000
C          14.646000     -9.568000      4.704000
C          11.307000    -10.221000     -0.963000
C          13.066000     -7.679000      4.828000
C          14.055000    -11.407000     -1.267000
C          15.364000    -11.022000     -0.528000
C          12.030000     -8.620000      4.758000
C          15.496000     -6.241000      2.018000
C          13.679000     -5.903000      3.325000
C          13.426000     -5.435000      2.008000
C          11.960000     -6.003000      0.112000
C          15.730000     -9.710000     -0.873000
C          11.669000    -11.446000     -0.299000
C          10.917000     -6.889000      0.092000
C          15.852000    -10.833000      3.013000
C          10.436000     -9.268000     -0.404000
C          12.364000    -11.722000      3.184000
C          16.212000     -7.528000      0.146000
C          11.146000     -6.229000      2.243000
C          13.308000    -12.370000      1.080000
C          14.342000     -5.971000     -0.146000
C          13.605000    -11.531000      3.759000
C          10.325000    -10.533000      1.586000
C          15.336000     -7.580000      3.976000
C          16.250000     -8.440000      3.485000
C          10.516000    -10.144000      2.920000
C          16.438000     -8.887000      0.093000
C          15.545000    -11.433000      0.825000
C          16.413000     -7.178000      1.504000
C          13.679000    -10.066000     -1.909000
C           9.863000     -8.321000      1.771000
C          14.595000    -12.082000      1.593000
C          11.510000    -10.740000      3.727000
C          15.234000     -6.980000     -0.666000
C          11.040000     -8.025000      3.903000
C          13.083000     -6.137000     -0.684000
C          12.664000     -6.625000      4.084000
C           9.970000     -9.405000      0.886000
C          10.222000     -8.798000      3.020000
C          12.310000     -9.536000     -1.792000
C          14.707000     -9.105000     -1.673000
C          15.009000     -6.389000      3.312000
C          10.397000     -7.037000      1.374000
C          13.575000    -10.488000      4.648000
C          16.808000     -8.303000      2.237000
C          14.384000     -8.199000      4.806000
C          14.455000     -7.772000     -1.561000
C          14.519000     -5.644000      1.203000
O          30.240000    -11.146000      8.457000
C          31.270000    -10.468000      9.217000
H          31.956000     -9.950000      8.535000
H          31.848000    -11.234000      9.747000
H          30.749000     -9.831000      9.942000
O          29.366000    -12.192000     10.341000
C          29.350000    -11.952000      9.156000
C          28.325000    -12.504000      8.195000
H          27.474000    -12.820000      8.812000
H          28.789000    -13.427000      7.828000
C          27.846000    -11.574000      7.012000
H          27.247000    -10.749000      7.416000
H          28.719000    -11.112000      6.535000
C          27.069000    -12.538000      6.082000
H          27.626000    -13.117000      5.335000
H          26.570000    -13.237000      6.764000
C          25.902000    -11.803000      5.282000
C          26.471000    -10.826000      4.282000
C          26.538000    -11.154000      2.893000
H          26.214000    -12.103000      2.477000
C          27.084000    -10.280000      1.957000
H          27.243000    -10.587000      0.927000
C          27.407000     -8.974000      2.376000
H          27.636000     -8.149000      1.709000
C          27.130000     -8.590000      3.682000
H          27.278000     -7.546000      3.941000
C          26.834000     -9.516000      4.706000
H          26.630000     -9.162000      5.712000
C          21.664000     -8.542000      6.203000
C          21.080000     -9.630000      4.054000
C          17.767000    -12.250000      5.719000
C          22.723000    -11.928000      9.713000
C          19.789000    -15.093000      5.932000
C          22.077000     -9.088000      4.947000
C          21.106000    -14.239000      9.204000
C          18.339000     -9.910000      6.197000
C          22.731000    -13.248000      3.810000
C          23.267000    -13.069000      9.094000
C          24.551000    -12.430000      5.152000
C          23.025000    -14.199000      4.822000
C          22.828000    -14.642000      7.560000
C          20.198000    -14.805000      8.366000
C          22.941000    -10.852000      3.951000
C          18.226000    -13.809000      7.284000
C          24.793000    -11.323000      6.166000
C          24.504000    -11.605000      7.650000
C          18.690000    -14.273000      6.050000
C          19.477000    -10.536000      9.481000
C          17.885000    -11.477000      8.039000
C          18.284000    -10.204000      7.540000
C          19.356000     -9.066000      5.671000
C          23.834000    -10.496000      8.188000
C          23.523000    -12.107000      4.082000
C          19.745000     -9.620000      4.406000
C          22.461000    -14.131000      8.786000
C          21.610000    -10.708000      3.391000
C          22.025000    -15.016000      5.331000
C          21.803000     -9.915000      9.382000
C          18.077000    -10.954000      5.247000
C          24.078000    -13.720000      5.651000
C          20.232000     -8.820000      7.961000
C          21.960000    -15.253000      6.737000
C          21.365000    -13.108000      3.319000
C          19.226000    -12.987000      9.367000
C          20.529000    -13.126000      9.830000
C          20.370000    -13.977000      3.814000
C          23.012000    -10.633000      9.342000
C          24.181000    -12.924000      8.052000
C          20.791000    -10.739000      9.861000
C          24.085000    -10.026000      5.967000
C          19.462000    -11.894000      3.491000
C          23.903000    -13.865000      7.067000
C          20.694000    -14.904000      4.846000
C          21.558000     -8.865000      8.476000
C          18.364000    -13.365000      5.081000
C          20.330000     -8.647000      6.597000
C          17.656000    -12.526000      7.088000
C          20.812000    -11.840000      3.033000
C          19.192000    -13.195000      3.919000
C          23.236000     -9.855000      4.864000
C          23.597000     -9.558000      7.220000
C          18.694000    -11.687000      9.164000
C          18.935000    -10.771000      4.159000
C          20.595000    -15.293000      7.138000
C          21.339000    -11.966000     10.065000
C          18.988000    -14.033000      8.433000
C          22.487000     -8.764000      7.341000
C          19.201000     -9.628000      8.458000
$end

--------------------------------------------------------------

             Standard Nuclear Orientation (Angstroms)
    I     Atom           X                Y                Z
 ----------------------------------------------------------------
    1      O       2.7021780671    -4.1173801184    -2.1038173356
    2      C       1.3843158398    -3.5802844021    -1.9398986316
    3      H       0.8173997423    -3.8358961668    -2.8438487211
    4      H       1.5279938727    -2.5180925568    -1.7050495169
    5      H       0.7959994025    -4.1232389714    -1.1898465632
    6      O       2.0177130980    -6.2492859728    -1.6864276686
    7      C       2.9106645172    -5.4680016948    -2.0165089312
    8      C       4.3025449420    -5.9634026309    -2.3066688794
    9      H       4.4116311009    -5.8990767908    -3.3951450602
   10      H       4.4084274608    -6.9717611143    -1.8867985885
   11      C       5.3428933991    -4.9970761202    -1.6964999172
   12      H       6.2863545563    -5.5435304840    -1.8161438603
   13      H       5.3581312463    -4.0878535656    -2.3091704275
   14      C       5.1964101822    -4.6107633153    -0.2610118176
   15      H       4.2232928494    -4.1745694327    -0.0052901851
   16      H       5.2593650437    -5.4973323508     0.3828150464
   17      C       6.2612406321    -3.5697538307     0.1378633079
   18      C       7.5498932272    -4.1425765253     0.6095556332
   19      C       8.5887587013    -4.3139666971    -0.3352633631
   20      H       8.4033668819    -3.8849656449    -1.3148739850
   21      C       9.7429727953    -4.8757710649     0.0624635250
   22      H      10.4965811872    -5.1186544645    -0.6802908395
   23      C       9.9676741561    -5.4012266319     1.3488595548
   24      H      10.9031231978    -5.8976088038     1.5875430898
   25      C       8.9180520722    -5.3434371801     2.2695917961
   26      H       9.1665231500    -5.6087883450     3.2935726958
   27      C       7.6884057466    -4.7067042877     1.8702233727
   28      H       6.9146399669    -4.6082458970     2.6257486625
   29      C       7.2420277198     0.7892114672     3.3073836534
   30      C       8.5936510169     1.1575316958     1.3480774824
   31      C       6.3106325545     4.6618631885    -0.3646082708
   32      C       2.4475223883     0.0228957572     1.8199537025
   33      C       4.6278479117     2.5728370273    -2.7041540694
   34      C       8.0219001039     0.2780921599     2.2413512345
   35      C       2.0268191076     1.5592105347    -0.4849696485
   36      C       6.8554879459     4.1288296320     1.9264931740
   37      C       7.1692603786    -0.5104354882    -1.9137198416
   38      C       2.5224045099    -0.5790187095     0.5728965095
   39      C       6.1860365931    -2.2305135608    -0.5291305842
   40      C       5.8233422317    -0.6845537279    -2.3047034482
   41      C       3.1326850971    -0.2972655578    -1.5571086000
   42      C       2.6015694816     2.4106531144    -1.4148107861
   43      C       8.1938534040    -0.7049067290     0.2313563969
   44      C       4.1412085876     4.3000191595    -1.0407728591
   45      C       5.8311838172    -2.4247685377     0.9457678908
   46      C       4.3904229957    -1.9858430392     1.3191037475
   47      C       4.9440333390     3.7682951308    -2.0588195063
   48      C       3.6329805976     3.1849741653     2.7496391200
   49      C       4.5893037777     4.6360179940     1.2991565167
   50      C       5.5198929634     4.2709617401     2.3082450654
   51      C       7.6453449432     3.0383871633     2.4809001961
   52      C       4.4166756282    -1.2626420265     2.5235189976
   53      C       7.3954926114    -1.3367347385    -0.7864738499
   54      C       8.4365059456     2.5804035100     1.4622931857
   55      C       2.2405220641     0.1553041971    -0.5798329278
   56      C       8.7879816949     0.5603764177     0.0719790687
   57      C       5.0364627735     0.3643295517    -2.8436195676
   58      C       3.7796360962     0.9163647320     3.4604924129
   59      C       7.2589199076     4.3167478724     0.6177569946
   60      C       5.1848931775    -1.6014079132    -1.4828474948
   61      C       5.7316306933     2.3682028176     3.7576392894
   62      C       3.7103205917     0.5715741264    -2.5186832660
   63      C       7.7334005669     0.7939717807    -2.0270535301
   64      C       2.6267797463     3.3536143645     0.6022208258
   65      C       1.9740352419     2.1907141794     0.7962949651
   66      C       6.9583981229     1.8440148564    -2.5409978374
   67      C       3.4361629571    -0.2143738940     2.7504062474
   68      C       3.5111921941    -1.5390587035     0.2897214303
   69      C       2.9791082219     1.9483405408     2.9116335489
   70      C       6.6456559980    -1.6872311793     2.0155784869
   71      C       8.3243764233     2.7145671301    -0.9769706568
   72      C       3.8625142748    -1.3667074810    -1.0370765391
   73      C       5.6276700824     1.6385916337    -2.9669851396
   74      C       5.0928973344     1.0781672015     3.8670596044
   75      C       6.2949896642     3.9434857767    -1.6012441081
   76      C       7.0581227227     2.2063345322     3.4166135511
   77      C       4.9914759437     4.7615029849    -0.0973036746
   78      C       8.5310570945     1.3280034367    -1.0437106325
   79      C       7.3352944062     3.0081427534    -1.8999772206
   80      C       7.8319029484    -0.8978317938     1.6435344264
   81      C       5.7700032275    -1.0395243221     2.9373751308
   82      C       3.3906869904     3.9512720364     1.6149187224
   83      C       8.2285019951     3.3470636254     0.3200171140
   84      C       3.4302279692     1.9114036619    -2.4446904368
   85      C       2.1311285854     1.4271604599     1.9276412423
   86      C       2.9529644969     3.5864315981    -0.7460241980
   87      C       6.1032001414     0.1121722365     3.5819772199
   88      C       4.9532032263     3.3825458822     3.1891167958
   89      O     -12.8553081784    -0.1178640098     2.3851185760
   90      C     -14.0289946044     0.6228804640     2.7997772286
   91      H     -14.2131455534     0.4606818910     3.8692743305
   92      H     -14.8871163002     0.2161587566     2.2521052394
   93      H     -13.8585834769     1.6637089648     2.4989931208
   94      O     -13.1737528644     0.3949533840     0.1394428864
   95      C     -12.5416057454    -0.1212474428     1.0316355373
   96      C     -11.2562955891    -0.8855402299     0.8250336552
   97      H     -10.8721097696    -0.5687541690    -0.1531247409
   98      H     -11.5921734156    -1.9209782565     0.6947716932
   99      C     -10.1383194693    -0.7633003133     1.9336439557
  100      H      -9.7175060457     0.2492679739     1.9174104592
  101      H     -10.5919251664    -0.8892366391     2.9243426553
  102      C      -9.1346160789    -1.8831885207     1.5643813028
  103      H      -9.3175436793    -2.9005653001     1.9317788828
  104      H      -9.1344605830    -1.9030504958     0.4678725350
  105      C      -7.6408144493    -1.5271065847     1.9931893555
  106      C      -7.5075294261    -1.4979644323     3.4964111747
  107      C      -6.9189587293    -2.5923293025     4.2016374263
  108      H      -6.5571491863    -3.4978625205     3.7244200275
  109      C      -6.8109569706    -2.5993070890     5.5895765210
  110      H      -6.4766353240    -3.4848419563     6.1229497819
  111      C      -7.1272530808    -1.4165000846     6.2870364561
  112      H      -6.8866740296    -1.2291977398     7.3286671737
  113      C      -7.4870894206    -0.2805992599     5.5728459179
  114      H      -7.6076435372     0.6447946344     6.1278538867
  115      C      -7.8601402288    -0.3181903787     4.2115641682
  116      H      -8.1378433532     0.5995350024     3.7020260443
  117      C      -4.0361329007     2.4983365503     1.4981292578
  118      C      -2.6099713088     0.5138614421     1.9115571945
  119      C      -0.9286077358     0.2371321315    -2.2966528079
  120      C      -7.1231232325     1.7347900091    -2.3481760305
  121      C      -3.1381990082    -2.2878054467    -3.2758865056
  122      C      -3.8388201137     1.2363585022     2.1421013614
  123      C      -5.7807820262     0.0176545163    -4.2093737055
  124      C      -1.3543555214     2.1956986677    -0.8774896931
  125      C      -4.3745756769    -2.7961542547     0.5679692698
  126      C      -7.4309712105     0.3631820710    -2.4181709350
  127      C      -6.4971327005    -1.7808197413     1.0642912494
  128      C      -5.2516201087    -2.9942565972    -0.5304521094
  129      C      -6.4968716485    -1.6623767942    -2.6297726645
  130      C      -4.6587338429    -0.7108594594    -4.4488298844
  131      C      -4.3151428255    -0.9125945155     2.0691246399
  132      C      -2.3000559308    -0.1383179781    -4.0483816863
  133      C      -7.0645161895    -0.3791093310     1.2239562171
  134      C      -7.5883577937     0.3518867741    -0.0236557691
  135      C      -2.1468502514    -1.3355755102    -3.3437893065
  136      C      -4.0404434352     3.4078383259    -2.8235691282
  137      C      -2.0800290992     2.1863609166    -3.2286340240
  138      C      -2.0108231702     2.7803853248    -1.9359327662
  139      C      -1.8579715583     2.3024243476     0.4485123871
  140      C      -7.1362825336     1.6792768713     0.0198009804
  141      C      -5.0421241398    -1.9346067143     1.4708778395
  142      C      -1.6366196390     1.0343791847     1.0821738052
  143      C      -6.7233438427    -0.4556854920    -3.2554662369
  144      C      -2.8758428787    -0.8321619236     1.9022616377
  145      C      -4.7506878659    -3.0941402673    -1.8210566734
  146      C      -5.9087496949     3.2991053817    -1.3058976003
  147      C      -0.7933765681     0.8851794336    -1.0475542427
  148      C      -6.5049823145    -2.3711329076    -0.2729816282
  149      C      -3.7136305913     3.6551881229    -0.4451048247
  150      C      -5.4224281718    -2.4257563593    -2.8884169279
  151      C      -2.9399358535    -2.6698068414     0.3388799676
  152      C      -4.0851563337     1.5072506156    -4.3949268571
  153      C      -5.4516813514     1.3793375164    -4.1764168691
  154      C      -2.4430790980    -2.8192488930    -0.9729932876
  155      C      -7.0200499915     2.4469182287    -1.1732563286
  156      C      -7.6806989427    -0.3525787313    -1.2487661576
  157      C      -5.3835456745     3.1787065647    -2.5873912061
  158      C      -6.1901871159     0.6634750739     1.8335794037
  159      C      -1.2339296325    -1.1989292480     0.1133785723
  160      C      -7.0753171460    -1.6008635731    -1.3398036997
  161      C      -3.3527002085    -2.9937678897    -2.0553340635
  162      C      -5.1135349896     3.6254572235    -0.1903309067
  163      C      -1.2691953238    -1.1377767166    -2.3140813550
  164      C      -3.0993223727     2.9549405367     0.5709206329
  165      C      -1.5475421451     0.8638912862    -3.3860338978
  166      C      -2.1593493184    -1.7365627744     1.0566328309
  167      C      -1.3823501839    -1.8860961221    -1.0926305599
  168      C      -4.8921975633     0.3321762586     2.2484471132
  169      C      -6.3316818510     1.8805735626     1.1084397559
  170      C      -3.3596111342     2.5097669404    -3.7001044466
  171      C      -0.9672968052     0.1840833647     0.1489460931
  172      C      -4.4540625152    -1.9078249753    -3.7937572156
  173      C      -6.1138927354     2.2294346135    -3.2299835600
  174      C      -3.5529787881     0.1992519686    -4.5653457516
  175      C      -5.3357334572     2.8170410483     1.0173768927
  176      C      -3.1789631198     3.5621515083    -1.7367351446
 ----------------------------------------------------------------

   10   -5804.2793067450      3.02E-06 Convergence criterion met
 Total energy in the final basis set = -5804.2793067450

                    Orbital Energies (a.u.)
 --------------------------------------------------------------

 Alpha MOs
 -- Occupied --
-19.190 -19.188 -19.141 -19.127 -10.317 -10.311 -10.246 -10.245
-10.242 -10.240 -10.237 -10.236 -10.236 -10.235 -10.234 -10.231
-10.231 -10.230 -10.229 -10.229 -10.226 -10.226 -10.225 -10.225
-10.225 -10.224 -10.224 -10.223 -10.222 -10.221 -10.221 -10.221
-10.221 -10.221 -10.221 -10.220 -10.220 -10.220 -10.220 -10.220
-10.219 -10.219 -10.219 -10.219 -10.219 -10.218 -10.218 -10.218
-10.218 -10.218 -10.218 -10.218 -10.218 -10.218 -10.218 -10.217
-10.217 -10.217 -10.217 -10.217 -10.217 -10.216 -10.216 -10.216
-10.216 -10.216 -10.216 -10.215 -10.215 -10.215 -10.215 -10.215
-10.215 -10.215 -10.215 -10.215 -10.214 -10.214 -10.214 -10.214
-10.214 -10.214 -10.214 -10.214 -10.214 -10.214 -10.213 -10.213
-10.213 -10.212 -10.212 -10.212 -10.212 -10.212 -10.212 -10.212
-10.212 -10.212 -10.212 -10.212 -10.211 -10.211 -10.211 -10.211
-10.211 -10.211 -10.211 -10.211 -10.210 -10.210 -10.210 -10.210
-10.210 -10.210 -10.210 -10.210 -10.210 -10.210 -10.209 -10.209
-10.209 -10.209 -10.209 -10.209 -10.208 -10.208 -10.208 -10.208
-10.207 -10.206 -10.206 -10.205 -10.204 -10.204 -10.204 -10.203
-10.203 -10.203 -10.203 -10.202 -10.201 -10.198 -10.198 -10.197
-10.197 -10.194 -10.193 -10.192  -1.088  -1.087  -1.016  -0.998
 -0.984  -0.983  -0.966  -0.964  -0.963  -0.962  -0.962  -0.961
 -0.937  -0.934  -0.929  -0.927  -0.926  -0.925  -0.924  -0.923
 -0.921  -0.920  -0.901  -0.896  -0.893  -0.889  -0.884  -0.882
 -0.874  -0.874  -0.856  -0.853  -0.844  -0.842  -0.839  -0.839
 -0.837  -0.836  -0.822  -0.820  -0.810  -0.805  -0.799  -0.798
 -0.796  -0.795  -0.795  -0.793  -0.793  -0.790  -0.784  -0.783
 -0.772  -0.772  -0.770  -0.769  -0.768  -0.765  -0.762  -0.762
 -0.752  -0.752  -0.742  -0.740  -0.733  -0.730  -0.718  -0.717
 -0.715  -0.714  -0.713  -0.712  -0.711  -0.710  -0.710  -0.708
 -0.708  -0.706  -0.706  -0.704  -0.701  -0.697  -0.675  -0.674
 -0.661  -0.660  -0.657  -0.655  -0.648  -0.644  -0.635  -0.632
 -0.629  -0.628  -0.624  -0.624  -0.621  -0.621  -0.618  -0.617
 -0.617  -0.615  -0.614  -0.614  -0.613  -0.611  -0.610  -0.609
 -0.607  -0.607  -0.603  -0.601  -0.566  -0.564  -0.563  -0.562
 -0.561  -0.560  -0.559  -0.558  -0.557  -0.555  -0.553  -0.551
 -0.538  -0.536  -0.535  -0.533  -0.530  -0.528  -0.528  -0.525
 -0.525  -0.523  -0.519  -0.519  -0.516  -0.515  -0.514  -0.514
 -0.506  -0.506  -0.502  -0.499  -0.492  -0.491  -0.488  -0.487
 -0.486  -0.484  -0.482  -0.480  -0.480  -0.478  -0.478  -0.476
 -0.472  -0.471  -0.470  -0.469  -0.468  -0.467  -0.466  -0.466
 -0.465  -0.464  -0.463  -0.463  -0.460  -0.460  -0.459  -0.458
 -0.457  -0.454  -0.452  -0.450  -0.449  -0.448  -0.444  -0.444
 -0.443  -0.442  -0.441  -0.439  -0.439  -0.436  -0.436  -0.434
 -0.433  -0.431  -0.430  -0.429  -0.427  -0.426  -0.426  -0.426
 -0.424  -0.424  -0.423  -0.422  -0.421  -0.420  -0.420  -0.419
 -0.418  -0.417  -0.416  -0.415  -0.414  -0.413  -0.413  -0.412
 -0.411  -0.410  -0.410  -0.407  -0.403  -0.399  -0.396  -0.394
 -0.394  -0.393  -0.392  -0.392  -0.391  -0.387  -0.386  -0.384
 -0.382  -0.379  -0.373  -0.373  -0.370  -0.370  -0.368  -0.368
 -0.365  -0.363  -0.363  -0.362  -0.360  -0.360  -0.359  -0.359
 -0.358  -0.357  -0.357  -0.354  -0.354  -0.354  -0.353  -0.353
 -0.351  -0.350  -0.348  -0.347  -0.346  -0.345  -0.344  -0.344
 -0.341  -0.341  -0.340  -0.340  -0.339  -0.337  -0.335  -0.334
 -0.334  -0.332  -0.330  -0.329  -0.329  -0.327  -0.325  -0.323
 -0.318  -0.314  -0.301  -0.290  -0.288  -0.282  -0.273  -0.272
 -0.271  -0.271  -0.268  -0.267  -0.265  -0.265  -0.263  -0.263
 -0.262  -0.261  -0.259  -0.259  -0.258  -0.258  -0.256  -0.254
 -0.251  -0.248  -0.247  -0.246  -0.222  -0.218  -0.214  -0.213
 -0.210  -0.209  -0.207  -0.206  -0.203  -0.196

          Ground-State Mulliken Net Atomic Charges

     Atom                 Charge (a.u.)
  ----------------------------------------
      1 O                    -0.473956
      2 C                    -0.086919
      3 H                     0.122480
      4 H                     0.125400
      5 H                     0.136297
      6 O                    -0.483195
      7 C                     0.595072
      8 C                    -0.252898
      9 H                     0.135701
     10 H                     0.137662
     11 C                    -0.190519
     12 H                     0.104767
     13 H                     0.117033
     14 C                    -0.174112
     15 H                     0.119605
     16 H                     0.109842
     17 C                     0.013001
     18 C                     0.091124
     19 C                    -0.082735
     20 H                     0.094020
     21 C                    -0.096701
     22 H                     0.082757
     23 C                    -0.079523
     24 H                     0.092813
     25 C                    -0.098186
     26 H                     0.095790
     27 C                    -0.117366
     28 H                     0.092002
     29 C                    -0.028042
     30 C                    -0.015075
     31 C                    -0.014094
     32 C                    -0.002277
     33 C                     0.007318
     34 C                     0.069741
     35 C                    -0.021327
     36 C                    -0.012196
     37 C                    -0.013699
     38 C                    -0.000532
     39 C                    -0.072089
     40 C                     0.021569
     41 C                    -0.032574
     42 C                     0.014249
     43 C                    -0.009320
     44 C                     0.002615
     45 C                    -0.100398
     46 C                     0.008330
     47 C                    -0.011808
     48 C                     0.003080
     49 C                    -0.036576
     50 C                    -0.001940
     51 C                    -0.006807
     52 C                    -0.005870
     53 C                     0.024073
     54 C                     0.004576
     55 C                     0.001486
     56 C                    -0.016380
     57 C                    -0.013065
     58 C                     0.015286
     59 C                     0.014766
     60 C                     0.006139
     61 C                    -0.011870
     62 C                     0.006181
     63 C                     0.007663
     64 C                     0.021043
     65 C                     0.024903
     66 C                     0.003168
     67 C                     0.001323
     68 C                     0.027284
     69 C                    -0.013343
     70 C                     0.012766
     71 C                    -0.017256
     72 C                     0.023360
     73 C                    -0.001083
     74 C                    -0.019913
     75 C                    -0.021920
     76 C                     0.004067
     77 C                     0.043875
     78 C                     0.014122
     79 C                     0.001127
     80 C                    -0.032566
     81 C                     0.014390
     82 C                    -0.020935
     83 C                    -0.002993
     84 C                    -0.007439
     85 C                    -0.024619
     86 C                    -0.007091
     87 C                     0.027004
     88 C                     0.034781
     89 O                    -0.478854
     90 C                    -0.082513
     91 H                     0.125240
     92 H                     0.129469
     93 H                     0.130278
     94 O                    -0.464475
     95 C                     0.591337
     96 C                    -0.277178
     97 H                     0.137092
     98 H                     0.139161
     99 C                    -0.173561
    100 H                     0.110838
    101 H                     0.135593
    102 C                    -0.183233
    103 H                     0.116125
    104 H                     0.111290
    105 C                    -0.009574
    106 C                     0.075978
    107 C                    -0.100599
    108 H                     0.090837
    109 C                    -0.092065
    110 H                     0.095494
    111 C                    -0.080243
    112 H                     0.090849
    113 C                    -0.093663
    114 H                     0.086282
    115 C                    -0.098560
    116 H                     0.097643
    117 C                    -0.014872
    118 C                     0.011959
    119 C                     0.000022
    120 C                     0.004536
    121 C                    -0.018534
    122 C                    -0.031160
    123 C                    -0.008233
    124 C                    -0.013318
    125 C                    -0.000031
    126 C                    -0.007958
    127 C                    -0.084625
    128 C                     0.006195
    129 C                     0.014257
    130 C                     0.015521
    131 C                    -0.005712
    132 C                    -0.002442
    133 C                    -0.077063
    134 C                     0.023216
    135 C                     0.037175
    136 C                    -0.018942
    137 C                    -0.004735
    138 C                     0.024133
    139 C                    -0.024990
    140 C                     0.025097
    141 C                     0.021402
    142 C                    -0.006908
    143 C                     0.025799
    144 C                     0.006469
    145 C                     0.000860
    146 C                     0.005460
    147 C                    -0.011458
    148 C                     0.018653
    149 C                     0.014720
    150 C                    -0.018345
    151 C                    -0.000782
    152 C                     0.016177
    153 C                    -0.020606
    154 C                    -0.003289
    155 C                    -0.025706
    156 C                    -0.042890
    157 C                     0.055269
    158 C                     0.012070
    159 C                     0.005225
    160 C                     0.021778
    161 C                    -0.002124
    162 C                    -0.045708
    163 C                    -0.004496
    164 C                     0.042959
    165 C                    -0.014727
    166 C                    -0.027769
    167 C                    -0.018981
    168 C                     0.047029
    169 C                     0.032222
    170 C                    -0.010171
    171 C                     0.029101
    172 C                    -0.013714
    173 C                    -0.002601
    174 C                    -0.018752
    175 C                    -0.031538
    176 C                    -0.007555
  ----------------------------------------
  Sum of atomic charges =     0.000000

                    Cartesian Multipole Moments
 -----------------------------------------------------------------
    Charge (ESU x 10^10)
                 0.0000
    Dipole Moment (Debye)
         X      -0.1991      Y      -1.7826      Z       3.3519
       Tot       3.8017
    Quadrupole Moments (Debye-Ang)
        XX    -774.9239     XY     -16.8699     YY    -812.5562
        XZ     -38.1342     YZ      -2.3354     ZZ    -791.9963

 Total job time:  915.43s(wall), 7820.54s(cpu)
        *  Thank you very much for using Q-Chem.  Have a nice day.  *
