 Q-Chem 4.4, Q-Chem, Inc., Pleasanton, CA (2016)
 Q-Chem 4.4.2 for Intel X86 Linux

User input:
--------------------------------------------------------------
$comment
SP
$end

$rem
MEM_STATIC 5000
MEM_TOTAL 20000
JOBTYPE SP
EXCHANGE B3LYP
BASIS 6-31g(d,p)
$end

$molecule
0 1
O          18.366000    -12.780000     -9.016000
C          19.522000    -12.842000     -9.882000
H          20.341000    -13.431000     -9.452000
H          19.926000    -11.825000     -9.971000
H          19.321000    -13.358000    -10.829000
O          17.905000    -10.544000     -9.330000
C          17.604000    -11.654000     -8.851000
C          16.340000    -11.895000     -7.948000
H          15.518000    -11.245000     -8.272000
H          16.768000    -11.570000     -6.992000
C          15.774000    -13.296000     -7.719000
H          16.567000    -13.967000     -7.367000
H          14.926000    -13.312000     -7.024000
C          15.271000    -13.984000     -8.972000
H          14.342000    -13.468000     -9.244000
H          15.926000    -13.771000     -9.825000
C          15.022000    -15.521000     -8.674000
C          13.722000    -15.807000     -7.949000
C          12.522000    -15.993000     -8.694000
H          12.587000    -15.954000     -9.777000
C          11.329000    -15.974000     -7.960000
H          10.350000    -15.972000     -8.430000
C          11.317000    -16.027000     -6.531000
H          10.349000    -15.951000     -6.046000
C          12.501000    -15.918000     -5.809000
H          12.545000    -15.901000     -4.724000
C          13.692000    -15.859000     -6.563000
H          14.569000    -15.699000     -5.944000
C          17.509000    -20.201000     -7.464000
C          15.657000    -20.955000     -8.771000
C          18.108000    -22.158000    -12.528000
C          20.287000    -16.630000     -9.885000
C          17.403000    -19.162000    -14.242000
C          16.133000    -20.049000     -7.782000
C          20.061000    -17.185000    -12.755000
C          18.514000    -22.402000    -10.124000
C          14.597000    -18.076000    -11.410000
C          19.373000    -15.954000    -10.736000
C          15.332000    -16.500000     -9.853000
C          15.347000    -17.064000    -12.063000
C          17.938000    -16.070000    -12.534000
C          19.495000    -18.106000    -13.656000
C          14.725000    -18.873000     -9.097000
C          19.290000    -20.561000    -13.633000
C          16.269000    -16.402000     -8.684000
C          17.699000    -15.951000     -8.914000
C          17.984000    -20.433000    -14.016000
C          21.070000    -20.008000    -10.047000
C          20.246000    -21.456000    -11.586000
C          19.777000    -21.837000    -10.315000
C          17.788000    -22.038000     -9.004000
C          18.570000    -16.827000     -8.197000
C          14.590000    -17.824000    -10.047000
C          16.460000    -21.926000     -9.400000
C          19.289000    -16.128000    -12.140000
C          14.765000    -20.202000     -9.595000
C          16.064000    -17.512000    -13.204000
C          20.422000    -18.391000     -8.483000
C          17.631000    -22.507000    -11.186000
C          15.869000    -16.169000    -11.129000
C          19.593000    -20.667000     -8.222000
C          17.348000    -17.000000    -13.448000
C          14.636000    -19.392000    -11.932000
C          20.953000    -19.230000    -12.340000
C          20.901000    -17.906000    -11.899000
C          15.397000    -19.776000    -13.053000
C          19.892000    -17.101000     -8.633000
C          18.075000    -15.681000    -10.221000
C          21.178000    -18.714000     -9.608000
C          16.437000    -17.602000     -7.841000
C          15.484000    -21.445000    -11.595000
C          17.185000    -15.723000    -11.360000
C          16.128000    -18.808000    -13.720000
C          19.583000    -19.344000     -7.773000
C          17.212000    -21.454000    -13.358000
C          18.345000    -21.186000     -8.012000
C          19.350000    -21.502000    -12.669000
C          14.691000    -20.473000    -11.002000
C          15.892000    -21.077000    -12.891000
C          15.612000    -18.764000     -8.040000
C          17.792000    -17.734000     -7.495000
C          20.972000    -20.282000    -11.399000
C          16.326000    -22.213000    -10.789000
C          18.150000    -18.005000    -14.041000
C          21.073000    -17.643000    -10.533000
C          20.105000    -19.376000    -13.449000
C          18.339000    -19.007000     -7.328000
C          20.291000    -20.989000     -9.390000
O          13.630000     -9.461000     -5.264000
C          12.239000     -9.144000     -5.324000
H          11.721000     -9.830000     -4.643000
H          11.826000     -9.300000     -6.329000
H          12.050000     -8.097000     -5.057000
O          14.234000     -7.441000     -5.984000
C          14.579000     -8.558000     -5.675000
C          16.018000     -8.993000     -5.533000
H          16.152000     -9.973000     -6.008000
H          16.118000     -8.942000     -4.442000
C          17.092000     -8.069000     -6.283000
H          16.896000     -7.977000     -7.359000
H          17.246000     -7.048000     -5.915000
C          18.508000     -8.651000     -6.286000
H          18.490000     -9.537000     -6.932000
H          19.042000     -7.864000     -6.831000
C          19.228000     -8.868000     -4.940000
C          19.304000     -7.562000     -4.205000
C          18.360000     -7.315000     -3.258000
H          17.604000     -8.073000     -3.075000
C          18.305000     -6.132000     -2.541000
H          17.522000     -6.023000     -1.797000
C          19.282000     -5.186000     -2.770000
H          19.174000     -4.198000     -2.333000
C          20.241000     -5.350000     -3.687000
H          20.764000     -4.479000     -4.069000
C          20.276000     -6.559000     -4.350000
H          20.952000     -6.640000     -5.197000
C          23.400000    -10.933000     -2.194000
C          21.613000    -11.165000     -0.631000
C          21.278000    -15.700000     -0.742000
C          22.237000    -13.242000     -6.532000
C          18.531000    -15.620000     -3.008000
C          22.232000    -10.457000     -1.640000
C          20.568000    -15.400000     -5.960000
C          23.290000    -14.245000     -0.694000
C          18.130000    -11.617000     -2.472000
C          20.815000    -13.109000     -6.683000
C          19.011000    -10.216000     -4.244000
C          17.851000    -12.272000     -3.681000
C          18.831000    -13.640000     -5.825000
C          19.945000    -16.011000     -4.893000
C          20.017000    -10.200000     -1.951000
C          20.785000    -16.717000     -2.746000
C          20.346000     -9.832000     -4.814000
C          20.925000    -10.786000     -5.885000
C          19.550000    -16.190000     -2.169000
C          24.128000    -14.877000     -4.087000
C          23.097000    -15.969000     -2.436000
C          23.793000    -14.936000     -1.824000
C          23.380000    -12.848000     -0.578000
C          22.320000    -10.994000     -5.577000
C          18.889000    -10.444000     -2.776000
C          22.179000    -12.329000     -0.121000
C          19.982000    -14.181000     -6.452000
C          20.264000    -11.016000     -0.840000
C          17.671000    -13.647000     -3.740000
C          24.007000    -12.696000     -5.175000
C          22.004000    -14.604000     -0.179000
C          18.327000    -11.497000     -4.748000
C          24.458000    -12.853000     -2.762000
C          18.194000    -14.330000     -4.808000
C          18.310000    -12.370000     -1.286000
C          22.215000    -16.316000     -4.672000
C          22.007000    -15.510000     -5.769000
C          18.222000    -13.801000     -1.341000
C          22.982000    -12.185000     -5.984000
C          20.219000    -11.912000     -6.295000
C          23.907000    -14.088000     -5.219000
C          21.482000     -9.737000     -3.846000
C          20.020000    -13.323000     -0.069000
C          18.948000    -12.235000     -5.767000
C          17.877000    -14.424000     -2.573000
C          24.287000    -12.121000     -3.913000
C          19.888000    -15.564000     -0.944000
C          23.944000    -12.108000     -1.676000
C          21.811000    -16.333000     -1.887000
C          19.468000    -12.076000     -0.510000
C          19.220000    -14.382000     -0.541000
C          21.278000     -9.878000     -2.463000
C          22.628000    -10.405000     -4.380000
C          23.318000    -15.999000     -3.821000
C          21.405000    -13.369000      0.144000
C          18.750000    -15.557000     -4.350000
C          22.781000    -14.406000     -6.019000
C          20.931000    -16.578000     -4.102000
C          23.613000    -10.946000     -3.564000
C          24.452000    -14.233000     -2.861000
$end

--------------------------------------------------------------

             Standard Nuclear Orientation (Angstroms)
    I     Atom           X                Y                Z
 ----------------------------------------------------------------
    1      O       0.0653963441     2.0476230899    -2.3024481784
    2      C      -0.2741684487     1.3243636336    -3.5073247324
    3      H      -0.2094139335     0.2370915472    -3.3799345330
    4      H       0.4851200126     1.5627794020    -4.2636744887
    5      H      -1.3161354194     1.4724353833    -3.8169141201
    6      O       1.3313621743     3.6874730004    -3.3119212031
    7      C       0.7894769931     3.2101287188    -2.2967143832
    8      C       0.9127511196     3.8495516857    -0.8659356584
    9      H       0.9607836777     4.9424369027    -0.9462772777
   10      H       1.8799568785     3.4156676832    -0.5848614824
   11      C      -0.0649808453     3.4995138173     0.2552742663
   12      H      -0.1163252772     2.4111115126     0.3807261393
   13      H       0.1801226804     3.9811368968     1.2093960987
   14      C      -1.5044662876     3.8829527094    -0.0226075029
   15      H      -1.5427324078     4.9765405271     0.0540892313
   16      H      -1.7611348474     3.7039054020    -1.0733531012
   17      C      -2.4565177288     3.1874993113     1.0371644651
   18      C      -2.4918092156     3.8808441248     2.3845502601
   19      C      -3.4065569780     4.9501862201     2.6067326498
   20      H      -4.0811528925     5.2158057875     1.7986475073
   21      C      -3.1938882873     5.7166073140     3.7598747637
   22      H      -3.7398344495     6.6325858345     3.9654742236
   23      C      -2.2870943914     5.3060905671     4.7866146679
   24      H      -2.1448792134     5.9903714811     5.6170118463
   25      C      -1.4460338178     4.2151455878     4.5930244731
   26      H      -0.7041578601     3.8911128478     5.3169532311
   27      C      -1.6171459134     3.4971059847     3.3906860102
   28      H      -0.8821535552     2.7078839268     3.2690111292
   29      C      -4.3731498733    -1.6184046777     2.7049405506
   30      C      -6.2201508274    -0.1720833858     3.1559518542
   31      C      -8.9730615137    -1.7457178103    -0.2373970007
   32      C      -2.7772914333    -1.2940915596    -2.1611279693
   33      C      -8.1551200480     0.8764532641    -2.4433044365
   34      C      -4.8076243501    -0.3460135027     3.1630416603
   35      C      -5.1276485914    -0.6189515841    -3.7785358469
   36      C      -7.4546798066    -2.8604407439     1.3296057985
   37      C      -6.1838265543     2.9269617943     0.5538062936
   38      C      -3.0823251354     0.0310164089    -2.5705376812
   39      C      -3.8574206597     2.7439059361     0.5030503428
   40      C      -5.7186073341     3.0397087788    -0.7818254650
   41      C      -4.7020662042     1.6150013879    -2.9863687242
   42      C      -6.5141534898    -0.4048537164    -3.6682440990
   43      C      -5.1847625030     1.7676688678     2.4667811842
   44      C      -8.2886899134    -1.5461051918    -2.3961809906
   45      C      -2.7873447628     1.7227843865     0.7606980789
   46      C      -2.2756420292     0.8765930989    -0.3896590905
   47      C      -8.7664050411    -0.3247803323    -2.0103535106
   48      C      -5.0908186755    -3.6663428014    -1.1266074305
   49      C      -7.3359878884    -3.3490201195    -1.0744296468
   50      C      -6.8765325120    -3.5229181626     0.2443664814
   51      C      -6.6290753242    -2.3922275545     2.3361472274
   52      C      -2.2115762324    -0.4830932080     0.0430702943
   53      C      -5.1033571137     2.6919876402     1.3896860308
   54      C      -7.1320497650    -1.1581430590     2.7323746492
   55      C      -4.1565957449     0.3915849537    -3.4217021671
   56      C      -6.4474006075     1.1687130186     2.7174640672
   57      C      -6.6198496239     2.5400188608    -1.7589366771
   58      C      -3.0638273484    -2.7193190242    -0.4373026175
   59      C      -8.4457829983    -1.9157358920     1.1203088655
   60      C      -4.3392575373     2.8381174959    -0.8330123074
   61      C      -4.7040026075    -3.3301644739     1.2574631351
   62      C      -6.1093496944     1.8471698757    -2.8678488044
   63      C      -7.4533986827     2.3422753570     0.7822562461
   64      C      -6.0874450817    -2.5314259421    -3.0227934785
   65      C      -4.8690262339    -1.9098430213    -3.3043093465
   66      C      -8.2854141133     1.8356512076    -0.2347493066
   67      C      -2.3764095860    -1.5698250242    -0.8539803873
   68      C      -2.8600522571     1.0762748585    -1.6310763775
   69      C      -3.8564543718    -3.1885420854    -1.4827987296
   70      C      -3.0387770889     0.7214021378     1.8156333269
   71      C      -8.4811694806     0.4822923266     1.5113874507
   72      C      -3.8592212588     2.0810751915    -1.9195596468
   73      C      -7.8652443132     1.9442023675    -1.5492636598
   74      C      -3.4708731733    -2.7450243310     0.9590794698
   75      C      -9.2399892557    -0.4260012583    -0.6550449421
   76      C      -5.2333317036    -2.6605932107     2.3263176770
   77      C      -8.3023164425    -2.3568857640    -1.3187645524
   78      C      -7.5900166621     1.4707310036     1.9039656416
   79      C      -8.9811058319     0.7051405387     0.2145041410
   80      C      -4.1931745549     0.8232420083     2.6685489917
   81      C      -2.5766217188    -0.5312259199     1.3791698545
   82      C      -6.2048838667    -3.3617363462    -1.8873029393
   83      C      -8.2885288033    -0.8213642730     1.9715972289
   84      C      -7.0217291426     0.8340377673    -3.2499549067
   85      C      -3.7356546156    -2.2835220993    -2.5690939214
   86      C      -7.1303391284    -1.6236263953    -3.2648120527
   87      C      -3.2366240612    -1.6900336685     1.7904951634
   88      C      -5.5383949479    -3.7404962001     0.2131790278
   89      O       3.7646890627     6.5771427020     1.3474348973
   90      C       3.6145971211     7.8781252255     1.9165455038
   91      H       3.4549287036     7.7440049788     2.9932064327
   92      H       2.7383311080     8.4028694864     1.5143871583
   93      H       4.4883041843     8.5108112845     1.7176402035
   94      O       4.8649223823     7.3590549851    -0.4250536990
   95      C       4.3609857244     6.4060302006     0.1226566303
   96      C       4.4933427358     4.9815512798    -0.3605114831
   97      H       3.5160064502     4.4855577181    -0.3077367595
   98      H       5.2767879582     4.6289118149     0.3212076609
   99      C       4.9099185605     4.8142189718    -1.8994125459
  100      H       4.2146691372     5.3155081728    -2.5849731751
  101      H       5.9147623902     5.1300628079    -2.2029130387
  102      C       4.8364062277     3.3701783558    -2.4025344360
  103      H       3.7757440267     3.0928904772    -2.4297948047
  104      H       5.1616815473     3.5076000604    -3.4402536859
  105      C       5.7482331325     2.3079616135    -1.7564134813
  106      C       7.1796095566     2.7365866543    -1.8945406216
  107      C       7.7550824207     3.3653505326    -0.8350874758
  108      H       7.1569301523     3.5208324707     0.0580128717
  109      C       9.0557757974     3.8389754318    -0.8569779874
  110      H       9.4376322386     4.3211373982     0.0375674259
  111      C       9.8099448075     3.6182074197    -1.9902813841
  112      H      10.7740255585     4.1079890112    -2.0874374352
  113      C       9.3168119674     3.0131045628    -3.0757013648
  114      H       9.8070368602     3.1590967273    -4.0330204560
  115      C       8.0286648278     2.5269565320    -2.9931662896
  116      H       7.5726085702     2.1737791321    -3.9141572853
  117      C       7.1094815321    -2.8879339894    -1.1564162491
  118      C       7.5506635323    -2.0049670095     1.0151936963
  119      C       4.1814293833    -4.1061021541     3.2342618233
  120      C       2.3168713470    -1.9862108174    -2.4679332847
  121      C       2.0743898079    -1.2366578979     3.1166230203
  122      C       7.5328308943    -1.8502878291    -0.3553034209
  123      C       0.7641758001    -1.9455610530    -0.1533721739
  124      C       5.7293564972    -4.9643598726     1.4921974334
  125      C       5.1709227803     1.0571315102     1.8429983887
  126      C       1.9685485678    -0.7327696283    -1.8595498307
  127      C       5.2017025315     1.5776572941    -0.5249229603
  128      C       3.8379530029     1.2661342633     1.4582173838
  129      C       1.6829804973     0.3435224994     0.0677350815
  130      C       0.8882575566    -2.0615977435     1.2145014329
  131      C       6.9753451268     0.1493273421     0.5163294068
  132      C       2.0132933541    -3.6987798463     2.5810936239
  133      C       5.4176453888     0.8655590764    -1.8290954223
  134      C       4.1708502020     0.1896074367    -2.4463386020
  135      C       2.4719058694    -2.5866596108     3.4110009336
  136      C       3.2340090897    -5.0406740741    -1.0339724854
  137      C       3.3059475554    -5.2440119415     1.1874470088
  138      C       4.6115919636    -5.4238934241     0.7527237270
  139      C       6.8182935718    -4.3289606145     0.8728035116
  140      C       4.5635727007    -1.1249362181    -2.8956681230
  141      C       5.9837918671     1.1521158536     0.6705446275
  142      C       7.1998784803    -3.2154447125     1.6042994403
  143      C       1.1610660891    -0.6948524652    -0.7446649329
  144      C       7.1928197748    -0.7857478685     1.5359004578
  145      C       2.7807183231     0.6989940920     2.1561520927
  146      C       4.0298092977    -3.4905220124    -2.7424444970
  147      C       5.5064807735    -4.2632752018     2.7196780631
  148      C       3.7947269281     1.5869962323     0.0940806226
  149      C       5.6266722565    -4.5977890497    -1.2342643357
  150      C       1.7145411642     0.2106270057     1.4452330713
  151      C       5.4666374726     0.1886143931     2.9219959967
  152      C       1.3653034825    -4.1060813878     0.2725461194
  153      C       1.1594138013    -3.2114508274    -0.7538819587
  154      C       4.3945145211    -0.4831253734     3.5986407064
  155      C       3.6089080356    -2.1751657198    -2.9851520392
  156      C       2.9307693189     0.2728631940    -1.8220951541
  157      C       2.9897355997    -4.1350021127    -2.0697691644
  158      C       6.4002881496    -0.2617599699    -1.8186086427
  159      C       6.0096451480    -2.0225875813     3.2813377461
  160      C       2.7456452817     0.9773946638    -0.6105182894
  161      C       3.0530867031    -0.1978870376     3.2189190967
  162      C       5.3414388458    -3.7572168052    -2.2840005898
  163      C       3.8091342101    -2.8627695199     3.7882656722
  164      C       6.7509022842    -4.0887674590    -0.5446116225
  165      C       3.1020651793    -4.5549030287     2.4409436713
  166      C       6.4683817219    -0.7983470435     2.6939793707
  167      C       4.7533218394    -1.8113895885     3.8824302117
  168      C       7.1679576596    -0.5520954369    -0.6781811614
  169      C       5.8487841934    -1.3888642174    -2.5043020155
  170      C       2.4198212933    -5.0572919646     0.1160545047
  171      C       6.4518306986    -3.2172841725     2.6957764820
  172      C       1.2822154926    -1.0109026379     2.0329309899
  173      C       1.9627758407    -3.1798496742    -1.8647387456
  174      C       1.2481334422    -3.3703479821     1.4920409072
  175      C       6.2434232254    -2.6899085364    -2.2209193865
  176      C       4.5812887634    -5.2962908762    -0.6567649412
 ----------------------------------------------------------------

    9   -5804.2703758327      9.84E-06 Convergence criterion met
 Total energy in the final basis set = -5804.2703758327

                    Orbital Energies (a.u.)
 --------------------------------------------------------------

 Alpha MOs
 -- Occupied --
-19.201 -19.184 -19.143 -19.129 -10.334 -10.313 -10.245 -10.244
-10.244 -10.242 -10.242 -10.242 -10.240 -10.236 -10.232 -10.231
-10.230 -10.230 -10.230 -10.228 -10.227 -10.226 -10.226 -10.226
-10.225 -10.225 -10.225 -10.224 -10.223 -10.223 -10.223 -10.223
-10.222 -10.222 -10.222 -10.222 -10.222 -10.222 -10.222 -10.222
-10.222 -10.221 -10.221 -10.221 -10.221 -10.221 -10.220 -10.220
-10.220 -10.220 -10.220 -10.220 -10.220 -10.220 -10.220 -10.220
-10.219 -10.219 -10.219 -10.219 -10.219 -10.218 -10.218 -10.218
-10.218 -10.218 -10.218 -10.218 -10.218 -10.218 -10.218 -10.218
-10.218 -10.218 -10.218 -10.217 -10.217 -10.217 -10.217 -10.217
-10.216 -10.216 -10.216 -10.216 -10.216 -10.216 -10.216 -10.215
-10.215 -10.215 -10.215 -10.215 -10.215 -10.215 -10.215 -10.215
-10.214 -10.214 -10.214 -10.214 -10.214 -10.214 -10.214 -10.214
-10.214 -10.213 -10.213 -10.213 -10.213 -10.213 -10.213 -10.213
-10.213 -10.213 -10.212 -10.212 -10.212 -10.212 -10.211 -10.211
-10.211 -10.211 -10.211 -10.210 -10.210 -10.210 -10.208 -10.208
-10.208 -10.207 -10.207 -10.207 -10.206 -10.206 -10.206 -10.205
-10.202 -10.202 -10.201 -10.199 -10.198 -10.196 -10.195 -10.193
-10.193 -10.191 -10.190 -10.189  -1.092  -1.091  -1.006  -1.005
 -0.986  -0.984  -0.970  -0.967  -0.965  -0.964  -0.962  -0.960
 -0.936  -0.934  -0.931  -0.930  -0.927  -0.925  -0.925  -0.924
 -0.922  -0.921  -0.902  -0.896  -0.893  -0.891  -0.890  -0.884
 -0.881  -0.874  -0.865  -0.855  -0.846  -0.843  -0.841  -0.839
 -0.838  -0.837  -0.822  -0.821  -0.808  -0.802  -0.800  -0.800
 -0.800  -0.797  -0.796  -0.795  -0.794  -0.793  -0.785  -0.783
 -0.774  -0.772  -0.771  -0.771  -0.770  -0.770  -0.767  -0.764
 -0.756  -0.753  -0.747  -0.743  -0.736  -0.734  -0.719  -0.717
 -0.717  -0.716  -0.715  -0.715  -0.714  -0.713  -0.711  -0.711
 -0.709  -0.709  -0.708  -0.707  -0.706  -0.702  -0.678  -0.674
 -0.663  -0.660  -0.659  -0.657  -0.650  -0.649  -0.634  -0.633
 -0.630  -0.630  -0.626  -0.625  -0.623  -0.622  -0.620  -0.618
 -0.617  -0.617  -0.615  -0.615  -0.614  -0.612  -0.611  -0.610
 -0.607  -0.606  -0.603  -0.603  -0.569  -0.569  -0.567  -0.564
 -0.562  -0.562  -0.560  -0.560  -0.558  -0.558  -0.555  -0.552
 -0.542  -0.538  -0.535  -0.534  -0.530  -0.530  -0.528  -0.527
 -0.525  -0.525  -0.522  -0.520  -0.518  -0.518  -0.516  -0.515
 -0.510  -0.507  -0.505  -0.501  -0.495  -0.492  -0.489  -0.489
 -0.487  -0.486  -0.484  -0.483  -0.482  -0.478  -0.476  -0.476
 -0.475  -0.473  -0.471  -0.471  -0.471  -0.469  -0.468  -0.468
 -0.467  -0.466  -0.465  -0.464  -0.463  -0.462  -0.461  -0.460
 -0.459  -0.457  -0.455  -0.454  -0.452  -0.448  -0.447  -0.446
 -0.445  -0.444  -0.444  -0.443  -0.441  -0.439  -0.438  -0.434
 -0.434  -0.433  -0.433  -0.431  -0.429  -0.428  -0.427  -0.426
 -0.425  -0.425  -0.424  -0.423  -0.422  -0.422  -0.421  -0.420
 -0.419  -0.418  -0.417  -0.417  -0.417  -0.416  -0.416  -0.415
 -0.414  -0.413  -0.410  -0.410  -0.406  -0.403  -0.398  -0.397
 -0.397  -0.395  -0.394  -0.392  -0.391  -0.387  -0.387  -0.381
 -0.379  -0.377  -0.376  -0.375  -0.373  -0.371  -0.370  -0.368
 -0.366  -0.365  -0.365  -0.362  -0.362  -0.361  -0.360  -0.359
 -0.359  -0.358  -0.357  -0.355  -0.353  -0.353  -0.352  -0.351
 -0.350  -0.350  -0.350  -0.349  -0.348  -0.347  -0.346  -0.345
 -0.343  -0.342  -0.342  -0.340  -0.339  -0.339  -0.337  -0.334
 -0.334  -0.333  -0.332  -0.332  -0.330  -0.329  -0.328  -0.327
 -0.311  -0.306  -0.302  -0.293  -0.288  -0.287  -0.277  -0.273
 -0.272  -0.272  -0.271  -0.270  -0.267  -0.267  -0.265  -0.264
 -0.264  -0.263  -0.262  -0.262  -0.260  -0.259  -0.259  -0.257
 -0.253  -0.251  -0.251  -0.246  -0.223  -0.221  -0.216  -0.215
 -0.214  -0.212  -0.209  -0.205  -0.203  -0.198

          Ground-State Mulliken Net Atomic Charges

     Atom                 Charge (a.u.)
  ----------------------------------------
      1 O                    -0.465497
      2 C                    -0.093358
      3 H                     0.127517
      4 H                     0.137008
      5 H                     0.128354
      6 O                    -0.488420
      7 C                     0.604117
      8 C                    -0.268342
      9 H                     0.132375
     10 H                     0.142308
     11 C                    -0.184839
     12 H                     0.119401
     13 H                     0.113688
     14 C                    -0.182717
     15 H                     0.101677
     16 H                     0.111461
     17 C                     0.008353
     18 C                     0.078790
     19 C                    -0.087899
     20 H                     0.100298
     21 C                    -0.103616
     22 H                     0.091591
     23 C                    -0.083711
     24 H                     0.088623
     25 C                    -0.085044
     26 H                     0.097891
     27 C                    -0.110136
     28 H                     0.091151
     29 C                    -0.012180
     30 C                    -0.008187
     31 C                    -0.021112
     32 C                    -0.046556
     33 C                     0.000333
     34 C                    -0.028603
     35 C                    -0.017668
     36 C                     0.004299
     37 C                    -0.003129
     38 C                     0.003017
     39 C                    -0.120262
     40 C                    -0.024438
     41 C                    -0.007174
     42 C                     0.015711
     43 C                     0.002971
     44 C                     0.012944
     45 C                    -0.084756
     46 C                     0.028533
     47 C                     0.014859
     48 C                     0.009649
     49 C                    -0.020805
     50 C                     0.004907
     51 C                     0.000336
     52 C                     0.010549
     53 C                     0.036451
     54 C                     0.002140
     55 C                    -0.022510
     56 C                    -0.014396
     57 C                     0.027646
     58 C                    -0.008838
     59 C                    -0.014422
     60 C                     0.076598
     61 C                    -0.015555
     62 C                    -0.009505
     63 C                    -0.004910
     64 C                    -0.002810
     65 C                     0.027675
     66 C                    -0.002521
     67 C                     0.021725
     68 C                     0.020069
     69 C                    -0.006405
     70 C                     0.043456
     71 C                     0.005522
     72 C                    -0.024663
     73 C                    -0.013798
     74 C                     0.011462
     75 C                    -0.021610
     76 C                     0.003145
     77 C                     0.028803
     78 C                     0.001086
     79 C                     0.004233
     80 C                     0.022873
     81 C                     0.002228
     82 C                     0.001318
     83 C                     0.006727
     84 C                    -0.004873
     85 C                    -0.006129
     86 C                    -0.030594
     87 C                    -0.005821
     88 C                     0.029806
     89 O                    -0.478336
     90 C                    -0.081035
     91 H                     0.119579
     92 H                     0.118078
     93 H                     0.135218
     94 O                    -0.461260
     95 C                     0.578450
     96 C                    -0.257686
     97 H                     0.129808
     98 H                     0.141063
     99 C                    -0.179896
    100 H                     0.129409
    101 H                     0.123073
    102 C                    -0.210776
    103 H                     0.113212
    104 H                     0.111459
    105 C                     0.028289
    106 C                     0.112802
    107 C                    -0.113708
    108 H                     0.079722
    109 C                    -0.072544
    110 H                     0.091683
    111 C                    -0.090970
    112 H                     0.083127
    113 C                    -0.067842
    114 H                     0.100083
    115 C                    -0.141053
    116 H                     0.081189
    117 C                    -0.002764
    118 C                     0.020677
    119 C                     0.003454
    120 C                    -0.008999
    121 C                    -0.005441
    122 C                    -0.009000
    123 C                    -0.035177
    124 C                     0.013817
    125 C                     0.017391
    126 C                    -0.012787
    127 C                    -0.064678
    128 C                     0.031858
    129 C                     0.019600
    130 C                     0.058401
    131 C                     0.008130
    132 C                    -0.028839
    133 C                    -0.096352
    134 C                     0.002522
    135 C                    -0.018531
    136 C                     0.010670
    137 C                     0.013110
    138 C                     0.001333
    139 C                    -0.040287
    140 C                    -0.005329
    141 C                    -0.000427
    142 C                     0.041233
    143 C                    -0.003126
    144 C                     0.010341
    145 C                    -0.002172
    146 C                    -0.012526
    147 C                    -0.030262
    148 C                    -0.001828
    149 C                     0.029762
    150 C                    -0.017576
    151 C                    -0.039877
    152 C                    -0.017708
    153 C                    -0.001776
    154 C                    -0.003340
    155 C                    -0.002879
    156 C                     0.039270
    157 C                    -0.013559
    158 C                     0.041621
    159 C                     0.004279
    160 C                    -0.030904
    161 C                    -0.013332
    162 C                     0.002593
    163 C                     0.002413
    164 C                    -0.010716
    165 C                     0.009018
    166 C                    -0.018248
    167 C                     0.008633
    168 C                    -0.001288
    169 C                     0.023587
    170 C                    -0.006952
    171 C                     0.005781
    172 C                     0.011398
    173 C                     0.026872
    174 C                     0.015024
    175 C                    -0.010862
    176 C                    -0.024254
  ----------------------------------------
  Sum of atomic charges =     0.000000

                    Cartesian Multipole Moments
 -----------------------------------------------------------------
    Charge (ESU x 10^10)
                 0.0000
    Dipole Moment (Debye)
         X       0.8218      Y       1.5473      Z       1.3894
       Tot       2.2361
    Quadrupole Moments (Debye-Ang)
        XX    -808.6907     XY      -3.2533     YY    -810.5781
        XZ      -0.5094     YZ      23.6484     ZZ    -803.8034

 Total job time:  882.96s(wall), 7600.74s(cpu)
        *  Thank you very much for using Q-Chem.  Have a nice day.  *
