 Q-Chem 4.4, Q-Chem, Inc., Pleasanton, CA (2016)
 Q-Chem 4.4.2 for Intel X86 Linux

User input:
--------------------------------------------------------------
$comment
SP
$end

$rem
MEM_STATIC 5000
MEM_TOTAL 20000
JOBTYPE SP
EXCHANGE B3LYP
BASIS 6-31g(d,p)
$end

$molecule
0 1
O          29.569000     -6.064000      0.106000
C          30.092000     -6.790000      1.203000
H          29.920000     -7.866000      1.078000
H          29.562000     -6.448000      2.101000
H          31.124000     -6.504000      1.443000
O          29.800000     -4.043000      1.146000
C          29.303000     -4.730000      0.292000
C          28.415000     -4.171000     -0.765000
H          28.135000     -3.157000     -0.450000
H          27.466000     -4.718000     -0.700000
C          28.915000     -4.447000     -2.201000
H          29.845000     -3.875000     -2.307000
H          29.269000     -5.485000     -2.184000
C          27.926000     -4.275000     -3.376000
H          27.041000     -4.922000     -3.329000
H          27.476000     -3.281000     -3.260000
C          28.490000     -4.475000     -4.781000
C          29.754000     -3.663000     -4.859000
C          31.095000     -4.182000     -4.799000
H          31.335000     -5.218000     -4.580000
C          32.199000     -3.338000     -4.864000
H          33.216000     -3.691000     -4.724000
C          31.973000     -1.960000     -5.136000
H          32.793000     -1.256000     -5.037000
C          30.699000     -1.510000     -5.376000
H          30.585000     -0.444000     -5.549000
C          29.579000     -2.321000     -5.183000
H          28.556000     -1.957000     -5.210000
C          27.631000     -4.657000    -10.128000
C          29.609000     -6.030000     -9.927000
C          27.503000     -9.917000    -10.924000
C          23.868000     -6.037000     -7.232000
C          27.014000    -10.851000     -7.509000
C          28.833000     -4.931000     -9.493000
C          24.048000     -8.848000     -7.017000
C          27.329000     -7.737000    -11.986000
C          29.453000     -7.828000     -6.314000
C          24.318000     -6.607000     -6.050000
C          28.518000     -5.846000     -5.433000
C          28.410000     -8.239000     -5.457000
C          25.656000     -8.348000     -5.339000
C          24.766000     -9.966000     -7.390000
C          29.719000     -5.840000     -7.655000
C          25.778000    -10.570000     -9.608000
C          27.621000     -4.770000     -5.955000
C          26.124000     -4.950000     -6.031000
C          26.908000    -10.854000     -8.911000
C          24.114000     -7.082000    -10.574000
C          25.313000     -8.860000    -11.265000
C          25.903000     -7.730000    -11.839000
C          27.959000     -6.486000    -11.658000
C          25.655000     -4.467000     -7.207000
C          29.485000     -6.421000     -6.379000
C          29.140000     -6.847000    -10.922000
C          24.505000     -7.985000     -5.979000
C          30.083000     -6.647000     -8.732000
C          27.750000     -9.453000     -5.773000
C          24.304000     -5.039000     -9.191000
C          28.115000     -8.783000    -11.511000
C          27.759000     -7.092000     -5.025000
C          25.787000     -5.461000    -11.110000
C          26.339000     -9.562000     -5.686000
C          29.834000     -8.609000     -7.419000
C          23.855000     -9.063000     -9.229000
C          23.499000     -8.251000     -8.116000
C          29.216000     -9.811000     -7.733000
C          24.481000     -4.893000     -7.808000
C          25.493000     -6.078000     -5.456000
C          23.775000     -6.277000     -9.459000
C          27.923000     -4.293000     -7.370000
C          29.767000     -8.771000     -9.693000
C          26.309000     -7.137000     -4.936000
C          28.105000    -10.239000     -6.906000
C          25.391000     -4.705000    -10.018000
C          27.977000    -10.427000     -9.745000
C          27.180000     -5.461000    -11.207000
C          26.086000     -9.993000    -10.881000
C          30.221000     -7.981000     -8.639000
C          29.174000     -9.913000     -9.114000
C          28.921000     -4.783000     -8.111000
C          26.688000     -3.965000     -8.022000
C          24.189000     -8.446000    -10.504000
C          29.249000     -8.213000    -10.861000
C          25.932000    -10.366000     -6.763000
C          23.469000     -6.850000     -8.269000
C          24.681000    -10.111000     -8.781000
C          26.565000     -4.179000     -9.431000
C          25.100000     -6.598000    -11.437000
O          13.630000     -9.461000     -5.264000
C          12.239000     -9.144000     -5.324000
H          11.721000     -9.830000     -4.643000
H          11.826000     -9.300000     -6.329000
H          12.050000     -8.097000     -5.057000
O          14.234000     -7.441000     -5.984000
C          14.579000     -8.558000     -5.675000
C          16.018000     -8.993000     -5.533000
H          16.152000     -9.973000     -6.008000
H          16.118000     -8.942000     -4.442000
C          17.092000     -8.069000     -6.283000
H          16.896000     -7.977000     -7.359000
H          17.246000     -7.048000     -5.915000
C          18.508000     -8.651000     -6.286000
H          18.490000     -9.537000     -6.932000
H          19.042000     -7.864000     -6.831000
C          19.228000     -8.868000     -4.940000
C          19.304000     -7.562000     -4.205000
C          18.360000     -7.315000     -3.258000
H          17.604000     -8.073000     -3.075000
C          18.305000     -6.132000     -2.541000
H          17.522000     -6.023000     -1.797000
C          19.282000     -5.186000     -2.770000
H          19.174000     -4.198000     -2.333000
C          20.241000     -5.350000     -3.687000
H          20.764000     -4.479000     -4.069000
C          20.276000     -6.559000     -4.350000
H          20.952000     -6.640000     -5.197000
C          23.400000    -10.933000     -2.194000
C          21.613000    -11.165000     -0.631000
C          21.278000    -15.700000     -0.742000
C          22.237000    -13.242000     -6.532000
C          18.531000    -15.620000     -3.008000
C          22.232000    -10.457000     -1.640000
C          20.568000    -15.400000     -5.960000
C          23.290000    -14.245000     -0.694000
C          18.130000    -11.617000     -2.472000
C          20.815000    -13.109000     -6.683000
C          19.011000    -10.216000     -4.244000
C          17.851000    -12.272000     -3.681000
C          18.831000    -13.640000     -5.825000
C          19.945000    -16.011000     -4.893000
C          20.017000    -10.200000     -1.951000
C          20.785000    -16.717000     -2.746000
C          20.346000     -9.832000     -4.814000
C          20.925000    -10.786000     -5.885000
C          19.550000    -16.190000     -2.169000
C          24.128000    -14.877000     -4.087000
C          23.097000    -15.969000     -2.436000
C          23.793000    -14.936000     -1.824000
C          23.380000    -12.848000     -0.578000
C          22.320000    -10.994000     -5.577000
C          18.889000    -10.444000     -2.776000
C          22.179000    -12.329000     -0.121000
C          19.982000    -14.181000     -6.452000
C          20.264000    -11.016000     -0.840000
C          17.671000    -13.647000     -3.740000
C          24.007000    -12.696000     -5.175000
C          22.004000    -14.604000     -0.179000
C          18.327000    -11.497000     -4.748000
C          24.458000    -12.853000     -2.762000
C          18.194000    -14.330000     -4.808000
C          18.310000    -12.370000     -1.286000
C          22.215000    -16.316000     -4.672000
C          22.007000    -15.510000     -5.769000
C          18.222000    -13.801000     -1.341000
C          22.982000    -12.185000     -5.984000
C          20.219000    -11.912000     -6.295000
C          23.907000    -14.088000     -5.219000
C          21.482000     -9.737000     -3.846000
C          20.020000    -13.323000     -0.069000
C          18.948000    -12.235000     -5.767000
C          17.877000    -14.424000     -2.573000
C          24.287000    -12.121000     -3.913000
C          19.888000    -15.564000     -0.944000
C          23.944000    -12.108000     -1.676000
C          21.811000    -16.333000     -1.887000
C          19.468000    -12.076000     -0.510000
C          19.220000    -14.382000     -0.541000
C          21.278000     -9.878000     -2.463000
C          22.628000    -10.405000     -4.380000
C          23.318000    -15.999000     -3.821000
C          21.405000    -13.369000      0.144000
C          18.750000    -15.557000     -4.350000
C          22.781000    -14.406000     -6.019000
C          20.931000    -16.578000     -4.102000
C          23.613000    -10.946000     -3.564000
C          24.452000    -14.233000     -2.861000
$end

--------------------------------------------------------------

             Standard Nuclear Orientation (Angstroms)
    I     Atom           X                Y                Z
 ----------------------------------------------------------------
    1      O       4.5203639409    -6.9752928820     2.1657142736
    2      C       4.1547889508    -8.2848305789     1.7714048177
    3      H       3.4421995053    -8.2580951575     0.9380462518
    4      H       3.6732723711    -8.7613452168     2.6347376523
    5      H       5.0243556899    -8.9381964332     1.6251627354
    6      O       5.5390725950    -7.6806556597     4.0851147086
    7      C       5.0324553870    -6.8085258552     3.4285915874
    8      C       5.0136308507    -5.3862547907     3.8702528329
    9      H       5.2902007644    -5.3733184929     4.9328735249
   10      H       3.9611463064    -5.0764089803     3.8877701860
   11      C       5.6778224383    -4.4186887900     2.8647989208
   12      H       6.7431502129    -4.6801735194     2.8600587851
   13      H       5.3400680059    -4.7583800473     1.8780969429
   14      C       5.3958627358    -2.9048957525     2.9961738263
   15      H       4.3395065164    -2.6248855129     2.8974377973
   16      H       5.5944086655    -2.6418461410     4.0427761460
   17      C       6.1426319563    -1.9829993430     2.0346314500
   18      C       7.5900022475    -2.3904824135     2.0815439996
   19      C       8.2836756865    -3.1559672468     1.0795000235
   20      H       7.7982589048    -3.6166798573     0.2245313466
   21      C       9.6247291853    -3.4941470455     1.2297895345
   22      H      10.1448950647    -4.1505247090     0.5390697500
   23      C      10.3347592341    -2.9422163565     2.3321387734
   24      H      11.3296134989    -3.3095082406     2.5627437681
   25      C       9.7077306746    -2.0627127887     3.1785929420
   26      H      10.2912849844    -1.6970066097     4.0182383184
   27      C       8.3338877676    -1.8230271355     3.1116866307
   28      H       7.7804320429    -1.2601964163     3.8577847089
   29      C       7.0507791581     3.0358027948     0.2047932709
   30      C       7.6880625918     1.7169740463    -1.7168140140
   31      C       4.1627902816     2.9895840602    -4.2645449439
   32      C       2.5133703418     2.0947109133     1.9303807952
   33      C       2.1928784313     0.1160908290    -3.4669322861
   34      C       7.6023901007     1.8743062574    -0.3145872850
   35      C       0.9584786542     1.3967416095    -0.3225055071
   36      C       5.6208914996     4.3240171731    -2.8490064933
   37      C       5.4088195253    -1.6169496788    -1.6866040921
   38      C       2.1564047314     0.7696208439     1.7273146458
   39      C       5.5743441834    -1.6383576674     0.6694207986
   40      C       4.1178319174    -1.9292416730    -1.2101130570
   41      C       1.9395492859    -0.7446241534    -0.0009451160
   42      C       0.9704414817     1.2110492656    -1.6899674788
   43      C       7.1748029227    -0.2777911580    -0.7331167578
   44      C       2.0746033778     2.5651145024    -3.4943559740
   45      C       5.6811445433    -0.5976800511     1.7373406374
   46      C       4.4708809573     0.1495443326     2.2434066141
   47      C       2.5468264564     1.3823812328    -3.9650069880
   48      C       3.1339029483     4.7198192410    -0.3157827234
   49      C       3.2264459746     4.4823292675    -2.5543984342
   50      C       4.5029484118     4.8724823537    -2.1387085290
   51      C       6.7171810134     3.9308810591    -2.0045668579
   52      C       4.7613807374     1.4652301135     2.3876522504
   53      C       6.2660067954    -1.3623622611    -0.5978831771
   54      C       7.1712942808     2.6784914947    -2.5450106749
   55      C       1.4794015391     0.4105657666     0.5647140570
   56      C       7.3180193469     0.3621173554    -1.9634338512
   57      C       3.0165452990    -1.5267087191    -2.0065972094
   58      C       4.0277844740     3.7395633161     1.7729279171
   59      C       5.4622484329     3.3812111076    -3.8606813918
   60      C       4.1548574561    -1.8220618263     0.1730628501
   61      C       5.4996693713     4.6388328492     0.0165671466
   62      C       1.8615553351    -0.9508669896    -1.4194213534
   63      C       5.5885887935    -0.9568488032    -2.9146500376
   64      C       1.3760038678     3.3749378266    -1.2652835417
   65      C       1.2305267630     2.7007621425    -0.0206259347
   66      C       4.5253135811    -0.5741115388    -3.7198096548
   67      C       3.8159419732     2.4778356946     2.3460772554
   68      C       3.1642775145    -0.2217669189     1.8483301687
   69      C       2.9965914932     4.0348001998     0.9163152750
   70      C       6.6243793406     0.5595523501     1.4338949472
   71      C       6.1511010124     1.0235442852    -3.8961958689
   72      C       3.0067831630    -1.2197921552     0.8300580258
   73      C       3.1825032596    -0.8307627465    -3.2377053113
   74      C       5.2981757149     3.9933219605     1.2263324127
   75      C       3.8595339646     1.6648346650    -4.4315528662
   76      C       6.5812108791     4.0636617004    -0.6537343650
   77      C       3.0360095335     3.6114498333    -3.6652435957
   78      C       6.6226147231     0.0138362342    -3.0599563862
   79      C       4.8638479578     0.6286530187    -4.3182082636
   80      C       7.3248390503     0.6558755626     0.3002005290
   81      C       6.0843400826     1.7596077461     2.0049795699
   82      C       2.3807639411     4.4167670215    -1.4166741749
   83      C       6.4454589624     2.3668526445    -3.6664393697
   84      C       1.4245755111     0.0544301249    -2.2971572733
   85      C       2.0647988815     3.0601472001     1.0573083920
   86      C       1.2547868221     2.4363245161    -2.3072026754
   87      C       6.3057359294     3.0080268466     1.3426808242
   88      C       4.4259057873     5.0753655466    -0.7101638695
   89      O      -7.8036373143     4.7137501643     4.5974822980
   90      C      -8.6517463703     5.4722738280     5.4602237892
   91      H      -9.6506543103     5.0225127440     5.4094409705
   92      H      -8.7412748698     6.5161839158     5.1328610294
   93      H      -8.2725112926     5.4887925876     6.4893626945
   94      O      -5.9570368731     5.3589095115     5.6639963520
   95      C      -6.4379654125     4.7581197731     4.7312828749
   96      C      -5.6472792358     3.8878304713     3.7839065500
   97      H      -5.9646820520     4.0879933164     2.7528045726
   98      H      -5.8813792234     2.9015252554     4.2025725469
   99      C      -4.0697809424     4.1703826462     3.7462847098
  100      H      -3.8301882652     5.2107927629     3.4917299254
  101      H      -3.4780662711     3.9329668791     4.6379620625
  102      C      -3.3363172422     3.4145139819     2.6352120016
  103      H      -3.6610007456     3.8492583279     1.6822093907
  104      H      -2.3092479475     3.7540028101     2.8124857990
  105      C      -3.3365282624     1.8728387837     2.6562486062
  106      C      -2.7530883647     1.3970934272     3.9542860638
  107      C      -3.6171901858     1.0596121316     4.9484633206
  108      H      -4.6825698771     1.1437207270     4.7548635853
  109      C      -3.1980898265     0.6428423389     6.2003662037
  110      H      -3.9573125251     0.3843834047     6.9319985385
  111      C      -1.8430013734     0.5225496917     6.4265319907
  112      H      -1.4895438959     0.3442675142     7.4375019590
  113      C      -0.9289510407     0.8394834190     5.5037476162
  114      H       0.0876891755     1.0554732107     5.8166135310
  115      C      -1.3949483481     1.2149195609     4.2610210924
  116      H      -0.6683020641     1.6176469956     3.5604914418
  117      C      -2.2339354010    -2.7977878556     0.1703160291
  118      C      -4.2024611144    -3.3434108458     1.4021293542
  119      C      -7.0407208961    -3.7761286217    -2.1260157304
  120      C      -3.0975816748     1.1668567999    -2.8360109440
  121      C      -8.3636789573    -0.4974736260    -1.6931550278
  122      C      -3.0126819796    -2.6535009200     1.2974588978
  123      C      -5.7817455782     1.1332907720    -3.5869080487
  124      C      -4.6964706727    -4.5495020438    -1.8542484768
  125      C      -6.5203456012    -0.1658407332     1.9074348909
  126      C      -4.0471076765     1.9911197175    -2.1420620879
  127      C      -4.4953538491     1.1672176342     1.9436259479
  128      C      -6.7336156380     0.9160040780     1.0398666251
  129      C      -6.1179716472     2.1051644936    -1.3340415414
  130      C      -6.9365302717     0.4096524039    -3.3801259805
  131      C      -4.4393847864    -1.2962515630     2.3889662427
  132      C      -7.3775874235    -1.9580249505    -3.4950935162
  133      C      -3.0887592948     1.0881632523     1.4241808933
  134      C      -2.8700544815     1.5988121213    -0.0193577924
  135      C      -8.1845881387    -1.7942505993    -2.2876951529
  136      C      -3.3746707205    -2.0977280051    -4.0578287339
  137      C      -5.2967644582    -3.2079400667    -3.8249965157
  138      C      -4.3648564530    -3.9118074360    -3.0752184176
  139      C      -3.8575314456    -4.4809448075    -0.7296837261
  140      C      -2.0330249121     0.6397220867    -0.7002989098
  141      C      -5.1753507046    -0.0834499605     2.3855839142
  142      C      -4.6062002424    -4.2303475686     0.4093101530
  143      C      -5.3669216560     2.0224138138    -2.5339112158
  144      C      -5.0696212763    -2.5009457593     2.0532582444
  145      C      -7.6454881691     0.8439205380    -0.0040674965
  146      C      -1.8679090801    -0.7656682431    -2.6756449005
  147      C      -6.0345468317    -4.4421243221    -1.3583410081
  148      C      -5.5950383545     1.7340870865     1.0313836486
  149      C      -2.3680733955    -3.0968012831    -2.0704396400
  150      C      -7.3134240272     1.4195616710    -1.2036560475
  151      C      -7.1880633074    -1.3943505913     1.6817767571
  152      C      -5.4680764801    -0.9028109605    -4.5700206729
  153      C      -4.8185316083     0.2697589700    -4.2546158255
  154      C      -8.0640914851    -1.5219417872     0.5526952195
  155      C      -2.0949361329     0.4989708178    -2.1140634168
  156      C      -3.9260107822     2.1180283259    -0.7608312067
  157      C      -2.7338822857    -0.8912114700    -3.7637300559
  158      C      -2.4772725153    -0.2751034262     1.3598933987
  159      C      -6.8261547194    -3.4042721804     0.6128355147
  160      C      -5.2360077655     2.2124838910    -0.2378206429
  161      C      -8.3015423286    -0.3840476004    -0.2681530713
  162      C      -1.7165712435    -1.9061063244    -1.8521360409
  163      C      -7.9485122493    -2.9223024603    -1.4639766492
  164      C      -2.6631203934    -3.6829211815    -0.8182304987
  165      C      -6.6482950330    -3.1308236416    -3.3199112135
  166      C      -6.3853415334    -2.5712515972     1.6926292186
  167      C      -7.8950859891    -2.7766048648    -0.0562569166
  168      C      -3.1424854100    -1.4000093520     1.8759015989
  169      C      -1.8322660736    -0.4554432465     0.0965089602
  170      C      -4.7168869740    -2.1152723684    -4.4866500537
  171      C      -5.8735618831    -4.2516309814     0.0295174621
  172      C      -7.7449469032     0.5729286098    -2.2626317163
  173      C      -3.5188580745     0.2877300090    -3.8176744712
  174      C      -6.7656972814    -0.8293984096    -3.9758903392
  175      C      -1.6549364751    -1.7117721137    -0.4682511578
  176      C      -3.1390736599    -3.2172918771    -3.2129271056
 ----------------------------------------------------------------

    9   -5804.2519721087      7.42E-06 Convergence criterion met
 Total energy in the final basis set = -5804.2519721087

                    Orbital Energies (a.u.)
 --------------------------------------------------------------

 Alpha MOs
 -- Occupied --
-19.192 -19.183 -19.140 -19.129 -10.318 -10.314 -10.244 -10.244
-10.243 -10.243 -10.242 -10.241 -10.240 -10.240 -10.237 -10.229
-10.229 -10.228 -10.228 -10.227 -10.226 -10.226 -10.225 -10.225
-10.224 -10.222 -10.222 -10.222 -10.222 -10.222 -10.221 -10.221
-10.221 -10.221 -10.221 -10.220 -10.220 -10.220 -10.219 -10.219
-10.219 -10.219 -10.219 -10.218 -10.218 -10.218 -10.218 -10.218
-10.218 -10.217 -10.217 -10.217 -10.217 -10.217 -10.217 -10.217
-10.217 -10.217 -10.216 -10.216 -10.216 -10.216 -10.216 -10.216
-10.216 -10.216 -10.216 -10.215 -10.215 -10.215 -10.215 -10.215
-10.215 -10.215 -10.215 -10.214 -10.214 -10.214 -10.214 -10.214
-10.214 -10.214 -10.214 -10.214 -10.214 -10.213 -10.213 -10.213
-10.213 -10.213 -10.213 -10.213 -10.213 -10.212 -10.212 -10.212
-10.212 -10.212 -10.212 -10.212 -10.212 -10.212 -10.212 -10.212
-10.211 -10.211 -10.211 -10.211 -10.211 -10.211 -10.211 -10.211
-10.211 -10.210 -10.210 -10.210 -10.209 -10.209 -10.209 -10.209
-10.208 -10.208 -10.208 -10.207 -10.207 -10.206 -10.206 -10.206
-10.205 -10.205 -10.205 -10.204 -10.204 -10.203 -10.203 -10.203
-10.202 -10.201 -10.201 -10.200 -10.199 -10.198 -10.197 -10.196
-10.194 -10.191 -10.191 -10.189  -1.101  -1.092  -1.022  -1.005
 -0.987  -0.984  -0.968  -0.967  -0.966  -0.965  -0.963  -0.960
 -0.938  -0.934  -0.930  -0.928  -0.928  -0.928  -0.925  -0.924
 -0.923  -0.918  -0.900  -0.900  -0.894  -0.890  -0.890  -0.882
 -0.880  -0.878  -0.865  -0.857  -0.846  -0.844  -0.843  -0.840
 -0.839  -0.837  -0.823  -0.820  -0.810  -0.803  -0.802  -0.799
 -0.798  -0.798  -0.795  -0.795  -0.794  -0.791  -0.787  -0.784
 -0.775  -0.772  -0.772  -0.771  -0.770  -0.769  -0.768  -0.767
 -0.756  -0.753  -0.748  -0.744  -0.737  -0.734  -0.719  -0.717
 -0.716  -0.714  -0.714  -0.714  -0.713  -0.713  -0.712  -0.711
 -0.708  -0.707  -0.707  -0.705  -0.704  -0.702  -0.677  -0.676
 -0.663  -0.660  -0.658  -0.657  -0.651  -0.649  -0.632  -0.632
 -0.630  -0.628  -0.628  -0.625  -0.625  -0.621  -0.620  -0.618
 -0.617  -0.616  -0.615  -0.614  -0.613  -0.613  -0.612  -0.609
 -0.608  -0.606  -0.604  -0.603  -0.571  -0.567  -0.566  -0.564
 -0.562  -0.561  -0.560  -0.559  -0.558  -0.556  -0.556  -0.551
 -0.541  -0.540  -0.535  -0.533  -0.533  -0.528  -0.527  -0.525
 -0.524  -0.523  -0.520  -0.520  -0.519  -0.516  -0.516  -0.513
 -0.509  -0.506  -0.503  -0.503  -0.495  -0.493  -0.489  -0.488
 -0.486  -0.486  -0.484  -0.482  -0.481  -0.481  -0.479  -0.476
 -0.475  -0.474  -0.471  -0.471  -0.470  -0.469  -0.468  -0.467
 -0.467  -0.466  -0.465  -0.464  -0.463  -0.462  -0.462  -0.459
 -0.458  -0.455  -0.452  -0.452  -0.451  -0.448  -0.447  -0.447
 -0.445  -0.444  -0.442  -0.441  -0.438  -0.437  -0.435  -0.433
 -0.432  -0.432  -0.431  -0.429  -0.428  -0.428  -0.426  -0.425
 -0.425  -0.424  -0.423  -0.423  -0.422  -0.421  -0.420  -0.420
 -0.419  -0.418  -0.418  -0.417  -0.417  -0.416  -0.415  -0.414
 -0.413  -0.411  -0.410  -0.409  -0.405  -0.405  -0.403  -0.397
 -0.396  -0.394  -0.394  -0.393  -0.392  -0.387  -0.385  -0.383
 -0.380  -0.379  -0.375  -0.375  -0.372  -0.372  -0.368  -0.367
 -0.365  -0.365  -0.363  -0.363  -0.361  -0.360  -0.360  -0.359
 -0.357  -0.357  -0.357  -0.356  -0.354  -0.353  -0.352  -0.351
 -0.350  -0.349  -0.348  -0.347  -0.347  -0.347  -0.345  -0.343
 -0.343  -0.341  -0.340  -0.339  -0.338  -0.337  -0.337  -0.336
 -0.335  -0.334  -0.332  -0.332  -0.330  -0.328  -0.327  -0.326
 -0.314  -0.311  -0.299  -0.292  -0.290  -0.286  -0.273  -0.273
 -0.272  -0.271  -0.270  -0.270  -0.268  -0.267  -0.265  -0.264
 -0.263  -0.263  -0.262  -0.261  -0.259  -0.258  -0.257  -0.255
 -0.253  -0.249  -0.249  -0.244  -0.226  -0.219  -0.215  -0.212
 -0.211  -0.211  -0.210  -0.203  -0.201  -0.196

          Ground-State Mulliken Net Atomic Charges

     Atom                 Charge (a.u.)
  ----------------------------------------
      1 O                    -0.464574
      2 C                    -0.084652
      3 H                     0.125136
      4 H                     0.119486
      5 H                     0.127532
      6 O                    -0.454604
      7 C                     0.588314
      8 C                    -0.246133
      9 H                     0.128104
     10 H                     0.122302
     11 C                    -0.200773
     12 H                     0.127971
     13 H                     0.129475
     14 C                    -0.182513
     15 H                     0.103550
     16 H                     0.108526
     17 C                     0.016978
     18 C                     0.071385
     19 C                    -0.110930
     20 H                     0.092449
     21 C                    -0.092168
     22 H                     0.096052
     23 C                    -0.081606
     24 H                     0.091866
     25 C                    -0.087279
     26 H                     0.086791
     27 C                    -0.095246
     28 H                     0.092166
     29 C                     0.008224
     30 C                    -0.018407
     31 C                     0.000417
     32 C                    -0.022007
     33 C                    -0.002846
     34 C                    -0.017647
     35 C                     0.010642
     36 C                    -0.013458
     37 C                    -0.002453
     38 C                    -0.017398
     39 C                    -0.083228
     40 C                     0.018961
     41 C                     0.016840
     42 C                     0.028359
     43 C                     0.001573
     44 C                     0.001419
     45 C                    -0.092932
     46 C                     0.061644
     47 C                     0.031975
     48 C                     0.027718
     49 C                     0.012231
     50 C                     0.008729
     51 C                    -0.033006
     52 C                     0.037907
     53 C                     0.019380
     54 C                     0.018823
     55 C                     0.014550
     56 C                     0.006572
     57 C                    -0.008861
     58 C                    -0.040056
     59 C                    -0.000027
     60 C                     0.031538
     61 C                     0.018624
     62 C                    -0.015663
     63 C                    -0.006646
     64 C                    -0.041339
     65 C                    -0.018577
     66 C                    -0.002513
     67 C                    -0.004418
     68 C                    -0.039319
     69 C                     0.040130
     70 C                     0.031351
     71 C                    -0.002794
     72 C                    -0.028216
     73 C                     0.005671
     74 C                    -0.003544
     75 C                     0.003245
     76 C                     0.035939
     77 C                    -0.034616
     78 C                    -0.012449
     79 C                    -0.019191
     80 C                     0.039967
     81 C                    -0.039204
     82 C                    -0.000263
     83 C                     0.020489
     84 C                    -0.010793
     85 C                     0.019716
     86 C                    -0.015979
     87 C                    -0.007965
     88 C                    -0.043279
     89 O                    -0.476053
     90 C                    -0.081311
     91 H                     0.121117
     92 H                     0.119150
     93 H                     0.134235
     94 O                    -0.462833
     95 C                     0.577962
     96 C                    -0.250339
     97 H                     0.133936
     98 H                     0.144495
     99 C                    -0.176386
    100 H                     0.114348
    101 H                     0.126569
    102 C                    -0.203587
    103 H                     0.101640
    104 H                     0.110841
    105 C                     0.026704
    106 C                     0.111534
    107 C                    -0.114287
    108 H                     0.080713
    109 C                    -0.073278
    110 H                     0.092184
    111 C                    -0.090727
    112 H                     0.082631
    113 C                    -0.069498
    114 H                     0.099693
    115 C                    -0.142620
    116 H                     0.082562
    117 C                    -0.007035
    118 C                     0.021371
    119 C                     0.002282
    120 C                    -0.013603
    121 C                    -0.003480
    122 C                    -0.010236
    123 C                    -0.038553
    124 C                     0.013230
    125 C                     0.017617
    126 C                     0.003250
    127 C                    -0.063780
    128 C                     0.031234
    129 C                     0.002267
    130 C                     0.056365
    131 C                     0.007653
    132 C                    -0.030448
    133 C                    -0.094258
    134 C                    -0.003148
    135 C                    -0.019526
    136 C                     0.009858
    137 C                     0.011345
    138 C                     0.000036
    139 C                    -0.042078
    140 C                    -0.005715
    141 C                    -0.002121
    142 C                     0.041292
    143 C                    -0.021738
    144 C                     0.009804
    145 C                     0.002686
    146 C                    -0.001976
    147 C                    -0.030964
    148 C                     0.000879
    149 C                     0.025683
    150 C                    -0.013475
    151 C                    -0.039890
    152 C                    -0.019386
    153 C                     0.000098
    154 C                    -0.003667
    155 C                     0.007519
    156 C                     0.033245
    157 C                    -0.020325
    158 C                     0.039020
    159 C                     0.004719
    160 C                    -0.009580
    161 C                    -0.012035
    162 C                     0.005750
    163 C                     0.002163
    164 C                    -0.009892
    165 C                     0.009025
    166 C                    -0.019133
    167 C                     0.008182
    168 C                    -0.001691
    169 C                     0.029598
    170 C                    -0.007762
    171 C                     0.005530
    172 C                     0.010648
    173 C                     0.027802
    174 C                     0.015501
    175 C                    -0.005896
    176 C                    -0.024803
  ----------------------------------------
  Sum of atomic charges =     0.000000

                    Cartesian Multipole Moments
 -----------------------------------------------------------------
    Charge (ESU x 10^10)
                 0.0000
    Dipole Moment (Debye)
         X       1.1851      Y       0.0749      Z       1.5225
       Tot       1.9308
    Quadrupole Moments (Debye-Ang)
        XX    -791.3091     XY      -8.0349     YY    -816.8049
        XZ      -5.0742     YZ       6.3470     ZZ    -811.4755

 Total job time:  852.80s(wall), 7262.19s(cpu)
        *  Thank you very much for using Q-Chem.  Have a nice day.  *
