 Q-Chem 4.4, Q-Chem, Inc., Pleasanton, CA (2016)
 Q-Chem 4.4.2 for Intel X86 Linux

User input:
--------------------------------------------------------------
$comment
SP
$end

$rem
MEM_STATIC 5000
MEM_TOTAL 20000
JOBTYPE SP
EXCHANGE B3LYP
BASIS 6-31g(d,p)
$end

$molecule
0 1
O          15.727000    -15.018000      1.207000
C          16.812000    -14.672000      2.076000
H          16.942000    -15.506000      2.777000
H          16.555000    -13.688000      2.488000
H          17.785000    -14.699000      1.570000
O          16.991000    -16.490000      0.014000
C          15.895000    -15.978000      0.245000
C          14.679000    -16.361000     -0.556000
H          14.071000    -16.976000      0.117000
H          15.010000    -16.863000     -1.474000
C          13.846000    -15.101000     -0.883000
H          13.105000    -15.475000     -1.600000
H          13.345000    -14.780000      0.038000
C          14.543000    -13.927000     -1.489000
H          15.397000    -13.557000     -0.909000
H          14.986000    -14.201000     -2.455000
C          13.575000    -12.738000     -1.650000
C          12.815000    -12.719000     -2.928000
C          11.528000    -13.306000     -2.947000
H          11.140000    -13.610000     -1.980000
C          10.847000    -13.342000     -4.105000
H           9.914000    -13.895000     -4.153000
C          11.364000    -12.916000     -5.343000
H          10.783000    -13.029000     -6.253000
C          12.675000    -12.433000     -5.371000
H          12.992000    -11.967000     -6.300000
C          13.403000    -12.350000     -4.130000
H          14.392000    -11.903000     -4.166000
C          13.197000     -7.274000     -1.549000
C          11.053000     -8.037000     -0.760000
C          11.431000     -6.698000      3.540000
C          16.806000     -9.412000      1.313000
C          12.277000     -9.985000      4.612000
C          12.154000     -8.232000     -1.565000
C          15.760000     -9.719000      3.894000
C          12.136000     -5.610000      1.503000
C          11.158000    -11.541000      1.018000
C          16.306000    -10.644000      1.707000
C          13.029000    -12.131000     -0.394000
C          12.174000    -12.093000      1.829000
C          14.740000    -11.676000      2.920000
C          14.646000     -9.568000      4.704000
C          11.307000    -10.221000     -0.963000
C          13.066000     -7.679000      4.828000
C          14.055000    -11.407000     -1.267000
C          15.364000    -11.022000     -0.528000
C          12.030000     -8.620000      4.758000
C          15.496000     -6.241000      2.018000
C          13.679000     -5.903000      3.325000
C          13.426000     -5.435000      2.008000
C          11.960000     -6.003000      0.112000
C          15.730000     -9.710000     -0.873000
C          11.669000    -11.446000     -0.299000
C          10.917000     -6.889000      0.092000
C          15.852000    -10.833000      3.013000
C          10.436000     -9.268000     -0.404000
C          12.364000    -11.722000      3.184000
C          16.212000     -7.528000      0.146000
C          11.146000     -6.229000      2.243000
C          13.308000    -12.370000      1.080000
C          14.342000     -5.971000     -0.146000
C          13.605000    -11.531000      3.759000
C          10.325000    -10.533000      1.586000
C          15.336000     -7.580000      3.976000
C          16.250000     -8.440000      3.485000
C          10.516000    -10.144000      2.920000
C          16.438000     -8.887000      0.093000
C          15.545000    -11.433000      0.825000
C          16.413000     -7.178000      1.504000
C          13.679000    -10.066000     -1.909000
C           9.863000     -8.321000      1.771000
C          14.595000    -12.082000      1.593000
C          11.510000    -10.740000      3.727000
C          15.234000     -6.980000     -0.666000
C          11.040000     -8.025000      3.903000
C          13.083000     -6.137000     -0.684000
C          12.664000     -6.625000      4.084000
C           9.970000     -9.405000      0.886000
C          10.222000     -8.798000      3.020000
C          12.310000     -9.536000     -1.792000
C          14.707000     -9.105000     -1.673000
C          15.009000     -6.389000      3.312000
C          10.397000     -7.037000      1.374000
C          13.575000    -10.488000      4.648000
C          16.808000     -8.303000      2.237000
C          14.384000     -8.199000      4.806000
C          14.455000     -7.772000     -1.561000
C          14.519000     -5.644000      1.203000
O          13.630000     -9.461000     -5.264000
C          12.239000     -9.144000     -5.324000
H          11.721000     -9.830000     -4.643000
H          11.826000     -9.300000     -6.329000
H          12.050000     -8.097000     -5.057000
O          14.234000     -7.441000     -5.984000
C          14.579000     -8.558000     -5.675000
C          16.018000     -8.993000     -5.533000
H          16.152000     -9.973000     -6.008000
H          16.118000     -8.942000     -4.442000
C          17.092000     -8.069000     -6.283000
H          16.896000     -7.977000     -7.359000
H          17.246000     -7.048000     -5.915000
C          18.508000     -8.651000     -6.286000
H          18.490000     -9.537000     -6.932000
H          19.042000     -7.864000     -6.831000
C          19.228000     -8.868000     -4.940000
C          19.304000     -7.562000     -4.205000
C          18.360000     -7.315000     -3.258000
H          17.604000     -8.073000     -3.075000
C          18.305000     -6.132000     -2.541000
H          17.522000     -6.023000     -1.797000
C          19.282000     -5.186000     -2.770000
H          19.174000     -4.198000     -2.333000
C          20.241000     -5.350000     -3.687000
H          20.764000     -4.479000     -4.069000
C          20.276000     -6.559000     -4.350000
H          20.952000     -6.640000     -5.197000
C          23.400000    -10.933000     -2.194000
C          21.613000    -11.165000     -0.631000
C          21.278000    -15.700000     -0.742000
C          22.237000    -13.242000     -6.532000
C          18.531000    -15.620000     -3.008000
C          22.232000    -10.457000     -1.640000
C          20.568000    -15.400000     -5.960000
C          23.290000    -14.245000     -0.694000
C          18.130000    -11.617000     -2.472000
C          20.815000    -13.109000     -6.683000
C          19.011000    -10.216000     -4.244000
C          17.851000    -12.272000     -3.681000
C          18.831000    -13.640000     -5.825000
C          19.945000    -16.011000     -4.893000
C          20.017000    -10.200000     -1.951000
C          20.785000    -16.717000     -2.746000
C          20.346000     -9.832000     -4.814000
C          20.925000    -10.786000     -5.885000
C          19.550000    -16.190000     -2.169000
C          24.128000    -14.877000     -4.087000
C          23.097000    -15.969000     -2.436000
C          23.793000    -14.936000     -1.824000
C          23.380000    -12.848000     -0.578000
C          22.320000    -10.994000     -5.577000
C          18.889000    -10.444000     -2.776000
C          22.179000    -12.329000     -0.121000
C          19.982000    -14.181000     -6.452000
C          20.264000    -11.016000     -0.840000
C          17.671000    -13.647000     -3.740000
C          24.007000    -12.696000     -5.175000
C          22.004000    -14.604000     -0.179000
C          18.327000    -11.497000     -4.748000
C          24.458000    -12.853000     -2.762000
C          18.194000    -14.330000     -4.808000
C          18.310000    -12.370000     -1.286000
C          22.215000    -16.316000     -4.672000
C          22.007000    -15.510000     -5.769000
C          18.222000    -13.801000     -1.341000
C          22.982000    -12.185000     -5.984000
C          20.219000    -11.912000     -6.295000
C          23.907000    -14.088000     -5.219000
C          21.482000     -9.737000     -3.846000
C          20.020000    -13.323000     -0.069000
C          18.948000    -12.235000     -5.767000
C          17.877000    -14.424000     -2.573000
C          24.287000    -12.121000     -3.913000
C          19.888000    -15.564000     -0.944000
C          23.944000    -12.108000     -1.676000
C          21.811000    -16.333000     -1.887000
C          19.468000    -12.076000     -0.510000
C          19.220000    -14.382000     -0.541000
C          21.278000     -9.878000     -2.463000
C          22.628000    -10.405000     -4.380000
C          23.318000    -15.999000     -3.821000
C          21.405000    -13.369000      0.144000
C          18.750000    -15.557000     -4.350000
C          22.781000    -14.406000     -6.019000
C          20.931000    -16.578000     -4.102000
C          23.613000    -10.946000     -3.564000
C          24.452000    -14.233000     -2.861000
$end

--------------------------------------------------------------

             Standard Nuclear Orientation (Angstroms)
    I     Atom           X                Y                Z
 ----------------------------------------------------------------
    1      O       0.4647313634     4.8723164685    -0.0496454098
    2      C       0.1442740954     4.8477431241     1.3463507543
    3      H       0.0226790594     5.8898309430     1.6674809847
    4      H       0.9359951689     4.2522884317     1.8182198581
    5      H      -0.8676635163     4.4719829712     1.5420049838
    6      O      -1.6789613637     5.3430444965    -0.6585178227
    7      C      -0.4981884479     5.1861333033    -0.9713679446
    8      C      -0.0580695986     5.2959119297    -2.4070524683
    9      H       0.4803958440     6.2480463148    -2.4727265092
   10      H      -0.9435870906     5.2163447782    -3.0503384388
   11      C       0.9637943389     4.1826185210    -2.7307651176
   12      H       1.0702074845     4.2552577901    -3.8200060364
   13      H       1.9115636432     4.4436946486    -2.2451154482
   14      C       0.6128511273     2.7735103385    -2.3806594304
   15      H       0.3528091294     2.6189183583    -1.3265742920
   16      H      -0.2904908768     2.4585802569    -2.9185007335
   17      C       1.7885037034     1.8239550778    -2.6853754079
   18      C       1.8133630040     1.2840472647    -4.0707008457
   19      C       2.5840866186     1.9689217678    -5.0393241083
   20      H       3.2093447819     2.7693404302    -4.6566608174
   21      C       2.5789299471     1.5239751339    -6.3074001713
   22      H       3.0701887570     2.1121567965    -7.0763664342
   23      C       1.7773802824     0.4647867928    -6.7732834111
   24      H       1.7751483503     0.1943108678    -7.8246005814
   25      C       0.9239015065    -0.1584028737    -5.8589516231
   26      H       0.4380498583    -1.0674313281    -6.2029013942
   27      C       0.9489227010     0.2808005952    -4.4865711173
   28      H       0.3318715845    -0.2672672732    -3.7808122837
   29      C       4.3555134757    -2.7317058671    -1.0529553687
   30      C       6.1018862255    -1.3645247874    -1.9923296893
   31      C       8.3125402512    -0.4176695440     1.8341933966
   32      C       1.9391878438    -0.0210008702     2.4967513601
   33      C       6.7966347067     2.7953440197     2.0529243269
   34      C       4.7837287292    -1.7653994671    -1.9956921495
   35      C       3.8213808868     1.6864963081     3.6764668916
   36      C       7.2662986831    -2.4688725745     1.1075004018
   37      C       5.4065782469     2.4974371884    -1.7640283265
   38      C       2.0138180956     1.3021767249     2.0884728066
   39      C       3.0412698042     2.0149419118    -1.8864998694
   40      C       4.7490429810     3.2206210247    -0.7445512483
   41      C       3.3873500828     3.0236900515     1.7162487523
   42      C       5.1342155897     2.1293693506     3.6614498690
   43      C       4.9200996611     0.3597626508    -2.7035218903
   44      C       7.2088919567     0.8166808879     3.4319635470
   45      C       2.1250578537     0.8071378095    -1.6846437022
   46      C       1.5838479202     0.6507282042    -0.2388031704
   47      C       7.6138032487     1.7404736582     2.4591682123
   48      C       4.5871073808    -2.1782983719     3.2732535268
   49      C       6.7592401310    -1.5412769571     3.2682502705
   50      C       6.5477832465    -2.5600173280     2.3013086784
   51      C       6.6100014486    -2.8013595954    -0.1490951262
   52      C       1.6701447615    -0.6961228947     0.1521827277
   53      C       4.4390755095     1.6821875046    -2.3995921755
   54      C       7.0656659978    -1.8984933681    -1.0712921735
   55      C       2.8929796919     2.1835872586     2.7190783559
   56      C       6.2521107026    -0.0435844020    -2.4976366303
   57      C       5.3688666335     3.5518090227     0.4866673147
   58      C       2.6418257363    -2.1220103237     1.8998926931
   59      C       8.1359444939    -1.4224710373     0.8633263111
   60      C       3.3970299666     2.9127165881    -0.7138646587
   61      C       4.6207878268    -3.3154380426     1.0838949456
   62      C       4.7276110041     3.4893148170     1.7081715890
   63      C       6.7350067408     2.0459354216    -1.5110443524
   64      C       5.0640501665    -0.0342368209     4.1830945262
   65      C       3.7669175582     0.3172253604     4.0831028684
   66      C       7.3517611973     2.3511300895    -0.2888217233
   67      C       1.8862124367    -1.0226832429     1.5516190781
   68      C       1.8918921487     1.6496159837     0.7305383365
   69      C       3.2457795178    -1.7730570181     3.1329930217
   70      C       2.6743805231    -0.6011941181    -1.9428428240
   71      C       8.0844938102     0.3200287733    -0.9273116303
   72      C       2.7304931359     2.7295836273     0.5209118280
   73      C       6.6919095068     3.1131725450     0.7003132738
   74      C       3.2672170345    -2.8479907780     0.9009081566
   75      C       8.2481469591     0.9547242339     1.4367417361
   76      C       5.3033582073    -3.2531046553    -0.1128895900
   77      C       7.6154630409    -0.3937358904     2.9896433276
   78      C       7.1545974787     0.7872672934    -1.8689649519
   79      C       8.1773607106     1.2965767154     0.0494897086
   80      C       4.0263325962    -0.7893402638    -2.4956326755
   81      C       2.3597961345    -1.4579933531    -0.8460599224
   82      C       5.5035616532    -1.3329067856     3.8888293809
   83      C       8.0027411011    -1.0541320275    -0.4841191349
   84      C       5.5817516709     3.0474893085     2.6850564037
   85      C       2.8108478727    -0.5064886719     3.5399058973
   86      C       5.9447676063     1.0513772049     4.0277111996
   87      C       3.1523690480    -2.5017751081    -0.4782490679
   88      C       5.2302614351    -2.9477423304     2.2886359070
   89      O       1.4258425131    -2.7847744467    -4.2444902310
   90      C       2.6276926832    -2.8761931805    -5.0101068348
   91      H       3.0697478120    -1.8730014586    -5.0396810173
   92      H       2.4316597645    -3.1826415074    -6.0457662951
   93      H       3.3249708268    -3.6080074151    -4.5841137404
   94      O       1.4403769289    -4.9587707792    -3.7575151834
   95      C       0.8544738461    -3.9031545688    -3.6897878343
   96      C      -0.3958538991    -3.6773202507    -2.8738286502
   97      H      -1.1174400436    -3.0982399269    -3.4637103457
   98      H       0.0443897529    -3.1912992186    -1.9947091570
   99      C      -1.2124970310    -5.0016194058    -2.4877227800
  100      H      -1.5117950752    -5.5877591639    -3.3660831074
  101      H      -0.7509668483    -5.7123808357    -1.7924609011
  102      C      -2.5706732812    -4.7192578659    -1.8400977076
  103      H      -3.2119453765    -4.2829061687    -2.6153417312
  104      H      -2.9221606612    -5.7431615158    -1.6679700302
  105      C      -2.6133252940    -3.9704264561    -0.4930129569
  106      C      -1.8064751110    -4.7294914481     0.5191382769
  107      C      -0.5264726094    -4.3257088480     0.7370997595
  108      H      -0.1530190462    -3.4738812945     0.1762867288
  109      C       0.3257649816    -4.9691045123     1.6181991338
  110      H       1.3295155944    -4.5730790927     1.7371721314
  111      C      -0.1670902145    -6.0375429303     2.3375176326
  112      H       0.5198144482    -6.6463255393     2.9174510076
  113      C      -1.4114976675    -6.4994361622     2.1776091172
  114      H      -1.6456316774    -7.5120093676     2.4906119434
  115      C      -2.2338071413    -5.8038926583     1.3159239290
  116      H      -3.1886016288    -6.2591442640     1.0668065629
  117      C      -5.4983504588    -1.4645327741     3.3289566469
  118      C      -3.4647310968    -0.2178093880     3.3442892594
  119      C      -5.0945230089     3.6472236812     1.5847243423
  120      C      -7.4998177510    -1.4845970032    -1.3074234178
  121      C      -3.9245540677     2.8607246173    -1.6863239452
  122      C      -4.1276412787    -1.4186759299     3.1994595684
  123      C      -6.7956236140     0.8933502861    -2.5798959350
  124      C      -6.0725590339     2.1271282454     3.2877300381
  125      C      -1.7346318845    -0.2275569682    -0.2238384991
  126      C      -6.3898536680    -1.4597569367    -2.2184320378
  127      C      -2.6717143265    -2.4400450970    -0.5489827393
  128      C      -2.3328085577    -0.2301325606    -1.4929819244
  129      C      -4.6441783018    -0.2801656787    -2.9364591820
  130      C      -6.0635987081     2.0409905311    -2.3631001670
  131      C      -2.4130651053    -1.4603397778     1.7408685807
  132      C      -6.0339453597     3.5889105199    -0.5146658601
  133      C      -3.8321414004    -3.2528960283    -0.0517269000
  134      C      -5.1675641264    -3.0603758009    -0.8080205630
  135      C      -4.5789852331     3.6127946749    -0.6503256449
  136      C      -8.5431392506     0.8469081825     1.0806081602
  137      C      -7.4170482164     2.7578472626     1.3285130108
  138      C      -7.2678814704     2.0771809114     2.5287178268
  139      C      -5.5226774961     0.9793275804     3.8821616387
  140      C      -6.2149141851    -2.9387877996     0.1780966777
  141      C      -1.9970067934    -1.4943864537     0.3850362515
  142      C      -4.1527093174     0.9450309723     3.6757108403
  143      C      -6.0612330368    -0.3044356500    -2.8919861969
  144      C      -2.4325159060    -0.2465452730     2.4390881497
  145      C      -2.7764981878     0.9408712745    -2.0916433732
  146      C      -8.0578005006    -1.5392100916     0.9192641807
  147      C      -4.9658645800     2.8838271755     2.7871942105
  148      C      -2.8818597076    -1.4956350588    -1.7434540025
  149      C      -7.3756152028    -0.2685608777     2.9119239095
  150      C      -3.9560534428     0.9120383794    -2.7905425537
  151      C      -1.6411869885     0.9799800451     0.5104144634
  152      C      -7.8823336995     2.0704273517    -0.9538086767
  153      C      -7.8914023703     0.8662934853    -1.6218568718
  154      C      -2.1785976955     2.1869432940    -0.0490133226
  155      C      -7.4089034604    -2.2250543215    -0.1174504973
  156      C      -5.2543182528    -2.1980136654    -1.8957784721
  157      C      -8.5648326069    -0.3582346559     0.3735394667
  158      C      -4.2497618870    -3.0215191752     1.3655249764
  159      C      -2.8252280347     2.1437244026     2.1095216741
  160      C      -4.1389097655    -1.4678019157    -2.3661067692
  161      C      -2.7220635122     2.1554981050    -1.3637886290
  162      C      -7.4687231124    -1.4420592086     2.2019249062
  163      C      -4.0319612386     3.6392376922     0.6561239394
  164      C      -6.1697420281    -0.2850056338     3.6496341890
  165      C      -6.2968481389     3.5357842031     0.8513768637
  166      C      -2.0830398123     0.9423905450     1.8642715871
  167      C      -2.8387133452     2.9320897981     0.9422328711
  168      C      -3.5136572203    -2.1802088519     2.2167199362
  169      C      -5.6720002397    -2.8902371249     1.4340748940
  170      C      -8.2370488067     2.0589122049     0.4301507136
  171      C      -3.8422105016     2.0811480210     3.0726109007
  172      C      -4.6855039251     2.1041889677    -2.5238817792
  173      C      -8.1690215002    -0.3169528248    -0.9868389285
  174      C      -6.7126419725     2.7715007986    -1.3810290952
  175      C      -6.2982544805    -2.1692857782     2.4424383114
  176      C      -7.9772639936     0.8605935090     2.3853632734
 ----------------------------------------------------------------

   10   -5804.2474591668      3.28E-06 Convergence criterion met
 Total energy in the final basis set = -5804.2474591668

                    Orbital Energies (a.u.)
 --------------------------------------------------------------

 Alpha MOs
 -- Occupied --
-19.193 -19.186 -19.132 -19.131 -10.316 -10.315 -10.247 -10.244
-10.242 -10.242 -10.241 -10.240 -10.240 -10.236 -10.235 -10.234
-10.233 -10.232 -10.229 -10.229 -10.228 -10.228 -10.227 -10.227
-10.225 -10.224 -10.224 -10.223 -10.223 -10.222 -10.222 -10.222
-10.222 -10.221 -10.221 -10.221 -10.220 -10.220 -10.219 -10.219
-10.219 -10.219 -10.218 -10.218 -10.218 -10.218 -10.218 -10.217
-10.217 -10.217 -10.217 -10.217 -10.217 -10.217 -10.217 -10.217
-10.217 -10.217 -10.216 -10.216 -10.216 -10.216 -10.216 -10.216
-10.215 -10.215 -10.215 -10.215 -10.215 -10.215 -10.215 -10.215
-10.215 -10.215 -10.215 -10.215 -10.215 -10.215 -10.214 -10.214
-10.214 -10.214 -10.214 -10.214 -10.214 -10.214 -10.214 -10.214
-10.213 -10.213 -10.213 -10.213 -10.213 -10.213 -10.213 -10.213
-10.212 -10.212 -10.212 -10.212 -10.212 -10.212 -10.212 -10.212
-10.211 -10.211 -10.211 -10.211 -10.211 -10.211 -10.211 -10.211
-10.211 -10.211 -10.210 -10.210 -10.210 -10.210 -10.209 -10.209
-10.209 -10.208 -10.208 -10.208 -10.208 -10.207 -10.207 -10.205
-10.205 -10.204 -10.204 -10.204 -10.203 -10.203 -10.202 -10.202
-10.201 -10.201 -10.198 -10.197 -10.196 -10.195 -10.194 -10.192
-10.189 -10.189 -10.188 -10.186  -1.093  -1.092  -1.006  -1.004
 -0.987  -0.983  -0.969  -0.967  -0.967  -0.966  -0.962  -0.959
 -0.940  -0.933  -0.933  -0.931  -0.928  -0.927  -0.927  -0.924
 -0.922  -0.917  -0.905  -0.899  -0.897  -0.889  -0.888  -0.881
 -0.878  -0.877  -0.863  -0.857  -0.848  -0.843  -0.842  -0.840
 -0.839  -0.836  -0.823  -0.819  -0.813  -0.803  -0.803  -0.802
 -0.797  -0.797  -0.797  -0.794  -0.794  -0.790  -0.787  -0.783
 -0.776  -0.771  -0.771  -0.770  -0.769  -0.769  -0.767  -0.764
 -0.755  -0.752  -0.747  -0.744  -0.733  -0.733  -0.721  -0.719
 -0.717  -0.716  -0.714  -0.713  -0.713  -0.712  -0.712  -0.710
 -0.708  -0.707  -0.706  -0.705  -0.704  -0.701  -0.678  -0.676
 -0.664  -0.659  -0.658  -0.657  -0.648  -0.647  -0.635  -0.633
 -0.631  -0.628  -0.627  -0.624  -0.623  -0.621  -0.620  -0.617
 -0.617  -0.617  -0.615  -0.614  -0.614  -0.612  -0.612  -0.609
 -0.607  -0.605  -0.604  -0.602  -0.567  -0.566  -0.565  -0.564
 -0.561  -0.560  -0.559  -0.559  -0.557  -0.555  -0.555  -0.550
 -0.539  -0.539  -0.536  -0.533  -0.532  -0.531  -0.528  -0.527
 -0.525  -0.523  -0.522  -0.519  -0.518  -0.518  -0.515  -0.512
 -0.508  -0.505  -0.505  -0.504  -0.495  -0.494  -0.491  -0.488
 -0.487  -0.485  -0.484  -0.481  -0.481  -0.481  -0.480  -0.476
 -0.474  -0.473  -0.472  -0.470  -0.469  -0.468  -0.468  -0.467
 -0.466  -0.465  -0.464  -0.464  -0.463  -0.461  -0.460  -0.458
 -0.457  -0.455  -0.454  -0.451  -0.450  -0.448  -0.446  -0.446
 -0.444  -0.443  -0.442  -0.441  -0.440  -0.439  -0.436  -0.436
 -0.433  -0.432  -0.431  -0.431  -0.429  -0.428  -0.427  -0.426
 -0.425  -0.424  -0.424  -0.423  -0.422  -0.421  -0.420  -0.420
 -0.419  -0.418  -0.417  -0.416  -0.416  -0.415  -0.415  -0.413
 -0.412  -0.410  -0.410  -0.409  -0.404  -0.402  -0.400  -0.397
 -0.396  -0.394  -0.393  -0.391  -0.391  -0.387  -0.384  -0.381
 -0.379  -0.378  -0.375  -0.374  -0.373  -0.372  -0.371  -0.367
 -0.366  -0.365  -0.363  -0.363  -0.362  -0.360  -0.359  -0.359
 -0.358  -0.357  -0.357  -0.356  -0.355  -0.354  -0.351  -0.350
 -0.349  -0.348  -0.348  -0.347  -0.347  -0.346  -0.345  -0.344
 -0.343  -0.343  -0.341  -0.341  -0.339  -0.338  -0.336  -0.336
 -0.333  -0.332  -0.331  -0.331  -0.330  -0.328  -0.326  -0.325
 -0.316  -0.311  -0.294  -0.294  -0.286  -0.284  -0.276  -0.273
 -0.271  -0.270  -0.269  -0.268  -0.266  -0.265  -0.265  -0.264
 -0.263  -0.262  -0.261  -0.260  -0.260  -0.257  -0.256  -0.254
 -0.251  -0.250  -0.249  -0.247  -0.222  -0.218  -0.218  -0.214
 -0.212  -0.211  -0.208  -0.202  -0.200  -0.199

          Ground-State Mulliken Net Atomic Charges

     Atom                 Charge (a.u.)
  ----------------------------------------
      1 O                    -0.471625
      2 C                    -0.090512
      3 H                     0.121812
      4 H                     0.124573
      5 H                     0.137796
      6 O                    -0.489421
      7 C                     0.609058
      8 C                    -0.254148
      9 H                     0.135987
     10 H                     0.139665
     11 C                    -0.191197
     12 H                     0.105569
     13 H                     0.115514
     14 C                    -0.179758
     15 H                     0.121918
     16 H                     0.112404
     17 C                     0.015929
     18 C                     0.080630
     19 C                    -0.082585
     20 H                     0.092355
     21 C                    -0.099872
     22 H                     0.082203
     23 C                    -0.086620
     24 H                     0.091379
     25 C                    -0.099365
     26 H                     0.097928
     27 C                    -0.104067
     28 H                     0.097131
     29 C                    -0.021172
     30 C                    -0.016129
     31 C                    -0.012858
     32 C                     0.000866
     33 C                     0.006361
     34 C                     0.068684
     35 C                    -0.016945
     36 C                    -0.010990
     37 C                    -0.013680
     38 C                    -0.004673
     39 C                    -0.072213
     40 C                     0.021992
     41 C                    -0.023503
     42 C                     0.016750
     43 C                    -0.013416
     44 C                     0.003338
     45 C                    -0.106294
     46 C                     0.016797
     47 C                    -0.011219
     48 C                     0.003249
     49 C                    -0.036868
     50 C                    -0.001089
     51 C                    -0.006336
     52 C                    -0.002884
     53 C                     0.025765
     54 C                     0.006463
     55 C                    -0.018381
     56 C                    -0.015711
     57 C                    -0.012089
     58 C                     0.016327
     59 C                     0.016117
     60 C                     0.006113
     61 C                    -0.011635
     62 C                     0.006024
     63 C                     0.008312
     64 C                     0.022149
     65 C                     0.018528
     66 C                     0.004069
     67 C                     0.005122
     68 C                     0.031820
     69 C                    -0.012589
     70 C                     0.035887
     71 C                    -0.015802
     72 C                     0.019970
     73 C                    -0.001281
     74 C                    -0.025175
     75 C                    -0.020525
     76 C                     0.007273
     77 C                     0.044242
     78 C                     0.014788
     79 C                     0.000808
     80 C                    -0.043662
     81 C                    -0.005226
     82 C                    -0.019914
     83 C                    -0.004345
     84 C                    -0.005894
     85 C                    -0.024686
     86 C                    -0.007413
     87 C                     0.028990
     88 C                     0.034852
     89 O                    -0.477485
     90 C                    -0.086050
     91 H                     0.134152
     92 H                     0.111055
     93 H                     0.133035
     94 O                    -0.461903
     95 C                     0.581040
     96 C                    -0.255866
     97 H                     0.129934
     98 H                     0.146097
     99 C                    -0.176556
    100 H                     0.113232
    101 H                     0.128422
    102 C                    -0.202499
    103 H                     0.100292
    104 H                     0.109555
    105 C                     0.026181
    106 C                     0.110833
    107 C                    -0.122653
    108 H                     0.081688
    109 C                    -0.067301
    110 H                     0.088443
    111 C                    -0.093665
    112 H                     0.082610
    113 C                    -0.068759
    114 H                     0.098498
    115 C                    -0.140196
    116 H                     0.078126
    117 C                    -0.002910
    118 C                     0.021474
    119 C                    -0.000236
    120 C                    -0.005791
    121 C                     0.001139
    122 C                    -0.009005
    123 C                    -0.039109
    124 C                     0.012914
    125 C                     0.020284
    126 C                     0.001899
    127 C                    -0.063554
    128 C                     0.023131
    129 C                     0.000558
    130 C                     0.056550
    131 C                     0.006690
    132 C                    -0.031509
    133 C                    -0.093965
    134 C                    -0.001600
    135 C                    -0.001804
    136 C                     0.010021
    137 C                     0.011569
    138 C                     0.000142
    139 C                    -0.042046
    140 C                    -0.006540
    141 C                     0.001484
    142 C                     0.041233
    143 C                    -0.021701
    144 C                     0.010113
    145 C                    -0.003580
    146 C                    -0.012832
    147 C                    -0.031807
    148 C                    -0.002284
    149 C                     0.029754
    150 C                    -0.014963
    151 C                    -0.033165
    152 C                    -0.019597
    153 C                    -0.000026
    154 C                    -0.000714
    155 C                    -0.003295
    156 C                     0.033570
    157 C                    -0.013511
    158 C                     0.040087
    159 C                    -0.000713
    160 C                    -0.009736
    161 C                    -0.012583
    162 C                     0.002103
    163 C                     0.024595
    164 C                    -0.010089
    165 C                     0.009743
    166 C                    -0.021760
    167 C                     0.004299
    168 C                    -0.000694
    169 C                     0.023071
    170 C                    -0.007871
    171 C                     0.005458
    172 C                     0.010379
    173 C                     0.027195
    174 C                     0.015345
    175 C                    -0.010878
    176 C                    -0.024926
  ----------------------------------------
  Sum of atomic charges =     0.000000

                    Cartesian Multipole Moments
 -----------------------------------------------------------------
    Charge (ESU x 10^10)
                 0.0000
    Dipole Moment (Debye)
         X       1.2073      Y      -0.1509      Z      -1.9329
       Tot       2.2840
    Quadrupole Moments (Debye-Ang)
        XX    -827.2513     XY      19.1236     YY    -804.2787
        XZ       0.3592     YZ     -10.0349     ZZ    -789.7943

 Total job time:  983.27s(wall), 8485.32s(cpu)
        *  Thank you very much for using Q-Chem.  Have a nice day.  *
