 Q-Chem 4.4, Q-Chem, Inc., Pleasanton, CA (2016)
 Q-Chem 4.4.2 for Intel X86 Linux

User input:
--------------------------------------------------------------
$comment
SP
$end

$rem
MEM_STATIC 5000
MEM_TOTAL 20000
JOBTYPE SP
EXCHANGE B3LYP
BASIS 6-31g(d,p)
$end

$molecule
0 1
O          10.668000    -21.206000    -11.818000
C          11.288000    -19.944000    -12.117000
H          10.506000    -19.187000    -12.247000
H          11.891000    -20.067000    -13.026000
H          11.824000    -19.507000    -11.265000
O          12.338000    -22.531000    -12.671000
C          11.362000    -22.357000    -11.934000
C          10.741000    -23.535000    -11.176000
H          11.279000    -24.359000    -11.662000
H           9.664000    -23.569000    -11.386000
C          10.886000    -23.641000     -9.654000
H          10.316000    -22.775000     -9.295000
H          10.248000    -24.479000     -9.348000
C          12.312000    -23.742000     -9.130000
H          12.782000    -24.708000     -9.353000
H          12.965000    -23.075000     -9.707000
C          12.350000    -23.414000     -7.646000
C          11.691000    -22.108000     -7.254000
C          10.452000    -22.120000     -6.583000
H           9.981000    -23.096000     -6.517000
C           9.821000    -21.021000     -6.075000
H           8.897000    -21.108000     -5.512000
C          10.418000    -19.738000     -6.298000
H           9.896000    -18.826000     -6.021000
C          11.638000    -19.652000     -7.012000
H          12.134000    -18.686000     -6.994000
C          12.296000    -20.853000     -7.412000
H          13.345000    -20.807000     -7.689000
C          15.689000    -22.915000     -3.227000
C          13.580000    -23.685000     -2.312000
C          14.791000    -27.884000     -1.293000
C          17.120000    -26.195000     -6.884000
C          13.362000    -29.269000     -4.059000
C          14.307000    -22.842000     -3.157000
C          16.154000    -28.800000     -6.300000
C          16.048000    -25.883000     -1.025000
C          11.434000    -25.814000     -4.889000
C          15.913000    -26.682000     -7.534000
C          12.455000    -24.534000     -6.654000
C          11.828000    -26.697000     -5.924000
C          14.085000    -27.911000     -7.220000
C          15.462000    -29.539000     -5.319000
C          12.506000    -23.683000     -4.187000
C          15.436000    -29.391000     -2.896000
C          13.703000    -23.714000     -6.866000
C          14.939000    -24.423000     -7.360000
C          14.032000    -29.312000     -2.846000
C          18.247000    -26.581000     -3.625000
C          17.032000    -27.767000     -2.152000
C          17.146000    -26.440000     -1.683000
C          15.664000    -24.520000     -1.316000
C          16.081000    -23.991000     -6.669000
C          11.925000    -24.529000     -5.214000
C          14.241000    -24.479000     -1.284000
C          15.446000    -27.998000     -7.259000
C          12.524000    -24.173000     -2.944000
C          12.245000    -28.051000     -5.622000
C          17.871000    -24.755000     -5.257000
C          14.902000    -26.587000     -0.807000
C          12.533000    -25.995000     -6.967000
C          17.501000    -24.370000     -2.949000
C          13.363000    -28.622000     -6.221000
C          11.413000    -26.275000     -3.548000
C          17.317000    -28.672000     -4.348000
C          17.294000    -28.241000     -5.652000
C          11.890000    -27.526000     -3.306000
C          17.214000    -24.845000     -6.444000
C          14.810000    -25.780000     -7.726000
C          18.318000    -26.101000     -4.933000
C          14.301000    -22.887000     -5.677000
C          12.608000    -26.211000     -1.623000
C          13.672000    -26.589000     -7.497000
C          12.309000    -28.403000     -4.271000
C          17.473000    -23.860000     -4.270000
C          13.673000    -28.404000     -1.905000
C          16.416000    -23.784000     -2.335000
C          15.880000    -28.537000     -1.878000
C          11.943000    -25.432000     -2.579000
C          12.559000    -27.517000     -2.069000
C          13.653000    -22.919000     -4.421000
C          15.714000    -23.043000     -5.646000
C          17.808000    -27.847000     -3.335000
C          13.783000    -25.731000     -0.980000
C          14.026000    -29.397000     -5.281000
C          17.838000    -26.937000     -5.953000
C          16.151000    -29.415000     -4.154000
C          16.386000    -22.922000     -4.419000
C          17.831000    -25.695000     -2.630000
O          18.366000    -12.780000     -9.016000
C          19.522000    -12.842000     -9.882000
H          20.341000    -13.431000     -9.452000
H          19.926000    -11.825000     -9.971000
H          19.321000    -13.358000    -10.829000
O          17.905000    -10.544000     -9.330000
C          17.604000    -11.654000     -8.851000
C          16.340000    -11.895000     -7.948000
H          15.518000    -11.245000     -8.272000
H          16.768000    -11.570000     -6.992000
C          15.774000    -13.296000     -7.719000
H          16.567000    -13.967000     -7.367000
H          14.926000    -13.312000     -7.024000
C          15.271000    -13.984000     -8.972000
H          14.342000    -13.468000     -9.244000
H          15.926000    -13.771000     -9.825000
C          15.022000    -15.521000     -8.674000
C          13.722000    -15.807000     -7.949000
C          12.522000    -15.993000     -8.694000
H          12.587000    -15.954000     -9.777000
C          11.329000    -15.974000     -7.960000
H          10.350000    -15.972000     -8.430000
C          11.317000    -16.027000     -6.531000
H          10.349000    -15.951000     -6.046000
C          12.501000    -15.918000     -5.809000
H          12.545000    -15.901000     -4.724000
C          13.692000    -15.859000     -6.563000
H          14.569000    -15.699000     -5.944000
C          17.509000    -20.201000     -7.464000
C          15.657000    -20.955000     -8.771000
C          18.108000    -22.158000    -12.528000
C          20.287000    -16.630000     -9.885000
C          17.403000    -19.162000    -14.242000
C          16.133000    -20.049000     -7.782000
C          20.061000    -17.185000    -12.755000
C          18.514000    -22.402000    -10.124000
C          14.597000    -18.076000    -11.410000
C          19.373000    -15.954000    -10.736000
C          15.332000    -16.500000     -9.853000
C          15.347000    -17.064000    -12.063000
C          17.938000    -16.070000    -12.534000
C          19.495000    -18.106000    -13.656000
C          14.725000    -18.873000     -9.097000
C          19.290000    -20.561000    -13.633000
C          16.269000    -16.402000     -8.684000
C          17.699000    -15.951000     -8.914000
C          17.984000    -20.433000    -14.016000
C          21.070000    -20.008000    -10.047000
C          20.246000    -21.456000    -11.586000
C          19.777000    -21.837000    -10.315000
C          17.788000    -22.038000     -9.004000
C          18.570000    -16.827000     -8.197000
C          14.590000    -17.824000    -10.047000
C          16.460000    -21.926000     -9.400000
C          19.289000    -16.128000    -12.140000
C          14.765000    -20.202000     -9.595000
C          16.064000    -17.512000    -13.204000
C          20.422000    -18.391000     -8.483000
C          17.631000    -22.507000    -11.186000
C          15.869000    -16.169000    -11.129000
C          19.593000    -20.667000     -8.222000
C          17.348000    -17.000000    -13.448000
C          14.636000    -19.392000    -11.932000
C          20.953000    -19.230000    -12.340000
C          20.901000    -17.906000    -11.899000
C          15.397000    -19.776000    -13.053000
C          19.892000    -17.101000     -8.633000
C          18.075000    -15.681000    -10.221000
C          21.178000    -18.714000     -9.608000
C          16.437000    -17.602000     -7.841000
C          15.484000    -21.445000    -11.595000
C          17.185000    -15.723000    -11.360000
C          16.128000    -18.808000    -13.720000
C          19.583000    -19.344000     -7.773000
C          17.212000    -21.454000    -13.358000
C          18.345000    -21.186000     -8.012000
C          19.350000    -21.502000    -12.669000
C          14.691000    -20.473000    -11.002000
C          15.892000    -21.077000    -12.891000
C          15.612000    -18.764000     -8.040000
C          17.792000    -17.734000     -7.495000
C          20.972000    -20.282000    -11.399000
C          16.326000    -22.213000    -10.789000
C          18.150000    -18.005000    -14.041000
C          21.073000    -17.643000    -10.533000
C          20.105000    -19.376000    -13.449000
C          18.339000    -19.007000     -7.328000
C          20.291000    -20.989000     -9.390000
$end

--------------------------------------------------------------

             Standard Nuclear Orientation (Angstroms)
    I     Atom           X                Y                Z
 ----------------------------------------------------------------
    1      O       1.2783459269    -3.3185812343     5.3769075083
    2      C       2.6091597056    -3.2543757894     4.8372248727
    3      H       3.1060250017    -4.2170538694     5.0041044458
    4      H       3.1391654880    -2.4310161210     5.3334019853
    5      H       2.6356810789    -3.2239609223     3.7406207725
    6      O       1.0581919583    -1.0741323110     5.8083182882
    7      C       0.5725945598    -2.1908742820     5.6007043750
    8      C      -0.9357637801    -2.4206755832     5.7418974358
    9      H      -1.2157538590    -1.4656272010     6.2046113252
   10      H      -1.1077465720    -3.2688416609     6.4173389388
   11      C      -1.8009000315    -2.6753289141     4.5027703449
   12      H      -1.4265830194    -3.6406023558     4.1396299351
   13      H      -2.7959851754    -2.9416150492     4.8793619680
   14      C      -1.8230715718    -1.5573652300     3.4693688624
   15      H      -2.3750128034    -0.6720651619     3.8090594075
   16      H      -0.8181574891    -1.1280860129     3.3688997614
   17      C      -2.3415243927    -2.0820515808     2.1400100299
   18      C      -1.6493302254    -3.3243909900     1.6193940227
   19      C      -2.3131253071    -4.5667261182     1.6579364511
   20      H      -3.2519727915    -4.5629819194     2.2032110444
   21      C      -1.8441052585    -5.7273070114     1.1128693136
   22      H      -2.4358854616    -6.6372647377     1.1222035236
   23      C      -0.5423817807    -5.7131498286     0.5149206858
   24      H      -0.0754871093    -6.6344968113     0.1771543414
   25      C       0.1998713457    -4.5073080264     0.4904698292
   26      H       1.0916582225    -4.5087538073    -0.1293769874
   27      C      -0.4031542631    -3.3093361006     0.9768733449
   28      H       0.0322644464    -2.3543970811     0.6980400317
   29      C      -3.5037986044    -0.6759123318    -3.1133102601
   30      C      -5.1199648431    -2.4006041336    -2.5734483538
   31      C      -8.7805248804     0.1805563139    -2.3006957962
   32      C      -3.8667563541     2.9985754769     0.4287528416
   33      C      -8.7651425589     0.3333524263     1.1033369199
   34      C      -3.8114304587    -1.9098591345    -2.5629549836
   35      C      -6.5212639063     3.1438286291     1.4251102959
   36      C      -7.0018893674     0.3095985734    -3.8741244750
   37      C      -5.9797300787    -2.5899844755     1.3000287438
   38      C      -4.2017459322     2.3593636952     1.6919663155
   39      C      -3.7549322384    -1.7811997163     1.7384438243
   40      C      -6.0483468759    -1.5791845921     2.2898394989
   41      C      -5.8017436898     1.2428878248     2.7615970025
   42      C      -7.8098514625     2.5997555832     1.2494042039
   43      C      -4.3718329217    -2.7970511668    -0.5854258745
   44      C      -8.9915424479     1.8365730002    -0.7291477312
   45      C      -2.6793093834    -1.0113274130     1.0137507096
   46      C      -2.6954211473     0.4931426990     1.1173030787
   47      C      -9.2888600706     0.5867700355    -0.1550817240
   48      C      -5.6535595335     3.2212860944    -2.5373793839
   49      C      -7.6922634341     2.2870602408    -2.6905409325
   50      C      -6.8399727258     1.6755437986    -3.6358103066
   51      C      -5.8327632849    -0.5315714277    -3.9985561131
   52      C      -2.4424367470     1.0892482689    -0.1272554948
   53      C      -4.6471139722    -2.6389281516     0.8313392631
   54      C      -6.1557943278    -1.7760523436    -3.3865494178
   55      C      -5.5270421901     2.4563093372     2.2016342184
   56      C      -5.4293992138    -2.9151922944    -1.3935528521
   57      C      -7.2081920794    -0.7167679500     2.3868221748
   58      C      -3.3901638100     2.5596286218    -1.7769024364
   59      C      -7.9623612030    -0.4252032902    -3.2464174777
   60      C      -4.7535098545    -0.9905582815     2.5234934191
   61      C      -4.4002091713     1.4309318371    -3.5983965858
   62      C      -7.0844042436     0.6559193039     2.5743649022
   63      C      -7.0754766702    -2.7814926570     0.4203088886
   64      C      -7.1839536697     3.5383005905    -0.7160321909
   65      C      -6.1427994385     3.6948976145     0.1661136240
   66      C      -8.1054334430    -1.8958560490     0.4973208675
   67      C      -2.9850798796     2.3680205649    -0.4931924373
   68      C      -3.6306799498     1.0761378347     1.9990363966
   69      C      -4.5481352065     3.4380894354    -1.7143736922
   70      C      -2.5019961560    -1.1918528242    -0.5326077854
   71      C      -7.7679920834    -2.3242170876    -1.6889723767
   72      C      -4.6802559251     0.3908559283     2.6553480460
   73      C      -8.2006534481    -0.8858199162     1.4174703994
   74      C      -3.2871075088     1.5535785242    -2.7312821302
   75      C      -9.1413740568    -0.3787284929    -1.0957657663
   76      C      -4.5119902277     0.0757604890    -3.8189246174
   77      C      -8.7376164463     1.5602440888    -2.0789402776
   78      C      -6.7837730161    -2.9657577283    -0.9255980033
   79      C      -8.6000617649    -1.6726492668    -0.8001121965
   80      C      -3.3539226602    -2.0830668160    -1.2242889635
   81      C      -2.3082694480     0.0765844376    -1.1453090791
   82      C      -6.9396641948     3.3162206550    -2.0720846068
   83      C      -7.4425621727    -1.7073842908    -2.9291686007
   84      C      -8.0573023719     1.2984727288     1.8231070716
   85      C      -4.7949786068     3.6763288745    -0.3534893086
   86      C      -8.1679800547     2.8100758123    -0.0447485354
   87      C      -2.7060312057     0.2563552835    -2.4799333810
   88      C      -5.5663675372     2.2015206703    -3.4863541125
   89      O       8.4464398981    -1.1844837928    -3.6879665080
   90      C       9.1347154670     0.0735065897    -3.5039204849
   91      H       8.6224776240     0.9108996147    -3.9927633164
   92      H      10.1031322425     0.0009881202    -4.0161079705
   93      H       9.1747822045     0.3906967812    -2.4545153968
   94      O      10.3173026140    -2.4654615841    -4.1000121322
   95      C       9.0895165041    -2.3731676136    -3.9098409162
   96      C       8.1100576106    -3.6018974623    -3.9553297576
   97      H       8.6143624875    -4.4980265881    -3.5735062631
   98      H       7.9644281048    -3.6441398929    -5.0414939368
   99      C       6.7168453504    -3.5397936092    -3.3302691929
  100      H       6.1736320493    -2.6671482834    -3.7128962240
  101      H       6.1301676925    -4.4525012121    -3.4888855774
  102      C       6.7090885213    -3.3206655012    -1.8308410673
  103      H       7.0514466126    -4.2644940973    -1.3889592749
  104      H       7.4939618308    -2.6148273737    -1.5345820156
  105      C       5.2442763891    -2.9473120176    -1.3532360071
  106      C       4.3149228624    -4.1375483970    -1.2226206037
  107      C       4.2764327908    -4.8753842671    -0.0045328634
  108      H       4.9025837419    -4.5344010029     0.8141858917
  109      C       3.6150513050    -6.1094505493    -0.0494877448
  110      H       3.6346256239    -6.8168534757     0.7742494377
  111      C       2.8051888654    -6.4955780157    -1.1630506791
  112      H       2.3767787654    -7.4924251699    -1.1350232423
  113      C       2.7897342904    -5.7314659641    -2.3253393389
  114      H       2.2338959235    -6.0041319278    -3.2176100277
  115      C       3.5245714663    -4.5275096580    -2.2940098353
  116      H       3.5323642680    -4.0195660862    -3.2530836595
  117      C       1.3957476538     0.8819759219    -1.6308138341
  118      C       1.0418270265    -0.0094277622     0.5570638274
  119      C       2.6593906276     3.6609251722     2.8983575580
  120      C       6.2475004451     2.3792803405    -2.3718538669
  121      C       5.8368006311     2.2308973901     3.4178989053
  122      C       1.3610446477    -0.2729322727    -0.8046257420
  123      C       7.2781442348     3.2289333002     0.2381009654
  124      C       1.2730054626     3.4434987210     0.8898133308
  125      C       4.5343287881    -1.4340194942     2.0231920082
  126      C       7.0327243472     1.5402261631    -1.5375970055
  127      C       5.1547972893    -1.9263661039    -0.1724545150
  128      C       5.8827080797    -1.0508237290     1.8039038611
  129      C       7.5579757871     0.8647774262     0.6009457060
  130      C       6.8782640532     3.3973904405     1.5768003463
  131      C       2.6819890984    -1.6230049219     0.4311228571
  132      C       4.8266951366     4.2851140248     2.6124599518
  133      C       4.8325595492    -1.4936174961    -1.5735346274
  134      C       5.6620151005    -0.4022177707    -2.2231892493
  135      C       4.8239710232     3.2187087901     3.4677268426
  136      C       3.7819977214     4.5662225665    -1.2815341800
  137      C       3.2344697650     4.9216195526     0.8905862401
  138      C       2.1342322401     4.3314394942     0.2411804445
  139      C       0.7962624289     2.3509826154     0.1876049294
  140      C       4.7760355150     0.5245845539    -2.8526204411
  141      C       4.0082269996    -1.9303213990     0.8407270711
  142      C       0.7822732332     1.2763516646     1.0696007468
  143      C       7.6222971497     1.9361221108    -0.3111312256
  144      C       1.8802869886    -0.8707405445     1.3295754344
  145      C       6.3004302407     0.0764498935     2.5598379695
  146      C       4.1023354760     2.8706032237    -2.8636049013
  147      C       1.5452296057     3.0301361488     2.1834838451
  148      C       6.2333775820    -1.2548179785     0.4692569991
  149      C       1.9199162839     3.0799299351    -1.8011705278
  150      C       7.1520291430     1.0202477363     1.9645557327
  151      C       3.7557600810    -0.6815741882     2.9361639846
  152      C       5.6108615440     4.7673149666     0.2969590778
  153      C       6.4361254793     4.0228736370    -0.5485629762
  154      C       4.2251646398     0.4498845528     3.6309146431
  155      C       5.1020906929     1.8969379270    -3.0049038617
  156      C       6.6693403520     0.1667903768    -1.4589572389
  157      C       4.6221432121     3.9723243144    -2.1872170277
  158      C       3.4489713507    -1.0624040571    -1.8539123494
  159      C       2.1132078501     0.8444173969     3.0805726098
  160      C       7.0321428346    -0.2585124207    -0.1252867814
  161      C       5.5408273139     0.8398996560     3.4487225817
  162      C       2.7501025954     2.3696309251    -2.6719724597
  163      C       3.4603780386     2.8192123741     3.6966499435
  164      C       1.0894009553     2.1794797165    -1.1925666396
  165      C       3.5626580761     4.4772910077     2.1839097018
  166      C       2.3952036731    -0.4231900253     2.5917661256
  167      C       3.2017331121     1.3950419551     3.7830178746
  168      C       2.4166346727    -1.2065662542    -0.8619606147
  169      C       3.4799137654     0.0580036538    -2.7006083565
  170      C       4.2593554698     4.9791879517    -0.0510167397
  171      C       1.2602932537     1.6745046336     2.3512469825
  172      C       6.8454233936     2.3099336748     2.4621309477
  173      C       5.9600015481     3.6741151049    -1.8199332953
  174      C       5.8833157475     4.4148863875     1.6280728234
  175      C       2.4889040225     1.0340636918    -2.5873233551
  176      C       2.4497013196     4.1435885674    -1.0642376070
 ----------------------------------------------------------------

   10   -5804.2435678561      3.00E-06 Convergence criterion met
 Total energy in the final basis set = -5804.2435678561

                    Orbital Energies (a.u.)
 --------------------------------------------------------------

 Alpha MOs
 -- Occupied --
-19.198 -19.195 -19.138 -19.135 -10.330 -10.319 -10.246 -10.246
-10.246 -10.246 -10.242 -10.241 -10.240 -10.240 -10.234 -10.234
-10.232 -10.230 -10.229 -10.229 -10.229 -10.229 -10.229 -10.228
-10.227 -10.226 -10.226 -10.226 -10.225 -10.225 -10.225 -10.225
-10.225 -10.225 -10.224 -10.224 -10.224 -10.224 -10.224 -10.223
-10.223 -10.223 -10.223 -10.223 -10.223 -10.222 -10.222 -10.222
-10.221 -10.221 -10.221 -10.221 -10.220 -10.220 -10.220 -10.220
-10.220 -10.220 -10.220 -10.220 -10.220 -10.219 -10.219 -10.219
-10.219 -10.219 -10.218 -10.218 -10.218 -10.218 -10.217 -10.217
-10.217 -10.217 -10.217 -10.217 -10.217 -10.216 -10.216 -10.216
-10.216 -10.216 -10.216 -10.216 -10.215 -10.215 -10.215 -10.215
-10.215 -10.215 -10.215 -10.214 -10.214 -10.213 -10.213 -10.213
-10.213 -10.213 -10.213 -10.213 -10.213 -10.213 -10.213 -10.212
-10.212 -10.212 -10.212 -10.212 -10.212 -10.212 -10.211 -10.211
-10.211 -10.210 -10.210 -10.210 -10.210 -10.210 -10.210 -10.209
-10.209 -10.209 -10.209 -10.209 -10.209 -10.208 -10.208 -10.208
-10.208 -10.208 -10.207 -10.207 -10.207 -10.206 -10.206 -10.205
-10.204 -10.204 -10.202 -10.200 -10.200 -10.199 -10.198 -10.197
-10.197 -10.197 -10.196 -10.193  -1.094  -1.087  -1.006  -1.001
 -0.987  -0.983  -0.970  -0.966  -0.964  -0.963  -0.962  -0.958
 -0.937  -0.931  -0.930  -0.929  -0.928  -0.926  -0.925  -0.925
 -0.922  -0.920  -0.899  -0.898  -0.894  -0.893  -0.891  -0.881
 -0.878  -0.870  -0.861  -0.849  -0.844  -0.840  -0.840  -0.839
 -0.834  -0.833  -0.824  -0.821  -0.810  -0.806  -0.802  -0.800
 -0.799  -0.798  -0.796  -0.795  -0.791  -0.787  -0.786  -0.784
 -0.774  -0.773  -0.771  -0.770  -0.768  -0.766  -0.763  -0.761
 -0.759  -0.746  -0.746  -0.743  -0.736  -0.730  -0.720  -0.717
 -0.717  -0.716  -0.715  -0.715  -0.713  -0.712  -0.711  -0.711
 -0.709  -0.707  -0.707  -0.707  -0.705  -0.702  -0.677  -0.667
 -0.662  -0.660  -0.656  -0.654  -0.652  -0.645  -0.636  -0.633
 -0.630  -0.629  -0.628  -0.627  -0.624  -0.623  -0.621  -0.618
 -0.618  -0.616  -0.615  -0.614  -0.613  -0.612  -0.611  -0.606
 -0.606  -0.603  -0.603  -0.602  -0.573  -0.569  -0.565  -0.564
 -0.564  -0.562  -0.561  -0.561  -0.559  -0.558  -0.555  -0.552
 -0.542  -0.537  -0.534  -0.533  -0.531  -0.530  -0.528  -0.528
 -0.524  -0.523  -0.520  -0.520  -0.518  -0.518  -0.515  -0.513
 -0.513  -0.504  -0.502  -0.497  -0.495  -0.491  -0.490  -0.489
 -0.485  -0.483  -0.481  -0.481  -0.479  -0.478  -0.478  -0.477
 -0.475  -0.474  -0.473  -0.471  -0.471  -0.470  -0.469  -0.468
 -0.467  -0.466  -0.465  -0.464  -0.464  -0.462  -0.460  -0.460
 -0.457  -0.456  -0.454  -0.453  -0.451  -0.450  -0.449  -0.447
 -0.445  -0.443  -0.442  -0.441  -0.440  -0.438  -0.438  -0.436
 -0.435  -0.434  -0.431  -0.430  -0.430  -0.429  -0.428  -0.427
 -0.425  -0.424  -0.424  -0.422  -0.421  -0.420  -0.420  -0.419
 -0.419  -0.418  -0.418  -0.417  -0.416  -0.414  -0.414  -0.412
 -0.412  -0.412  -0.410  -0.406  -0.405  -0.399  -0.397  -0.397
 -0.394  -0.394  -0.393  -0.393  -0.392  -0.389  -0.386  -0.384
 -0.382  -0.380  -0.376  -0.376  -0.373  -0.372  -0.369  -0.369
 -0.367  -0.365  -0.365  -0.364  -0.361  -0.361  -0.360  -0.359
 -0.359  -0.358  -0.357  -0.356  -0.355  -0.353  -0.352  -0.352
 -0.351  -0.350  -0.349  -0.347  -0.347  -0.346  -0.345  -0.345
 -0.343  -0.341  -0.341  -0.339  -0.338  -0.337  -0.336  -0.335
 -0.334  -0.333  -0.332  -0.331  -0.329  -0.327  -0.324  -0.324
 -0.310  -0.306  -0.299  -0.297  -0.291  -0.284  -0.276  -0.275
 -0.273  -0.271  -0.270  -0.269  -0.268  -0.267  -0.267  -0.265
 -0.264  -0.263  -0.262  -0.261  -0.260  -0.258  -0.257  -0.254
 -0.252  -0.249  -0.248  -0.241  -0.225  -0.220  -0.217  -0.214
 -0.212  -0.211  -0.207  -0.203  -0.201  -0.197

          Ground-State Mulliken Net Atomic Charges

     Atom                 Charge (a.u.)
  ----------------------------------------
      1 O                    -0.454457
      2 C                    -0.092355
      3 H                     0.117108
      4 H                     0.140848
      5 H                     0.127866
      6 O                    -0.484008
      7 C                     0.599009
      8 C                    -0.256037
      9 H                     0.129394
     10 H                     0.120791
     11 C                    -0.193679
     12 H                     0.126822
     13 H                     0.107119
     14 C                    -0.182041
     15 H                     0.112912
     16 H                     0.122654
     17 C                     0.015712
     18 C                     0.092956
     19 C                    -0.105524
     20 H                     0.082027
     21 C                    -0.080985
     22 H                     0.091598
     23 C                    -0.101045
     24 H                     0.082975
     25 C                    -0.101532
     26 H                     0.109097
     27 C                    -0.112996
     28 H                     0.089708
     29 C                     0.026312
     30 C                     0.004480
     31 C                     0.016402
     32 C                    -0.004124
     33 C                     0.009138
     34 C                    -0.037962
     35 C                    -0.006822
     36 C                    -0.004055
     37 C                     0.016838
     38 C                    -0.016053
     39 C                    -0.082167
     40 C                    -0.021145
     41 C                     0.003033
     42 C                    -0.028072
     43 C                    -0.001986
     44 C                    -0.015412
     45 C                    -0.098192
     46 C                     0.046331
     47 C                    -0.015991
     48 C                     0.008846
     49 C                    -0.001339
     50 C                    -0.004523
     51 C                    -0.028423
     52 C                     0.016380
     53 C                     0.008283
     54 C                    -0.012256
     55 C                    -0.005160
     56 C                     0.051899
     57 C                    -0.030432
     58 C                     0.015072
     59 C                     0.013065
     60 C                     0.027792
     61 C                     0.014353
     62 C                     0.005481
     63 C                    -0.033570
     64 C                    -0.003025
     65 C                     0.004619
     66 C                     0.031987
     67 C                    -0.020819
     68 C                    -0.009712
     69 C                    -0.019404
     70 C                     0.016254
     71 C                    -0.001438
     72 C                     0.015494
     73 C                     0.019441
     74 C                    -0.014440
     75 C                     0.022772
     76 C                    -0.011706
     77 C                    -0.021946
     78 C                    -0.001092
     79 C                    -0.025325
     80 C                     0.013281
     81 C                     0.004489
     82 C                    -0.005492
     83 C                    -0.005863
     84 C                    -0.000067
     85 C                    -0.003668
     86 C                     0.035354
     87 C                    -0.013859
     88 C                     0.019063
     89 O                    -0.463883
     90 C                    -0.092138
     91 H                     0.125562
     92 H                     0.138609
     93 H                     0.128610
     94 O                    -0.478641
     95 C                     0.585813
     96 C                    -0.256542
     97 H                     0.135071
     98 H                     0.142641
     99 C                    -0.180552
    100 H                     0.113591
    101 H                     0.108958
    102 C                    -0.181649
    103 H                     0.101936
    104 H                     0.114742
    105 C                     0.008070
    106 C                     0.088549
    107 C                    -0.096412
    108 H                     0.101087
    109 C                    -0.094337
    110 H                     0.094775
    111 C                    -0.100056
    112 H                     0.091518
    113 C                    -0.078807
    114 H                     0.102485
    115 C                    -0.117475
    116 H                     0.092671
    117 C                    -0.013250
    118 C                    -0.007718
    119 C                    -0.018034
    120 C                    -0.041138
    121 C                     0.001881
    122 C                    -0.016016
    123 C                    -0.016587
    124 C                     0.002353
    125 C                    -0.010021
    126 C                     0.003447
    127 C                    -0.121235
    128 C                    -0.026235
    129 C                    -0.006606
    130 C                     0.015444
    131 C                     0.013568
    132 C                     0.015905
    133 C                    -0.083926
    134 C                     0.025899
    135 C                     0.014772
    136 C                     0.009772
    137 C                    -0.018745
    138 C                     0.005948
    139 C                     0.008649
    140 C                     0.011795
    141 C                     0.027971
    142 C                    -0.005823
    143 C                    -0.021783
    144 C                    -0.028987
    145 C                     0.028157
    146 C                    -0.006617
    147 C                    -0.014593
    148 C                     0.076145
    149 C                    -0.015548
    150 C                    -0.009514
    151 C                    -0.008894
    152 C                    -0.000753
    153 C                     0.028017
    154 C                    -0.006240
    155 C                     0.009949
    156 C                     0.023672
    157 C                    -0.005827
    158 C                     0.044273
    159 C                     0.024873
    160 C                    -0.023126
    161 C                    -0.013625
    162 C                     0.012064
    163 C                    -0.020036
    164 C                     0.002696
    165 C                     0.026334
    166 C                     0.000627
    167 C                     0.021048
    168 C                     0.023137
    169 C                    -0.000782
    170 C                    -0.000318
    171 C                     0.002788
    172 C                    -0.003802
    173 C                    -0.007975
    174 C                    -0.030879
    175 C                    -0.005006
    176 C                     0.029398
  ----------------------------------------
  Sum of atomic charges =     0.000000

                    Cartesian Multipole Moments
 -----------------------------------------------------------------
    Charge (ESU x 10^10)
                 0.0000
    Dipole Moment (Debye)
         X       0.8131      Y      -4.1971      Z      -0.0572
       Tot       4.2755
    Quadrupole Moments (Debye-Ang)
        XX    -852.3443     XY       4.3755     YY    -779.4491
        XZ       2.2579     YZ      -8.5490     ZZ    -817.8417

 Total job time:  943.22s(wall), 8115.81s(cpu)
        *  Thank you very much for using Q-Chem.  Have a nice day.  *
