 Q-Chem 4.4, Q-Chem, Inc., Pleasanton, CA (2016)
 Q-Chem 4.4.2 for Intel X86 Linux

User input:
--------------------------------------------------------------
$comment
SP
$end

$rem
MEM_STATIC 5000
MEM_TOTAL 20000
JOBTYPE SP
EXCHANGE B3LYP
BASIS 6-31g(d,p)
$end

$molecule
0 1
O          -7.460000     33.374000    -14.429000
C          -6.867000     33.576000    -15.742000
H          -7.486000     33.112000    -16.520000
H          -5.808000     33.289000    -15.729000
H          -6.945000     34.635000    -16.015000
O          -7.779000     31.050000    -14.600000
C          -7.992000     32.101000    -14.004000
C          -8.694000     32.139000    -12.739000
H          -9.774000     32.170000    -12.930000
H          -8.444000     33.152000    -12.402000
C          -8.351000     31.112000    -11.692000
H          -8.368000     30.142000    -12.205000
H          -7.315000     31.224000    -11.348000
C          -9.311000     31.080000    -10.488000
H          -8.834000     30.990000     -9.504000
H          -9.856000     32.028000    -10.401000
C         -10.330000     29.887000    -10.642000
C         -11.229000     30.093000    -11.783000
C         -10.910000     29.329000    -12.929000
H         -10.144000     28.559000    -12.936000
C         -11.619000     29.566000    -14.115000
H         -11.380000     28.909000    -14.947000
C         -12.692000     30.526000    -14.112000
H         -13.264000     30.623000    -15.031000
C         -12.943000     31.253000    -12.968000
H         -13.729000     32.002000    -12.943000
C         -12.241000     31.037000    -11.760000
H         -12.381000     31.743000    -10.947000
C         -14.040000     27.115000     -7.627000
C         -13.432000     25.559000     -9.370000
C         -11.160000     22.706000     -6.887000
C          -9.912000     28.811000     -5.256000
C          -8.004000     24.006000     -7.703000
C         -13.673000     26.850000     -8.962000
C          -8.046000     26.666000     -5.253000
C         -13.275000     23.819000     -6.330000
C          -9.697000     26.149000    -10.638000
C          -8.857000     28.807000     -6.193000
C         -10.057000     28.463000    -10.164000
C          -8.560000     26.637000    -10.030000
C          -7.602000     27.503000     -7.518000
C          -7.767000     25.397000     -5.678000
C         -12.057000     26.995000    -10.558000
C          -9.357000     23.473000     -5.719000
C         -10.899000     29.359000     -9.352000
C         -10.359000     29.683000     -7.985000
C          -8.946000     23.191000     -7.037000
C         -11.836000     26.134000     -4.042000
C         -11.522000     23.975000     -4.746000
C         -12.785000     24.290000     -5.086000
C         -13.992000     24.702000     -7.158000
C         -11.380000     29.575000     -7.024000
C         -10.634000     27.223000    -10.716000
C         -13.602000     24.521000     -8.507000
C          -7.933000     27.763000     -6.176000
C         -12.413000     25.635000    -10.316000
C          -7.779000     25.710000     -9.193000
C         -12.114000     28.308000     -5.016000
C         -12.500000     23.035000     -7.211000
C          -8.743000     27.939000     -9.580000
C         -13.646000     26.502000     -5.481000
C          -7.312000     26.162000     -7.949000
C         -10.086000     24.860000    -10.489000
C          -9.582000     25.350000     -4.234000
C          -9.101000     26.681000     -4.324000
C          -9.406000     23.969000     -9.696000
C         -11.201000     29.184000     -5.652000
C          -9.087000     29.232000     -7.479000
C         -11.380000     27.479000     -4.174000
C         -12.302000     28.899000     -9.059000
C         -11.584000     23.470000     -9.509000
C          -8.273000     28.460000     -8.329000
C          -8.211000     24.367000     -9.035000
C         -13.251000     27.804000     -5.707000
C         -10.052000     22.688000     -7.768000
C         -14.181000     26.007000     -6.721000
C         -10.743000     23.140000     -5.580000
C         -11.495000     24.570000    -10.407000
C         -10.314000     23.095000     -9.105000
C         -12.801000     27.735000     -9.684000
C         -12.542000     29.056000     -7.691000
C         -10.881000     25.076000     -4.065000
C         -12.651000     23.501000     -8.527000
C          -7.440000     25.102000     -7.050000
C         -10.031000     27.743000     -4.320000
C          -8.701000     24.560000     -5.009000
C         -13.466000     28.222000     -7.003000
C         -12.954000     25.638000     -4.619000
O         -10.726000     11.463000     -7.314000
C         -11.291000     10.339000     -8.063000
H         -10.550000      9.936000     -8.765000
H         -12.086000     10.672000     -8.743000
H         -11.694000      9.621000     -7.339000
O         -12.591000     12.194000     -6.366000
C         -11.448000     12.324000     -6.579000
C         -10.588000     13.200000     -5.715000
H          -9.566000     13.266000     -6.108000
H         -10.559000     12.567000     -4.820000
C         -11.250000     14.583000     -5.477000
H         -12.329000     14.470000     -5.316000
H         -10.884000     15.154000     -4.614000
C         -11.073000     15.489000     -6.696000
H         -10.027000     15.736000     -6.916000
H         -11.444000     14.839000     -7.498000
C         -11.894000     16.739000     -6.559000
C         -11.273000     17.820000     -5.669000
C         -10.322000     18.766000     -6.183000
H         -10.085000     18.774000     -7.243000
C          -9.627000     19.640000     -5.365000
H          -8.956000     20.326000     -5.875000
C          -9.772000     19.615000     -3.962000
H          -9.436000     20.482000     -3.401000
C         -10.761000     18.756000     -3.453000
H         -11.036000     18.811000     -2.404000
C         -11.478000     17.849000     -4.274000
H         -12.219000     17.205000     -3.810000
C         -16.748000     19.192000     -6.290000
C         -15.384000     20.793000     -7.588000
C         -17.353000     19.997000    -11.693000
C         -16.489000     14.517000     -8.288000
C         -14.764000     17.716000    -12.742000
C         -15.494000     19.823000     -6.541000
C         -16.228000     14.864000    -11.108000
C         -18.261000     20.094000     -9.449000
C         -12.518000     18.824000     -9.625000
C         -15.230000     14.481000     -8.929000
C         -12.406000     17.299000     -7.854000
C         -12.439000     17.525000    -10.175000
C         -13.908000     15.235000    -10.567000
C         -16.057000     15.738000    -12.212000
C         -13.466000     19.569000     -7.506000
C         -17.207000     17.844000    -12.443000
C         -13.374000     16.723000     -6.800000
C         -14.189000     15.531000     -7.045000
C         -15.978000     18.481000    -12.772000
C         -19.103000     16.707000     -9.067000
C         -18.868000     18.218000    -10.775000
C         -19.051000     18.910000     -9.642000
C         -17.718000     20.374000     -8.212000
C         -15.468000     15.795000     -6.560000
C         -12.548000     18.750000     -8.220000
C         -16.519000     21.098000     -8.411000
C         -15.127000     14.582000    -10.319000
C         -14.104000     20.634000     -8.190000
C         -13.047000     17.311000    -11.431000
C         -17.846000     15.994000     -7.147000
C         -17.477000     20.611000    -10.440000
C         -12.484000     16.574000     -9.163000
C         -18.641000     18.301000     -7.254000
C         -13.677000     16.118000    -11.659000
C         -13.201000     19.860000    -10.304000
C         -18.079000     15.961000    -11.231000
C         -17.444000     14.924000    -10.523000
C         -13.748000     19.608000    -11.561000
C         -16.652000     15.289000     -7.148000
C         -14.128000     14.975000     -8.311000
C         -18.407000     15.676000     -8.392000
C         -14.309000     17.705000     -6.173000
C         -15.103000     21.013000    -10.412000
C         -13.301000     15.469000     -9.329000
C         -13.683000     18.339000    -12.183000
C         -17.974000     17.256000     -6.525000
C         -16.071000     19.822000    -12.255000
C         -17.843000     19.471000     -7.139000
C         -18.051000     18.741000    -11.818000
C         -14.001000     20.763000     -9.575000
C         -14.946000     20.352000    -11.635000
C         -14.336000     19.053000     -6.543000
C         -15.550000     17.064000     -6.004000
C         -18.881000     16.816000    -10.462000
C         -16.360000     21.158000     -9.798000
C         -14.792000     16.358000    -12.489000
C         -17.618000     14.809000     -9.088000
C         -17.205000     16.448000    -12.240000
C         -16.803000     17.785000     -6.010000
C         -19.194000     18.045000     -8.542000
$end

--------------------------------------------------------------

             Standard Nuclear Orientation (Angstroms)
    I     Atom           X                Y                Z
 ----------------------------------------------------------------
    1      O     -12.6944757236    -3.3373346850    -3.4241583128
    2      C     -13.2117221389    -4.0862156331    -4.5590836281
    3      H     -12.6273464772    -5.0015169693    -4.7155110875
    4      H     -13.3243879396    -3.4276517871    -5.4294967932
    5      H     -14.1917558152    -4.5041069776    -4.3002500571
    6      O     -10.4360345334    -3.3224081561    -4.0808154449
    7      C     -11.2829988138    -3.1153221188    -3.2177089156
    8      C     -10.9538174132    -2.5022691188    -1.9487413728
    9      H     -10.6115812973    -3.2795105881    -1.2540384583
   10      H     -11.9548026987    -2.2334496558    -1.5909669265
   11      C     -10.0300075953    -1.3126962825    -1.9398595111
   12      H      -9.1682979857    -1.5962623903    -2.5574393125
   13      H     -10.4757038077    -0.4578629990    -2.4640645699
   14      C      -9.5485237882    -0.8865418692    -0.5402860905
   15      H      -9.5489283125     0.1936374657    -0.3476791310
   16      H     -10.2257114722    -1.2654474556     0.2350495769
   17      C      -8.0878090950    -1.4222178573    -0.2859441534
   18      C      -8.0575027018    -2.8875595733    -0.2198141453
   19      C      -7.5640667141    -3.5191424194    -1.3844587411
   20      H      -7.1245357125    -2.9748000547    -2.2152468541
   21      C      -7.6348116427    -4.9164318598    -1.4740320345
   22      H      -7.1841668915    -5.3559425522    -2.3598896187
   23      C      -8.1409199113    -5.6672999664    -0.3546618961
   24      H      -8.1071198549    -6.7504636849    -0.4369292349
   25      C      -8.6245890532    -4.9930349012     0.7461090988
   26      H      -9.0358280354    -5.5312777192     1.5949902262
   27      C      -8.5688857132    -3.5850373407     0.8608436079
   28      H      -9.1023042810    -3.1112232630     1.6793604686
   29      C      -3.9121429503    -0.7144270698     3.2638661863
   30      C      -2.8397480778    -1.5477723967     1.2677815680
   31      C      -0.7850893448     2.1691371801     0.0720212707
   32      C      -6.7602612659     3.3183226504     2.1851666203
   33      C      -3.1990292996     3.1308508400    -2.2868328433
   34      C      -3.9163040062    -1.5430743393     2.1234866932
   35      C      -5.4376285537     4.6994226489     0.0813140820
   36      C      -1.0098207785     1.2462803646     2.3347793402
   37      C      -4.8422192418    -0.5165495905    -2.0235460914
   38      C      -7.2187286476     3.1672155013     0.8592766213
   39      C      -6.8205432006    -0.6745071081    -0.6930740938
   40      C      -5.6500730177     0.5548465762    -2.3398679697
   41      C      -6.5757744206     3.0053610927    -1.2834970514
   42      C      -4.3966713868     4.6995984072    -0.8048208659
   43      C      -4.7732306111    -1.9260578310     0.0501566570
   44      C      -2.0416878675     4.0335816217    -0.3128541338
   45      C      -7.2783690067    -0.6310658553     0.7067946104
   46      C      -7.6520187033     0.7344362404     1.2177299593
   47      C      -2.0443537082     3.2463104553    -1.4815140518
   48      C      -3.4743409547     3.5823273568     3.3996336735
   49      C      -1.6439044972     3.5059738499     2.0215315304
   50      C      -1.5129908202     2.4626685901     2.8607989158
   51      C      -1.6460536683     0.0399661977     2.6802874307
   52      C      -7.0995862718     0.9405590043     2.4944279717
   53      C      -5.5102827932    -1.2713316809    -1.0128413436
   54      C      -1.7377570656    -0.7989331476     1.5434055656
   55      C      -6.5792799423     3.8610002809    -0.1672559077
   56      C      -3.3604021783    -1.7383166245    -0.0095849436
   57      C      -4.9951567735     1.8114379474    -2.7422630974
   58      C      -5.4805966838     2.3232395187     3.7762923595
   59      C      -0.6380992916     1.0926118048     0.9821333740
   60      C      -6.7539563383     0.6250678942    -1.4986167700
   61      C      -3.2937100928     1.3313002893     4.0180951787
   62      C      -5.4724128734     3.0173950644    -2.2057716742
   63      C      -3.4917506189    -0.4330027304    -2.0891008067
   64      C      -3.5727896320     4.8317942954     1.3597375421
   65      C      -4.9900904203     4.8424863719     1.4062795118
   66      C      -2.8379002468     0.7250322973    -2.4305163390
   67      C      -6.6788606352     2.2065638108     3.0306441302
   68      C      -7.6450849159     1.9364753658     0.4224470764
   69      C      -4.8993948532     3.5427890593     3.4448344436
   70      C      -6.3209879124    -1.1319051492     1.7548592276
   71      C      -1.5752783580    -0.2996437376    -0.8866643418
   72      C      -7.2957705200     1.8284265201    -0.9367383046
   73      C      -3.5782749506     1.8854134536    -2.7892793110
   74      C      -4.6652464109     1.1871853835     4.0386869753
   75      C      -1.2446198760     2.0955955517    -1.2649799708
   76      C      -2.7517224914     0.0958282104     3.5193886696
   77      C      -1.2220684400     3.3998840218     0.6760125639
   78      C      -2.7088756020    -1.1320759820    -1.1019289388
   79      C      -1.6472850830     0.8079749936    -1.7141525760
   80      C      -5.1158337683    -1.7539250640     1.3608837023
   81      C      -6.2591891885    -0.1882851387     2.7841479109
   82      C      -2.8365735377     4.2636176593     2.3221299634
   83      C      -1.1335887339    -0.1230015464     0.4835479820
   84      C      -4.3618765212     3.8225170343    -1.9475612488
   85      C      -5.6422417007     4.1596089486     2.4556303265
   86      C      -3.2241652702     4.8252384402    -0.0111395768
   87      C      -5.0913760277    -0.0420198897     3.5825806873
   88      C      -2.6631290676     2.5479827036     3.7173370141
   89      O       9.4659539389     3.6969271474    -4.3277177456
   90      C      10.6466510576     2.9312741180    -4.7318609780
   91      H      10.6925234725     2.8475319843    -5.8251024777
   92      H      10.5625327788     1.8791239673    -4.4298375092
   93      H      11.5227254327     3.3882775197    -4.2567288069
   94      O       9.5409998218     3.2879248771    -2.1509368061
   95      C       8.9906984320     3.7520350456    -3.0731559405
   96      C       7.9446253126     4.8152767131    -2.9036856322
   97      H       7.4812717463     5.0740840795    -3.8636914758
   98      H       8.6017170148     5.6454384079    -2.6179986439
   99      C       6.9187542755     4.4283622149    -1.8057499391
  100      H       7.4256546092     3.9565017207    -0.9552614173
  101      H       6.3334099615     5.2518672009    -1.3768238708
  102      C       5.9052767834     3.4153569815    -2.3394256554
  103      H       5.2805070792     3.8013576586    -3.1544049767
  104      H       6.5712239405     2.6496149277    -2.7559571559
  105      C       5.0511193665     2.8750783749    -1.2286492897
  106      C       3.9027678431     3.7927859592    -0.7980641433
  107      C       2.6366512632     3.7862043012    -1.4766055848
  108      H       2.4499838652     3.0655468770    -2.2675804007
  109      C       1.6476291201     4.7181027745    -1.2131185150
  110      H       0.7240002356     4.5919053238    -1.7716172948
  111      C       1.8474857966     5.7706657239    -0.2953889543
  112      H       0.9711243208     6.2905685058     0.0801075985
  113      C       3.0459861546     5.7388811146     0.4378706384
  114      H       3.1868009724     6.4197972283     1.2718822889
  115      C       4.0733028307     4.7967256794     0.1775965847
  116      H       4.9789774997     4.8396442803     0.7751117625
  117      C       4.5399349934    -0.0426536167     3.3404224499
  118      C       2.4473531560    -0.5398230515     2.1228737624
  119      C       3.5298196186    -4.8648920462     0.9048234562
  120      C       8.6126552033    -0.8312193865     0.3898590937
  121      C       4.6256770607    -3.8988031435    -2.3924559828
  122      C       3.4809496187     0.3820261311     2.4849254669
  123      C       7.9462013408    -3.0071458307    -1.3312200325
  124      C       3.9650978563    -3.5884549864     2.9174461948
  125      C       3.0661453401    -0.2572885876    -1.8492234809
  126      C       8.1369042072    -0.6220198426    -0.9243534236
  127      C       4.5998563064     1.4560420445    -1.4169749217
  128      C       4.1957269186    -0.4682025838    -2.6712348821
  129      C       6.8161016784    -1.2952543915    -2.5981156295
  130      C       6.9748158851    -3.9261786901    -1.8042125272
  131      C       2.9026991060     0.8017950616     0.3406434449
  132      C       5.4109527210    -5.0754625910    -0.3743259865
  133      C       5.5762805847     1.8351502557    -0.2844606423
  134      C       6.9547014771     1.3427635667    -0.2332240152
  135      C       4.3484507035    -4.7289045179    -1.2549155417
  136      C       7.4480527552    -3.2734115060     2.6069147515
  137      C       5.8082805255    -4.7351167946     1.9510377172
  138      C       5.3317213057    -4.0257200132     2.9833601071
  139      C       3.6197071398    -2.3197706501     3.3352539350
  140      C       7.2119754933     0.9633109616     1.0822940581
  141      C       3.2703873053     0.8698400049    -1.0317472698
  142      C       2.4986984535    -1.8980712483     2.5823348558
  143      C       7.8826852276    -1.6991284354    -1.7776527788
  144      C       2.0817880767    -0.2693632888     0.7740599540
  145      C       4.5014676364    -1.7989826968    -3.0297636874
  146      C       7.8292925734    -0.9012388304     2.5592597639
  147      C       3.1151794919    -4.0136114244     1.9371876692
  148      C       5.1852140949     0.4598967403    -2.3710403242
  149      C       5.9621717511    -1.7761469833     3.8685032702
  150      C       5.8158653394    -2.1715350393    -3.1052383882
  151      C       2.2887856883    -1.3460018426    -1.3896134070
  152      C       7.5811304862    -4.3251240167     0.3344317235
  153      C       8.3792373901    -3.2403634612    -0.0732175219
  154      C       2.6078257788    -2.6371582719    -1.8066152007
  155      C       8.0552115407    -0.1162716090     1.4387915217
  156      C       7.3369377889     0.4365292919    -1.2070041963
  157      C       8.2157420387    -2.1812009713     2.1370942412
  158      C       5.0555482436     1.6636307597     1.1051784804
  159      C       1.8913435174    -2.6891790457     0.3414532359
  160      C       6.4905422002     0.0175411755    -2.2425487225
  161      C       3.7081753235    -2.9185177754    -2.6501421471
  162      C       6.7580788463    -0.6549566469     3.4468172195
  163      C       3.1819508844    -4.5587018514    -0.4275533330
  164      C       4.5987566141    -1.3952118704     3.7463697214
  165      C       4.9363169651    -5.1841926579     0.9181401336
  166      C       1.8020006477    -1.3464813677    -0.0667792926
  167      C       2.3404548855    -3.4905630355    -0.7137157932
  168      C       3.7800984778     1.1549519028     1.3682501732
  169      C       6.1118745720     1.1816801615     1.8997987097
  170      C       7.1432071157    -4.2875430060     1.6657471592
  171      C       2.2627171950    -2.9347596401     1.6755603392
  172      C       5.9197899294    -3.5145873451    -2.6867468310
  173      C       8.6759637756    -2.1655955682     0.8539035211
  174      C       6.7251521249    -4.7089165484    -0.7328687672
  175      C       5.8916658192     0.3549573302     3.0650984417
  176      C       6.2843316032    -3.0951751099     3.4364537002
 ----------------------------------------------------------------

    9   -5804.2617399979      8.62E-06 Convergence criterion met
 Total energy in the final basis set = -5804.2617399979

                    Orbital Energies (a.u.)
 --------------------------------------------------------------

 Alpha MOs
 -- Occupied --
-19.186 -19.182 -19.138 -19.130 -10.318 -10.308 -10.251 -10.244
-10.238 -10.238 -10.235 -10.234 -10.234 -10.233 -10.231 -10.231
-10.231 -10.224 -10.223 -10.222 -10.222 -10.222 -10.221 -10.221
-10.221 -10.221 -10.220 -10.220 -10.220 -10.220 -10.220 -10.219
-10.219 -10.219 -10.219 -10.218 -10.218 -10.218 -10.218 -10.218
-10.218 -10.217 -10.217 -10.217 -10.217 -10.217 -10.217 -10.217
-10.217 -10.217 -10.216 -10.216 -10.216 -10.216 -10.216 -10.216
-10.215 -10.215 -10.215 -10.215 -10.215 -10.215 -10.215 -10.215
-10.215 -10.214 -10.214 -10.214 -10.214 -10.214 -10.214 -10.214
-10.213 -10.213 -10.213 -10.213 -10.213 -10.213 -10.213 -10.212
-10.212 -10.212 -10.212 -10.212 -10.212 -10.212 -10.212 -10.212
-10.212 -10.212 -10.211 -10.211 -10.211 -10.211 -10.211 -10.211
-10.211 -10.210 -10.210 -10.210 -10.210 -10.210 -10.210 -10.210
-10.210 -10.210 -10.210 -10.210 -10.209 -10.209 -10.209 -10.209
-10.209 -10.209 -10.209 -10.208 -10.208 -10.208 -10.208 -10.208
-10.208 -10.207 -10.207 -10.207 -10.207 -10.206 -10.206 -10.206
-10.206 -10.205 -10.205 -10.204 -10.204 -10.203 -10.202 -10.202
-10.201 -10.201 -10.199 -10.198 -10.198 -10.198 -10.197 -10.197
-10.196 -10.196 -10.194 -10.190  -1.104  -1.067  -1.022  -1.000
 -0.981  -0.980  -0.964  -0.963  -0.961  -0.960  -0.959  -0.958
 -0.934  -0.930  -0.927  -0.925  -0.924  -0.923  -0.921  -0.921
 -0.918  -0.916  -0.897  -0.895  -0.890  -0.889  -0.884  -0.882
 -0.875  -0.871  -0.855  -0.847  -0.839  -0.838  -0.836  -0.836
 -0.833  -0.833  -0.822  -0.817  -0.812  -0.803  -0.799  -0.796
 -0.794  -0.794  -0.793  -0.792  -0.789  -0.787  -0.783  -0.782
 -0.769  -0.768  -0.767  -0.765  -0.765  -0.764  -0.763  -0.758
 -0.754  -0.746  -0.744  -0.744  -0.732  -0.729  -0.715  -0.715
 -0.714  -0.713  -0.711  -0.711  -0.710  -0.708  -0.707  -0.706
 -0.705  -0.705  -0.703  -0.703  -0.702  -0.701  -0.673  -0.668
 -0.657  -0.655  -0.655  -0.654  -0.648  -0.643  -0.632  -0.630
 -0.629  -0.626  -0.626  -0.623  -0.620  -0.620  -0.619  -0.613
 -0.612  -0.611  -0.610  -0.610  -0.609  -0.607  -0.607  -0.606
 -0.606  -0.601  -0.601  -0.600  -0.566  -0.562  -0.561  -0.559
 -0.558  -0.557  -0.557  -0.557  -0.553  -0.552  -0.551  -0.550
 -0.537  -0.532  -0.530  -0.529  -0.528  -0.526  -0.524  -0.523
 -0.520  -0.520  -0.518  -0.518  -0.515  -0.515  -0.513  -0.510
 -0.506  -0.505  -0.503  -0.498  -0.494  -0.493  -0.486  -0.485
 -0.483  -0.481  -0.480  -0.479  -0.477  -0.475  -0.475  -0.472
 -0.472  -0.469  -0.469  -0.468  -0.467  -0.466  -0.465  -0.464
 -0.464  -0.463  -0.463  -0.462  -0.460  -0.459  -0.459  -0.456
 -0.455  -0.452  -0.449  -0.447  -0.445  -0.445  -0.444  -0.441
 -0.440  -0.440  -0.438  -0.437  -0.436  -0.435  -0.434  -0.433
 -0.430  -0.429  -0.429  -0.427  -0.427  -0.426  -0.424  -0.423
 -0.422  -0.421  -0.421  -0.419  -0.419  -0.418  -0.418  -0.416
 -0.416  -0.415  -0.414  -0.413  -0.412  -0.412  -0.410  -0.410
 -0.410  -0.409  -0.407  -0.407  -0.402  -0.399  -0.398  -0.396
 -0.392  -0.392  -0.390  -0.389  -0.388  -0.386  -0.384  -0.384
 -0.381  -0.375  -0.374  -0.370  -0.369  -0.368  -0.366  -0.366
 -0.365  -0.363  -0.362  -0.361  -0.359  -0.358  -0.357  -0.355
 -0.354  -0.354  -0.354  -0.352  -0.352  -0.351  -0.349  -0.349
 -0.346  -0.346  -0.345  -0.344  -0.344  -0.343  -0.343  -0.342
 -0.340  -0.340  -0.339  -0.336  -0.336  -0.335  -0.334  -0.332
 -0.332  -0.331  -0.328  -0.326  -0.325  -0.324  -0.323  -0.322
 -0.308  -0.304  -0.302  -0.294  -0.290  -0.278  -0.274  -0.271
 -0.270  -0.268  -0.267  -0.266  -0.265  -0.264  -0.262  -0.262
 -0.261  -0.260  -0.258  -0.257  -0.256  -0.255  -0.253  -0.252
 -0.250  -0.245  -0.243  -0.242  -0.223  -0.215  -0.210  -0.208
 -0.207  -0.207  -0.205  -0.201  -0.198  -0.197

          Ground-State Mulliken Net Atomic Charges

     Atom                 Charge (a.u.)
  ----------------------------------------
      1 O                    -0.509985
      2 C                    -0.073190
      3 H                     0.125901
      4 H                     0.126998
      5 H                     0.121547
      6 O                    -0.461647
      7 C                     0.600855
      8 C                    -0.260695
      9 H                     0.155470
     10 H                     0.126305
     11 C                    -0.184039
     12 H                     0.132864
     13 H                     0.110581
     14 C                    -0.185802
     15 H                     0.109675
     16 H                     0.110608
     17 C                    -0.004153
     18 C                     0.084877
     19 C                    -0.086126
     20 H                     0.104775
     21 C                    -0.101126
     22 H                     0.097617
     23 C                    -0.079467
     24 H                     0.094255
     25 C                    -0.098179
     26 H                     0.088996
     27 C                    -0.105163
     28 H                     0.095490
     29 C                    -0.025105
     30 C                     0.036893
     31 C                    -0.005457
     32 C                    -0.015921
     33 C                     0.005023
     34 C                    -0.016623
     35 C                     0.007786
     36 C                     0.015395
     37 C                     0.040831
     38 C                     0.012886
     39 C                    -0.073291
     40 C                     0.001646
     41 C                    -0.014523
     42 C                     0.002196
     43 C                    -0.015429
     44 C                    -0.012602
     45 C                    -0.090807
     46 C                     0.034189
     47 C                     0.003158
     48 C                     0.011070
     49 C                    -0.003875
     50 C                     0.012174
     51 C                    -0.011275
     52 C                    -0.010195
     53 C                     0.003986
     54 C                     0.008197
     55 C                    -0.001063
     56 C                    -0.001471
     57 C                    -0.037491
     58 C                    -0.012273
     59 C                    -0.008896
     60 C                     0.044638
     61 C                    -0.004148
     62 C                     0.008347
     63 C                    -0.000272
     64 C                     0.014400
     65 C                    -0.002385
     66 C                     0.023454
     67 C                    -0.015082
     68 C                     0.007366
     69 C                     0.009209
     70 C                     0.032861
     71 C                     0.009228
     72 C                    -0.037056
     73 C                    -0.002733
     74 C                     0.012308
     75 C                    -0.008022
     76 C                    -0.002689
     77 C                    -0.000352
     78 C                    -0.037118
     79 C                    -0.004875
     80 C                     0.015343
     81 C                     0.005801
     82 C                     0.003449
     83 C                     0.000908
     84 C                    -0.001386
     85 C                    -0.003837
     86 C                    -0.031071
     87 C                     0.010224
     88 C                    -0.018771
     89 O                    -0.477282
     90 C                    -0.086130
     91 H                     0.130273
     92 H                     0.129562
     93 H                     0.133610
     94 O                    -0.436993
     95 C                     0.570553
     96 C                    -0.252501
     97 H                     0.116407
     98 H                     0.141392
     99 C                    -0.194389
    100 H                     0.128212
    101 H                     0.101026
    102 C                    -0.170313
    103 H                     0.110698
    104 H                     0.104931
    105 C                     0.023059
    106 C                     0.084324
    107 C                    -0.094795
    108 H                     0.089290
    109 C                    -0.095544
    110 H                     0.092265
    111 C                    -0.093641
    112 H                     0.100116
    113 C                    -0.097445
    114 H                     0.089881
    115 C                    -0.110353
    116 H                     0.091719
    117 C                    -0.022703
    118 C                    -0.016463
    119 C                    -0.028307
    120 C                    -0.039401
    121 C                     0.020141
    122 C                    -0.009671
    123 C                     0.010721
    124 C                     0.013845
    125 C                    -0.007736
    126 C                     0.005361
    127 C                    -0.116851
    128 C                     0.005738
    129 C                    -0.012757
    130 C                     0.015899
    131 C                     0.016603
    132 C                     0.008321
    133 C                    -0.090605
    134 C                     0.029304
    135 C                    -0.018298
    136 C                    -0.017772
    137 C                    -0.001107
    138 C                     0.000768
    139 C                     0.012088
    140 C                     0.007462
    141 C                     0.011092
    142 C                    -0.020745
    143 C                    -0.007642
    144 C                    -0.015788
    145 C                    -0.003776
    146 C                     0.021619
    147 C                     0.011246
    148 C                     0.041733
    149 C                    -0.015877
    150 C                    -0.024804
    151 C                     0.002056
    152 C                    -0.038821
    153 C                     0.000243
    154 C                    -0.000019
    155 C                     0.002537
    156 C                     0.042650
    157 C                     0.007213
    158 C                     0.030053
    159 C                     0.001564
    160 C                    -0.004860
    161 C                    -0.003886
    162 C                    -0.021119
    163 C                     0.003269
    164 C                     0.007014
    165 C                     0.003909
    166 C                     0.012229
    167 C                    -0.003310
    168 C                     0.042896
    169 C                    -0.004012
    170 C                     0.011773
    171 C                    -0.003556
    172 C                    -0.015906
    173 C                     0.007256
    174 C                     0.016387
    175 C                     0.013369
    176 C                    -0.002614
  ----------------------------------------
  Sum of atomic charges =     0.000000

                    Cartesian Multipole Moments
 -----------------------------------------------------------------
    Charge (ESU x 10^10)
                 0.0000
    Dipole Moment (Debye)
         X      -3.0313      Y       0.2509      Z      -1.8329
       Tot       3.5512
    Quadrupole Moments (Debye-Ang)
        XX    -749.3912     XY      38.3462     YY    -793.2491
        XZ     -22.0045     YZ      -3.6933     ZZ    -802.7120

 Total job time:  851.17s(wall), 7279.11s(cpu)
        *  Thank you very much for using Q-Chem.  Have a nice day.  *
