 Q-Chem 4.4, Q-Chem, Inc., Pleasanton, CA (2016)
 Q-Chem 4.4.2 for Intel X86 Linux

User input:
--------------------------------------------------------------
$comment
SP
$end

$rem
MEM_STATIC 5000
MEM_TOTAL 20000
JOBTYPE SP
EXCHANGE B3LYP
BASIS 6-31g(d,p)
$end

$molecule
0 1
O          11.189000     10.255000      6.483000
C          11.081000     10.918000      7.721000
H          11.604000     11.881000      7.747000
H          11.560000     10.264000      8.460000
H          10.055000     11.160000      8.025000
O           9.773000      8.581000      7.104000
C          10.517000      9.106000      6.271000
C          10.758000      8.669000      4.898000
H          11.712000      8.146000      4.754000
H          10.790000      9.602000      4.323000
C           9.600000      7.837000      4.469000
H           9.718000      6.815000      4.850000
H           8.653000      8.249000      4.838000
C           9.514000      7.810000      2.944000
H           9.646000      8.814000      2.523000
H          10.417000      7.282000      2.611000
C           8.306000      7.169000      2.394000
C           7.092000      7.985000      2.607000
C           6.887000      9.228000      1.966000
H           7.659000      9.650000      1.330000
C           5.756000     10.031000      2.035000
H           5.740000     10.998000      1.539000
C           4.859000      9.674000      3.038000
H           4.018000     10.337000      3.217000
C           5.091000      8.545000      3.886000
H           4.444000      8.305000      4.725000
C           6.204000      7.699000      3.667000
H           6.301000      6.844000      4.330000
C           5.790000      2.344000      2.267000
C           4.822000      3.418000      0.298000
C           7.179000      0.855000     -2.767000
C          10.738000      2.279000      2.306000
C           9.718000      3.296000     -3.230000
C           5.321000      3.481000      1.618000
C          11.684000      2.148000     -0.388000
C           6.030000      0.268000     -0.688000
C           7.513000      5.988000     -1.178000
C          11.181000      3.417000      1.607000
C           8.241000      6.403000      1.057000
C           8.949000      6.086000     -1.221000
C          11.163000      4.498000     -0.413000
C          11.294000      2.105000     -1.767000
C           5.930000      5.358000      0.524000
C           9.498000      0.859000     -2.753000
C           8.221000      5.660000      2.346000
C           9.363000      4.755000      2.625000
C           9.016000      2.054000     -3.376000
C           8.944000     -0.467000      1.028000
C           8.370000     -0.534000     -1.113000
C           7.202000     -0.441000     -0.282000
C           5.315000      1.067000      0.275000
C           8.908000      3.539000      3.265000
C           7.051000      6.169000      0.190000
C           4.903000      2.217000     -0.397000
C          11.632000      3.390000      0.305000
C           5.196000      4.545000     -0.385000
C           9.696000      5.279000     -2.131000
C           8.956000      1.111000      2.950000
C           6.032000      0.904000     -1.939000
C           9.417000      6.180000      0.097000
C           6.852000      0.332000      2.008000
C          10.835000      4.500000     -1.733000
C           6.823000      5.186000     -2.088000
C          10.593000      0.243000     -0.650000
C          11.212000      1.037000      0.293000
C           7.548000      4.445000     -3.045000
C           9.609000      2.349000      3.073000
C          10.446000      4.630000      1.747000
C           9.641000      0.325000      1.995000
C           7.081000      4.719000      2.681000
C           5.719000      3.269000     -2.327000
C          10.435000      5.289000      0.531000
C           8.963000      4.471000     -3.087000
C           7.533000      1.094000      2.975000
C           7.622000      2.042000     -3.305000
C           5.785000      1.090000      1.595000
C           8.352000      0.124000     -2.380000
C           5.706000      4.449000     -1.701000
C           6.871000      3.266000     -3.158000
C           5.993000      4.696000      1.790000
C           7.527000      3.538000      3.307000
C           9.502000     -0.492000     -0.272000
C           5.298000      2.073000     -1.731000
C          10.837000      3.244000     -2.420000
C          10.793000      1.063000      1.662000
C          10.604000      0.920000     -1.936000
C           6.855000      2.352000      3.151000
C           7.563000     -0.436000      1.051000
O          15.040000      0.349000     -0.922000
C          15.190000      1.063000      0.263000
H          15.632000      0.399000      1.016000
H          14.225000      1.424000      0.639000
H          15.904000      1.883000      0.117000
O          14.556000      2.184000     -2.211000
C          14.765000      1.004000     -2.137000
C          14.720000      0.180000     -3.406000
H          15.550000     -0.529000     -3.515000
H          14.782000      0.960000     -4.174000
C          13.284000     -0.415000     -3.708000
H          12.892000     -1.049000     -2.903000
H          12.471000      0.295000     -3.901000
C          13.384000     -1.489000     -4.842000
H          13.826000     -0.999000     -5.718000
H          14.015000     -2.305000     -4.470000
C          11.997000     -2.086000     -5.248000
C          11.486000     -3.120000     -4.273000
C          10.748000     -2.675000     -3.188000
H          10.534000     -1.620000     -3.050000
C          10.091000     -3.605000     -2.410000
H           9.498000     -3.175000     -1.608000
C          10.123000     -4.945000     -2.748000
H           9.667000     -5.737000     -2.161000
C          10.916000     -5.355000     -3.804000
H          11.098000     -6.415000     -3.951000
C          11.529000     -4.459000     -4.632000
H          12.041000     -4.831000     -5.513000
C           8.869000     -3.952000     -9.451000
C           7.298000     -3.051000     -7.936000
C           5.903000      0.512000    -10.244000
C          12.299000     -0.295000    -10.504000
C           7.906000      2.727000     -8.367000
C           8.484000     -3.719000     -8.113000
C          10.916000      2.207000    -10.301000
C           6.391000     -1.772000    -10.984000
C           8.745000     -0.137000     -5.662000
C          12.423000      0.518000     -9.377000
C          10.896000     -1.171000     -5.815000
C           9.662000      0.830000     -5.986000
C          11.347000      1.938000     -7.923000
C           9.666000      2.813000    -10.076000
C           8.719000     -2.391000     -6.265000
C           7.374000      2.172000    -10.729000
C          11.596000     -2.139000     -6.775000
C          12.279000     -1.476000     -7.890000
C           7.037000      2.289000     -9.366000
C           9.415000     -0.898000    -12.462000
C           7.374000      0.150000    -12.141000
C           7.246000     -1.247000    -11.944000
C           6.760000     -2.887000    -10.249000
C          11.942000     -2.214000     -9.014000
C           9.426000     -1.349000     -5.665000
C           6.446000     -2.634000     -8.959000
C          11.715000      1.734000     -9.272000
C           7.414000     -2.240000     -6.757000
C           9.250000      1.869000     -6.818000
C          11.138000     -2.113000    -11.338000
C           5.800000     -0.865000    -10.064000
C          10.999000      0.324000     -6.148000
C           8.810000     -2.991000    -11.531000
C          10.069000      2.456000     -7.749000
C           7.407000      0.002000     -6.123000
C           9.421000      1.451000    -11.872000
C          10.778000      1.366000    -11.434000
C           6.966000      1.131000     -6.803000
C          11.965000     -1.607000    -10.297000
C          12.412000     -0.100000     -8.066000
C          10.752000     -0.962000    -12.045000
C          10.792000     -3.141000     -7.456000
C           5.888000     -0.658000     -7.674000
C          11.778000      0.798000     -7.206000
C           7.923000      2.123000     -7.104000
C          10.173000     -3.102000    -11.063000
C           6.100000      1.334000     -9.098000
C           8.009000     -3.512000    -10.478000
C           6.696000      1.080000    -11.273000
C           6.668000     -1.081000     -6.602000
C           6.063000      0.753000     -7.824000
C           9.420000     -3.228000     -7.167000
C          11.168000     -3.297000     -8.819000
C           8.749000      0.341000    -12.380000
C           5.796000     -1.414000     -8.840000
C           9.259000      3.011000     -8.762000
C          11.499000      0.135000    -11.569000
C           8.753000      2.393000    -11.065000
C          10.199000     -3.694000     -9.790000
C           8.447000     -1.854000    -12.260000
$end

--------------------------------------------------------------

             Standard Nuclear Orientation (Angstroms)
    I     Atom           X                Y                Z
 ----------------------------------------------------------------
    1      O     -12.7053034971    -0.3571467843     3.6700810108
    2      C     -14.1125903574    -0.3725281718     3.6136531288
    3      H     -14.5898582781    -0.1999378973     4.5852507456
    4      H     -14.3935902745    -1.3803358029     3.2840460518
    5      H     -14.5547532518     0.3872238317     2.9572044499
    6      O     -12.4789166548    -0.5500190655     1.4107620248
    7      C     -11.9825147920    -0.4588620335     2.5369616457
    8      C     -10.5649762234    -0.3559567079     2.8748579322
    9      H     -10.1234862902    -1.2885434163     3.2486890039
   10      H     -10.5367669858     0.3834387520     3.6839540901
   11      C      -9.8421559957     0.1586434385     1.6790541825
   12      H      -9.6497763865    -0.6652579014     0.9806662760
   13      H     -10.4214217504     0.9351464078     1.1650421942
   14      C      -8.5184036341     0.7925478659     2.1028405226
   15      H      -8.6530395506     1.4419339756     2.9762544281
   16      H      -7.9143135007    -0.0334693187     2.5001473580
   17      C      -7.7901835955     1.5003852662     1.0345209121
   18      C      -8.4533608015     2.7628715062     0.6454894384
   19      C      -8.5376724494     3.8775403056     1.5105674774
   20      H      -8.1577342177     3.8129645849     2.5254767918
   21      C      -9.0654210925     5.1284020318     1.2180656626
   22      H      -9.1251683005     5.8915168684     1.9897177975
   23      C      -9.8016357086     5.1789417418     0.0375993240
   24      H     -10.3373335946     6.0980435324    -0.1795887823
   25      C      -9.9516529326     4.0311707767    -0.8036412149
   26      H     -10.5911214895     4.0332326835    -1.6818244038
   27      C      -9.2739413082     2.8261283719    -0.5019364638
   28      H      -9.4099576991     2.0053978862    -1.2004377245
   29      C      -5.3957786754     0.5593995374    -3.7621843047
   30      C      -4.2932048187     2.6358288806    -3.0986836840
   31      C      -0.2267589255     0.6394444826    -2.1001296630
   32      C      -5.1157815477    -3.0459841720    -0.3841286633
   33      C      -0.9115570701     0.4096303376     1.3780319146
   34      C      -5.4348455995     1.8052701204    -3.1455715690
   35      C      -2.6730479150    -2.7627484072     1.0727662887
   36      C      -1.7894192187     0.3228799882    -3.9561713459
   37      C      -4.1607425186     2.7620994385     0.9002494843
   38      C      -5.0604564499    -2.4350805324     0.8822164227
   39      C      -6.2555231381     1.6184444261     0.9374162509
   40      C      -4.0914429765     1.8044192152     1.9733735048
   41      C      -3.8634897391    -1.0170393740     2.2259853635
   42      C      -1.4844044762    -1.9761192565     1.2274639113
   43      C      -5.4013098377     2.8775397010    -1.1606384972
   44      C      -0.1091829339    -1.0286825818    -0.4934246549
   45      C      -6.9943529952     0.7053433510     0.0239903542
   46      C      -6.7147477998    -0.7466677955     0.1444667638
   47      C      -0.2005915913     0.2501156081     0.1428124446
   48      C      -2.7339104375    -2.8567907993    -2.9693040697
   49      C      -0.8865441014    -1.6582492272    -2.7074229507
   50      C      -1.7162452727    -1.0860268098    -3.7309421109
   51      C      -3.0624578068     0.9281457521    -4.2562065242
   52      C      -6.6806305738    -1.3714206916    -1.1608304567
   53      C      -5.4577083891     2.6714296855     0.2465771455
   54      C      -3.0849960671     2.1494898410    -3.5841658681
   55      C      -3.8985149960    -2.2726981291     1.6053056377
   56      C      -4.2500597057     3.2837323138    -1.8925105454
   57      C      -2.8582656968     1.1511121614     2.2730761747
   58      C      -5.1846056112    -2.6916693435    -2.5805366970
   59      C      -1.0305419065     1.1722440215    -3.1363012563
   60      C      -5.2487170107     1.0148561615     1.9255091760
   61      C      -4.0997877626    -1.2693873882    -4.2301746194
   62      C      -2.7448456754    -0.2715869833     2.4331669066
   63      C      -3.0116666922     3.1434606498     0.2062809175
   64      C      -1.5505444379    -2.9825042303    -0.8192282468
   65      C      -2.7280828428    -3.3302435028    -0.1904781347
   66      C      -1.7724174584     2.5623173349     0.5484633019
   67      C      -5.8765068972    -2.4904255005    -1.3743213240
   68      C      -5.8332420590    -1.2582902990     1.1039395580
   69      C      -3.9267099428    -3.2709441495    -2.2956065541
   70      C      -6.8744850147     0.8493656691    -1.4800692321
   71      C      -1.9036969367     2.9172187575    -1.7099767967
   72      C      -5.1168569152    -0.3997526759     1.9180424235
   73      C      -1.6689451752     1.5776005742     1.5605361192
   74      C      -5.2784009413    -1.6894398378    -3.5868077609
   75      C      -0.3349233089     1.2166903837    -0.8552402559
   76      C      -4.1856187603     0.0952262164    -4.3488538095
   77      C      -0.1260745119    -0.7756074268    -1.8820706286
   78      C      -3.0379780683     3.3691583337    -1.1681263246
   79      C      -1.1201883449     2.4086458345    -0.6398637800
   80      C      -6.1563495946     1.9606549217    -1.9570091817
   81      C      -6.7947514459    -0.3966267447    -2.1332908351
   82      C      -1.5686250298    -2.7708464722    -2.1713614080
   83      C      -1.8397700927     2.2966047975    -2.9644187728
   84      C      -1.5203471046    -0.7361637845     1.8549968228
   85      C      -3.9454802958    -3.5420064336    -0.9140096838
   86      C      -0.7816041405    -2.1023491910     0.0446605921
   87      C      -6.1016362631    -0.5413710994    -3.3085169475
   88      C      -2.8477481248    -1.8561270937    -3.9150123382
   89      O      -1.1168476055    -6.0091880639     2.4230118784
   90      C      -2.4894441840    -6.1598274715     2.5956600805
   91      H      -2.7795857882    -7.1522609442     2.2293778783
   92      H      -3.0501071474    -5.4026567188     2.0341696597
   93      H      -2.7355961850    -6.1409578741     3.6645684633
   94      O      -0.9560803910    -4.1013212398     3.6868156940
   95      C      -0.4143007575    -4.9638013633     3.0510800058
   96      C       1.0920400535    -4.9199277218     2.9083408566
   97      H       1.5898957222    -5.8847729676     3.0654248623
   98      H       1.3653648941    -4.2163558028     3.7035440296
   99      C       1.5703128742    -4.1173158460     1.6299065463
  100      H       1.1728851580    -4.5135907858     0.6872176355
  101      H       1.3333421911    -3.0476924982     1.5844226016
  102      C       3.0942612062    -4.3744807140     1.3831684017
  103      H       3.6282076269    -4.0701975998     2.2915477313
  104      H       3.2198768809    -5.4438568639     1.1756681553
  105      C       3.6660043985    -3.5681237854     0.1715941259
  106      C       3.3164877679    -4.1763107645    -1.1658843687
  107      C       2.1150571475    -3.8067236493    -1.7488627806
  108      H       1.4530748585    -3.0948144375    -1.2663384567
  109      C       1.8748015413    -4.1738739421    -3.0562689555
  110      H       0.9331894001    -3.8080097304    -3.4553465847
  111      C       2.8423162256    -4.8431953784    -3.7820734406
  112      H       2.7087412436    -5.2010632880    -4.7988611684
  113      C       4.0042514527    -5.2431655792    -3.1480266234
  114      H       4.6746936791    -5.9315275402    -3.6529999214
  115      C       4.3022327014    -4.8448563045    -1.8765212569
  116      H       5.2781868193    -5.0884969088    -1.4705140946
  117      C       8.0516675732    -0.7836628109    -1.8144281801
  118      C       6.2027026248     0.2825638910    -2.8241589559
  119      C       6.3210035079     4.2388003638    -0.7500191649
  120      C       7.3143897142    -0.7210456789     3.2550746016
  121      C       3.7016407328     3.3609098859     1.4430631321
  122      C       6.7587790158    -0.8879177070    -2.3714991763
  123      C       5.8019171801     1.6437952781     3.8328774071
  124      C       8.1360440567     2.8499030710    -1.6326244652
  125      C       2.8577217244     0.0559817588    -0.6990602962
  126      C       5.9405193955    -0.7732835699     3.4921938757
  127      C       3.6320457828    -2.0287467049     0.1805393200
  128      C       2.7026252193     0.0829030845     0.6633545878
  129      C       3.9111212900     0.2618414659     3.1785834646
  130      C       5.2320112276     2.8057942417     3.2803137329
  131      C       4.5103463038    -0.9992808615    -1.9639926270
  132      C       5.9875069274     4.3316478671     1.4938224899
  133      C       4.9866793890    -2.7223463627     0.3608482430
  134      C       5.6533586493    -2.3987145910     1.6257926054
  135      C       4.7341516529     4.1160623756     0.8874806295
  136      C       9.1424922919     1.7548960404     1.5107745793
  137      C       8.2224982219     3.7040033024     0.6612936833
  138      C       8.7482635630     2.9103133586    -0.3877197005
  139      C       8.0842038323     1.6554350454    -2.3327456882
  140      C       6.9748120949    -2.1512305125     1.2880035855
  141      C       3.5087994301    -1.1342627898    -1.0025891016
  142      C       6.8266748785     1.5302947545    -2.8119803259
  143      C       5.1979387084     0.3993498929     3.7460633007
  144      C       4.7845433803     0.2148677082    -2.6109464229
  145      C       2.8739098807     1.3015860261     1.3167782273
  146      C       8.8823956847    -0.6196436521     1.5581138167
  147      C       6.8527846438     3.4453043515    -1.7632866034
  148      C       3.1728281954    -1.1078880596     1.3196888110
  149      C       9.3584250779     0.6173946178    -0.5563244859
  150      C       3.4278822154     1.4125999408     2.5669308432
  151      C       3.1093509577     1.2749207556    -1.3867785897
  152      C       7.4521425055     2.8845888188     2.8269997978
  153      C       7.1942550266     1.6921698807     3.5700671730
  154      C       3.1026311528     2.5079994945    -0.7456907114
  155      C       7.7770677376    -1.3214178600     2.1143593475
  156      C       5.1203346099    -1.6288800248     2.6579171688
  157      C       8.8910118865     0.5971025259     2.2603249668
  158      C       6.0324413308    -2.4633141758    -0.6156072282
  159      C       4.6926640041     2.5808763322    -2.3543331510
  160      C       3.8909019528    -0.9846940187     2.5113575180
  161      C       2.9173931714     2.5118247383     0.6529465746
  162      C       9.0880905140    -0.6059645699     0.1643873299
  163      C       4.9303651193     4.1320409263    -0.4627278587
  164      C       8.6670623141     0.4846840067    -1.7917419953
  165      C       6.9675678018     4.3952441700     0.5020966242
  166      C       4.0253688384     1.3624774236    -2.4363956971
  167      C       4.1219934797     3.3308181894    -1.2791734590
  168      C       5.7491080387    -1.6400304878    -1.7180591386
  169      C       7.3076339745    -2.2983340968    -0.0072107334
  170      C       8.4105570682     2.9195687713     1.8160764927
  171      C       6.0733019228     2.6582060870    -2.5199080475
  172      C       3.9761799997     2.7063011019     2.6934252920
  173      C       7.9709909832     0.5130721729     3.3254514556
  174      C       6.2443439350     3.5991166990     2.7024625684
  175      C       8.2896927598    -1.4584113421    -0.6150769262
  176      C       9.3943625199     1.8179925267     0.1600917069
 ----------------------------------------------------------------

    9   -5804.2566002521      9.45E-06 Convergence criterion met
 Total energy in the final basis set = -5804.2566002521

                    Orbital Energies (a.u.)
 --------------------------------------------------------------

 Alpha MOs
 -- Occupied --
-19.196 -19.184 -19.138 -19.136 -10.319 -10.317 -10.245 -10.241
-10.240 -10.239 -10.237 -10.237 -10.237 -10.234 -10.231 -10.228
-10.226 -10.226 -10.226 -10.224 -10.224 -10.224 -10.223 -10.223
-10.223 -10.222 -10.222 -10.220 -10.220 -10.220 -10.220 -10.220
-10.219 -10.219 -10.219 -10.219 -10.219 -10.219 -10.218 -10.218
-10.218 -10.217 -10.217 -10.217 -10.217 -10.217 -10.217 -10.217
-10.217 -10.216 -10.216 -10.216 -10.216 -10.216 -10.216 -10.216
-10.216 -10.216 -10.216 -10.215 -10.215 -10.215 -10.215 -10.215
-10.215 -10.215 -10.215 -10.214 -10.214 -10.214 -10.214 -10.214
-10.214 -10.213 -10.213 -10.213 -10.213 -10.213 -10.213 -10.212
-10.212 -10.212 -10.212 -10.212 -10.212 -10.212 -10.211 -10.211
-10.211 -10.211 -10.211 -10.211 -10.211 -10.211 -10.210 -10.210
-10.210 -10.210 -10.210 -10.210 -10.210 -10.210 -10.210 -10.210
-10.210 -10.210 -10.210 -10.210 -10.210 -10.210 -10.209 -10.209
-10.209 -10.209 -10.208 -10.207 -10.207 -10.207 -10.207 -10.207
-10.207 -10.207 -10.206 -10.206 -10.206 -10.206 -10.206 -10.206
-10.205 -10.204 -10.204 -10.204 -10.202 -10.201 -10.200 -10.199
-10.199 -10.199 -10.198 -10.197 -10.197 -10.196 -10.193 -10.192
-10.191 -10.191 -10.190 -10.189  -1.105  -1.091  -1.020  -1.009
 -0.983  -0.983  -0.967  -0.966  -0.964  -0.961  -0.960  -0.960
 -0.936  -0.930  -0.928  -0.927  -0.925  -0.925  -0.923  -0.922
 -0.920  -0.918  -0.897  -0.894  -0.893  -0.889  -0.884  -0.883
 -0.876  -0.874  -0.857  -0.851  -0.845  -0.841  -0.839  -0.839
 -0.838  -0.835  -0.828  -0.820  -0.814  -0.801  -0.799  -0.797
 -0.796  -0.795  -0.794  -0.793  -0.791  -0.790  -0.788  -0.781
 -0.773  -0.770  -0.770  -0.769  -0.768  -0.766  -0.766  -0.762
 -0.758  -0.754  -0.746  -0.740  -0.733  -0.730  -0.720  -0.717
 -0.716  -0.713  -0.713  -0.711  -0.711  -0.711  -0.710  -0.709
 -0.708  -0.706  -0.704  -0.703  -0.702  -0.700  -0.673  -0.673
 -0.662  -0.659  -0.657  -0.656  -0.647  -0.647  -0.634  -0.632
 -0.627  -0.626  -0.624  -0.622  -0.621  -0.620  -0.618  -0.617
 -0.615  -0.615  -0.614  -0.611  -0.611  -0.610  -0.609  -0.608
 -0.605  -0.604  -0.602  -0.601  -0.567  -0.566  -0.566  -0.562
 -0.561  -0.561  -0.560  -0.559  -0.556  -0.555  -0.554  -0.552
 -0.538  -0.535  -0.535  -0.534  -0.528  -0.526  -0.525  -0.523
 -0.522  -0.522  -0.521  -0.517  -0.516  -0.514  -0.514  -0.513
 -0.512  -0.508  -0.506  -0.499  -0.498  -0.491  -0.487  -0.485
 -0.484  -0.484  -0.483  -0.482  -0.480  -0.479  -0.477  -0.477
 -0.476  -0.473  -0.473  -0.471  -0.470  -0.468  -0.466  -0.465
 -0.465  -0.464  -0.463  -0.462  -0.462  -0.460  -0.460  -0.460
 -0.457  -0.455  -0.454  -0.453  -0.449  -0.448  -0.446  -0.444
 -0.443  -0.441  -0.441  -0.440  -0.438  -0.437  -0.434  -0.433
 -0.431  -0.430  -0.429  -0.428  -0.427  -0.426  -0.424  -0.424
 -0.423  -0.422  -0.421  -0.421  -0.420  -0.420  -0.418  -0.418
 -0.417  -0.416  -0.416  -0.415  -0.415  -0.414  -0.413  -0.412
 -0.412  -0.409  -0.408  -0.407  -0.403  -0.400  -0.399  -0.398
 -0.396  -0.395  -0.392  -0.389  -0.388  -0.384  -0.383  -0.382
 -0.380  -0.375  -0.374  -0.373  -0.370  -0.369  -0.367  -0.365
 -0.362  -0.362  -0.362  -0.361  -0.361  -0.359  -0.358  -0.357
 -0.356  -0.355  -0.354  -0.353  -0.353  -0.352  -0.352  -0.351
 -0.350  -0.348  -0.348  -0.347  -0.346  -0.345  -0.344  -0.343
 -0.342  -0.341  -0.340  -0.340  -0.338  -0.337  -0.335  -0.334
 -0.333  -0.333  -0.330  -0.328  -0.326  -0.326  -0.324  -0.321
 -0.305  -0.304  -0.300  -0.295  -0.288  -0.287  -0.274  -0.273
 -0.271  -0.270  -0.267  -0.267  -0.266  -0.265  -0.264  -0.262
 -0.262  -0.261  -0.259  -0.257  -0.256  -0.255  -0.254  -0.253
 -0.249  -0.245  -0.245  -0.241  -0.224  -0.220  -0.214  -0.211
 -0.208  -0.208  -0.204  -0.202  -0.199  -0.198

          Ground-State Mulliken Net Atomic Charges

     Atom                 Charge (a.u.)
  ----------------------------------------
      1 O                    -0.455577
      2 C                    -0.084139
      3 H                     0.119919
      4 H                     0.122609
      5 H                     0.127799
      6 O                    -0.490003
      7 C                     0.615510
      8 C                    -0.267979
      9 H                     0.143406
     10 H                     0.135996
     11 C                    -0.175809
     12 H                     0.115809
     13 H                     0.128349
     14 C                    -0.191037
     15 H                     0.103021
     16 H                     0.098177
     17 C                     0.029750
     18 C                     0.101420
     19 C                    -0.118405
     20 H                     0.077765
     21 C                    -0.075845
     22 H                     0.098506
     23 C                    -0.096017
     24 H                     0.085769
     25 C                    -0.086708
     26 H                     0.092097
     27 C                    -0.114038
     28 H                     0.099788
     29 C                     0.009411
     30 C                     0.000264
     31 C                     0.004599
     32 C                    -0.000557
     33 C                    -0.010571
     34 C                    -0.000729
     35 C                    -0.026289
     36 C                    -0.025906
     37 C                    -0.013147
     38 C                    -0.002238
     39 C                    -0.098329
     40 C                     0.004612
     41 C                     0.017033
     42 C                     0.029313
     43 C                    -0.012357
     44 C                     0.018154
     45 C                    -0.072694
     46 C                     0.014008
     47 C                    -0.031866
     48 C                    -0.004183
     49 C                    -0.014409
     50 C                    -0.000664
     51 C                    -0.015781
     52 C                    -0.005463
     53 C                     0.060762
     54 C                     0.025180
     55 C                    -0.010749
     56 C                    -0.013327
     57 C                    -0.021573
     58 C                    -0.020139
     59 C                     0.005826
     60 C                     0.005656
     61 C                     0.018986
     62 C                    -0.014355
     63 C                     0.002073
     64 C                     0.003787
     65 C                     0.026547
     66 C                     0.003162
     67 C                     0.032194
     68 C                    -0.011022
     69 C                    -0.012071
     70 C                     0.005883
     71 C                    -0.009237
     72 C                     0.016686
     73 C                     0.005322
     74 C                    -0.030441
     75 C                     0.028617
     76 C                    -0.001009
     77 C                    -0.010431
     78 C                     0.023185
     79 C                    -0.004896
     80 C                     0.006445
     81 C                     0.025988
     82 C                    -0.004803
     83 C                    -0.003533
     84 C                     0.018884
     85 C                    -0.010569
     86 C                    -0.020816
     87 C                    -0.010895
     88 C                     0.018753
     89 O                    -0.477735
     90 C                    -0.075969
     91 H                     0.116628
     92 H                     0.115971
     93 H                     0.116977
     94 O                    -0.447656
     95 C                     0.589806
     96 C                    -0.250476
     97 H                     0.121775
     98 H                     0.149393
     99 C                    -0.200532
    100 H                     0.118474
    101 H                     0.124044
    102 C                    -0.194212
    103 H                     0.106467
    104 H                     0.117488
    105 C                     0.006097
    106 C                     0.059114
    107 C                    -0.080765
    108 H                     0.096141
    109 C                    -0.098396
    110 H                     0.086842
    111 C                    -0.075749
    112 H                     0.088963
    113 C                    -0.096551
    114 H                     0.086064
    115 C                    -0.085767
    116 H                     0.093535
    117 C                    -0.017428
    118 C                     0.023177
    119 C                    -0.013324
    120 C                    -0.024703
    121 C                    -0.012475
    122 C                    -0.028177
    123 C                     0.011030
    124 C                    -0.010695
    125 C                     0.024049
    126 C                    -0.006901
    127 C                    -0.072197
    128 C                    -0.003831
    129 C                    -0.039487
    130 C                     0.008342
    131 C                     0.003565
    132 C                    -0.006686
    133 C                    -0.104915
    134 C                     0.056699
    135 C                     0.046353
    136 C                     0.034513
    137 C                    -0.016316
    138 C                     0.020195
    139 C                    -0.020033
    140 C                     0.037699
    141 C                     0.035759
    142 C                     0.005050
    143 C                     0.010722
    144 C                     0.002356
    145 C                     0.041104
    146 C                    -0.034968
    147 C                     0.015528
    148 C                    -0.002612
    149 C                    -0.020987
    150 C                     0.028560
    151 C                     0.031580
    152 C                     0.011738
    153 C                    -0.012772
    154 C                    -0.021377
    155 C                     0.021283
    156 C                    -0.006636
    157 C                     0.008101
    158 C                     0.006703
    159 C                    -0.014442
    160 C                     0.006632
    161 C                    -0.027560
    162 C                    -0.008317
    163 C                    -0.008217
    164 C                     0.013520
    165 C                    -0.016043
    166 C                    -0.035705
    167 C                    -0.005187
    168 C                     0.016577
    169 C                    -0.028018
    170 C                    -0.012376
    171 C                     0.033062
    172 C                    -0.034711
    173 C                    -0.015294
    174 C                    -0.015243
    175 C                     0.010314
    176 C                    -0.002957
  ----------------------------------------
  Sum of atomic charges =     0.000000

                    Cartesian Multipole Moments
 -----------------------------------------------------------------
    Charge (ESU x 10^10)
                 0.0000
    Dipole Moment (Debye)
         X      -4.0079      Y      -1.6549      Z       1.3971
       Tot       4.5556
    Quadrupole Moments (Debye-Ang)
        XX    -780.6683     XY     -22.0696     YY    -784.8478
        XZ     -33.3754     YZ       2.3247     ZZ    -803.6168

 Total job time:  883.99s(wall), 7552.08s(cpu)
        *  Thank you very much for using Q-Chem.  Have a nice day.  *
