 Q-Chem 4.4, Q-Chem, Inc., Pleasanton, CA (2016)
 Q-Chem 4.4.2 for Intel X86 Linux

User input:
--------------------------------------------------------------
$comment
SP
$end

$rem
MEM_STATIC 5000
MEM_TOTAL 20000
JOBTYPE SP
EXCHANGE B3LYP
BASIS 6-31g(d,p)
$end

$molecule
0 1
O          11.189000     10.255000      6.483000
C          11.081000     10.918000      7.721000
H          11.604000     11.881000      7.747000
H          11.560000     10.264000      8.460000
H          10.055000     11.160000      8.025000
O           9.773000      8.581000      7.104000
C          10.517000      9.106000      6.271000
C          10.758000      8.669000      4.898000
H          11.712000      8.146000      4.754000
H          10.790000      9.602000      4.323000
C           9.600000      7.837000      4.469000
H           9.718000      6.815000      4.850000
H           8.653000      8.249000      4.838000
C           9.514000      7.810000      2.944000
H           9.646000      8.814000      2.523000
H          10.417000      7.282000      2.611000
C           8.306000      7.169000      2.394000
C           7.092000      7.985000      2.607000
C           6.887000      9.228000      1.966000
H           7.659000      9.650000      1.330000
C           5.756000     10.031000      2.035000
H           5.740000     10.998000      1.539000
C           4.859000      9.674000      3.038000
H           4.018000     10.337000      3.217000
C           5.091000      8.545000      3.886000
H           4.444000      8.305000      4.725000
C           6.204000      7.699000      3.667000
H           6.301000      6.844000      4.330000
C           5.790000      2.344000      2.267000
C           4.822000      3.418000      0.298000
C           7.179000      0.855000     -2.767000
C          10.738000      2.279000      2.306000
C           9.718000      3.296000     -3.230000
C           5.321000      3.481000      1.618000
C          11.684000      2.148000     -0.388000
C           6.030000      0.268000     -0.688000
C           7.513000      5.988000     -1.178000
C          11.181000      3.417000      1.607000
C           8.241000      6.403000      1.057000
C           8.949000      6.086000     -1.221000
C          11.163000      4.498000     -0.413000
C          11.294000      2.105000     -1.767000
C           5.930000      5.358000      0.524000
C           9.498000      0.859000     -2.753000
C           8.221000      5.660000      2.346000
C           9.363000      4.755000      2.625000
C           9.016000      2.054000     -3.376000
C           8.944000     -0.467000      1.028000
C           8.370000     -0.534000     -1.113000
C           7.202000     -0.441000     -0.282000
C           5.315000      1.067000      0.275000
C           8.908000      3.539000      3.265000
C           7.051000      6.169000      0.190000
C           4.903000      2.217000     -0.397000
C          11.632000      3.390000      0.305000
C           5.196000      4.545000     -0.385000
C           9.696000      5.279000     -2.131000
C           8.956000      1.111000      2.950000
C           6.032000      0.904000     -1.939000
C           9.417000      6.180000      0.097000
C           6.852000      0.332000      2.008000
C          10.835000      4.500000     -1.733000
C           6.823000      5.186000     -2.088000
C          10.593000      0.243000     -0.650000
C          11.212000      1.037000      0.293000
C           7.548000      4.445000     -3.045000
C           9.609000      2.349000      3.073000
C          10.446000      4.630000      1.747000
C           9.641000      0.325000      1.995000
C           7.081000      4.719000      2.681000
C           5.719000      3.269000     -2.327000
C          10.435000      5.289000      0.531000
C           8.963000      4.471000     -3.087000
C           7.533000      1.094000      2.975000
C           7.622000      2.042000     -3.305000
C           5.785000      1.090000      1.595000
C           8.352000      0.124000     -2.380000
C           5.706000      4.449000     -1.701000
C           6.871000      3.266000     -3.158000
C           5.993000      4.696000      1.790000
C           7.527000      3.538000      3.307000
C           9.502000     -0.492000     -0.272000
C           5.298000      2.073000     -1.731000
C          10.837000      3.244000     -2.420000
C          10.793000      1.063000      1.662000
C          10.604000      0.920000     -1.936000
C           6.855000      2.352000      3.151000
C           7.563000     -0.436000      1.051000
O          22.074000      5.768000      5.055000
C          22.128000      6.382000      6.394000
H          23.136000      6.791000      6.530000
H          21.938000      5.651000      7.190000
H          21.353000      7.148000      6.519000
O          23.563000      4.140000      5.518000
C          22.801000      4.658000      4.748000
C          22.611000      4.265000      3.297000
H          23.001000      3.245000      3.198000
H          23.213000      4.896000      2.631000
C          21.071000      4.274000      2.818000
H          20.544000      5.216000      3.013000
H          21.082000      4.060000      1.742000
C          20.268000      3.183000      3.499000
H          20.665000      2.211000      3.180000
H          20.450000      3.121000      4.579000
C          18.758000      3.316000      3.212000
C          18.424000      3.077000      1.759000
C          18.691000      1.751000      1.267000
H          18.952000      0.880000      1.860000
C          18.736000      1.565000     -0.091000
H          18.851000      0.552000     -0.467000
C          18.341000      2.593000     -1.004000
H          18.232000      2.254000     -2.030000
C          17.894000      3.841000     -0.549000
H          17.420000      4.492000     -1.277000
C          17.900000      4.093000      0.862000
H          17.575000      5.098000      1.117000
C          14.144000      5.945000      4.151000
C          13.329000      3.652000      3.888000
C          12.299000      2.992000      8.323000
C          17.784000      6.377000      7.659000
C          15.387000      1.325000      9.023000
C          14.233000      4.694000      3.574000
C          17.250000      4.401000      9.559000
C          12.016000      4.909000      6.864000
C          16.203000      1.145000      4.984000
C          18.516000      5.153000      7.659000
C          17.832000      2.754000      4.264000
C          17.219000      1.310000      5.977000
C          18.342000      2.961000      7.954000
C          16.390000      3.350000      9.872000
C          15.331000      2.803000      3.501000
C          13.962000      3.149000      9.849000
C          17.910000      4.218000      4.054000
C          18.349000      5.069000      5.187000
C          14.110000      1.908000      9.276000
C          14.408000      6.963000      8.446000
C          12.968000      5.265000      9.049000
C          12.524000      5.800000      7.809000
C          12.283000      5.136000      5.484000
C          17.534000      6.237000      5.266000
C          16.453000      2.079000      3.988000
C          12.352000      3.856000      4.881000
C          18.288000      4.212000      8.615000
C          14.041000      2.489000      3.858000
C          16.952000      1.077000      7.377000
C          16.017000      7.432000      6.681000
C          11.853000      3.573000      7.097000
C          18.179000      2.280000      5.605000
C          13.686000      7.022000      6.104000
C          17.514000      1.872000      8.398000
C          14.908000      0.886000      5.467000
C          15.207000      5.267000     10.082000
C          16.505000      5.593000      9.640000
C          14.626000      0.577000      6.830000
C          17.323000      6.894000      6.470000
C          18.762000      4.514000      6.444000
C          15.750000      7.206000      8.014000
C          16.617000      4.935000      3.622000
C          12.883000      1.734000      5.869000
C          18.692000      3.158000      6.634000
C          15.687000      0.687000      7.803000
C          15.004000      7.381000      5.695000
C          13.151000      1.831000      8.279000
C          13.140000      6.201000      5.117000
C          12.876000      3.875000      9.322000
C          13.836000      1.532000      4.853000
C          13.429000      1.228000      7.073000
C          15.453000      4.210000      3.281000
C          16.560000      6.150000      4.278000
C          14.146000      5.923000      9.413000
C          12.087000      2.900000      5.894000
C          16.504000      2.084000      9.341000
C          16.794000      6.554000      8.622000
C          15.131000      3.879000     10.258000
C          15.286000      6.688000      4.482000
C          13.409000      6.828000      7.494000
$end

--------------------------------------------------------------

             Standard Nuclear Orientation (Angstroms)
    I     Atom           X                Y                Z
 ----------------------------------------------------------------
    1      O       0.9749632677     6.3152843763    -2.8930888253
    2      C       1.5695805942     7.5798213516    -2.7163023074
    3      H       2.0850610263     7.9481765070    -3.6108236340
    4      H       2.3244488157     7.4546664106    -1.9303072636
    5      H       0.8703012254     8.3845701902    -2.4573743809
    6      O      -0.0039126991     6.3391220907    -0.8353700386
    7      C       0.2245090327     5.7782411723    -1.9106774866
    8      C      -0.3141661305     4.5028217063    -2.3768461839
    9      H       0.3908537441     3.6647640503    -2.3062250712
   10      H      -0.5321888469     4.6770830497    -3.4371466504
   11      C      -1.5725622124     4.2325578080    -1.6280967424
   12      H      -1.3336632871     3.8097798412    -0.6443513006
   13      H      -2.1605975117     5.1479903434    -1.4905767079
   14      C      -2.4444673759     3.2521377195    -2.4105977557
   15      H      -2.4927353019     3.5260989208    -3.4713976744
   16      H      -1.8819124447     2.3095757461    -2.4244135282
   17      C      -3.7973077673     3.0406295185    -1.8649493739
   18      C      -4.6699939639     4.2180063321    -2.0578836657
   19      C      -5.1056837014     4.6429039641    -3.3336545914
   20      H      -4.7565803744     4.1364764848    -4.2282059177
   21      C      -5.9838285523     5.6806837273    -3.6175661693
   22      H      -6.1993596439     5.9489439318    -4.6485578333
   23      C      -6.2435380144     6.5236124358    -2.5404918044
   24      H      -6.8258603681     7.4192417003    -2.7345018481
   25      C      -5.6699199114     6.2919473114    -1.2501962794
   26      H      -5.7958105718     6.9865216291    -0.4244553643
   27      C      -4.8880429212     5.1374951800    -1.0086292109
   28      H      -4.5096880789     5.0108558421     0.0017237430
   29      C      -6.2895421087     1.1505623910     2.5896464821
   30      C      -8.0783225390     0.9405097751     0.9393121309
   31      C      -7.8280372230    -3.6825118855     0.6500527565
   32      C      -2.0650762412    -1.0719488681     1.2847396511
   33      C      -5.7660457557    -3.6380635889    -2.2422796134
   34      C      -6.9602142510     1.6236835431     1.4670217661
   35      C      -2.6765783493    -3.3445870195    -0.3372634329
   36      C      -7.7532363254    -2.1594713224     2.5636261857
   37      C      -6.4089425604     0.3295694283    -2.6474523414
   38      C      -1.9862322948    -1.0381835589    -0.1197309025
   39      C      -4.5969089593     1.7257009863    -1.9657009929
   40      C      -5.2043884209    -0.2801902834    -3.1482431350
   41      C      -2.9933471281    -1.7015685934    -2.0677876287
   42      C      -3.7316446610    -4.1030542287    -0.9431945927
   43      C      -6.9028491972     1.7724191057    -0.7836299135
   44      C      -5.8483314276    -4.7060318409     0.0088469670
   45      C      -3.9841816524     2.1307757678    -0.6716957113
   46      C      -2.9208206551     1.2549005376    -0.1211178601
   47      C      -6.5130282624    -4.1748006049    -1.1420003260
   48      C      -4.4216622707    -2.7785367943     3.2662279644
   49      C      -6.0329533550    -3.9703215106     2.3168933387
   50      C      -6.5863509795    -2.8462495664     3.0194937468
   51      C      -7.8105162964    -0.7221686559     2.6523676617
   52      C      -3.0453370224     1.1403492759     1.3164685487
   53      C      -6.0760092865     1.5449121306    -1.9196291822
   54      C      -8.4439656876    -0.2817160237     1.4910876147
   55      C      -2.2848865199    -2.1117261841    -0.9306845914
   56      C      -8.0504470295     1.0089132693    -0.4285467499
   57      C      -5.0926643006    -1.7017965318    -3.2107842853
   58      C      -3.3131772930    -0.5623819341     3.0559170291
   59      C      -8.3677535467    -2.5965020559     1.3800410714
   60      C      -4.1118504154     0.4343293515    -2.6375510578
   61      C      -5.6410997676    -0.7153967995     3.7475704129
   62      C      -3.9621766217    -2.4216059194    -2.6946079073
   63      C      -7.5189917553    -0.4475553209    -2.3138778979
   64      C      -3.8543369337    -4.1864968089     1.3336712228
   65      C      -2.7878926649    -3.3608451010     1.0441166010
   66      C      -7.4466312015    -1.8501610244    -2.4481023023
   67      C      -2.6201259982    -0.0213195131     1.9599638552
   68      C      -2.4661759757     0.1184466877    -0.8002120087
   69      C      -3.2764573977    -1.9731412593     2.9695701968
   70      C      -4.8343670923     2.2884870004     0.5731407780
   71      C      -8.6964948029    -1.2758300475    -0.6173303594
   72      C      -3.0720890858    -0.2758096015    -1.9794021042
   73      C      -6.2636835783    -2.4936069026    -2.8854549321
   74      C      -4.5112810422     0.0789251915     3.4791375118
   75      C      -7.6621272759    -3.5131657486    -0.7058446494
   76      C      -6.7194428456    -0.0503373799     3.2198449402
   77      C      -6.6715381397    -4.3955837114     1.1127594037
   78      C      -8.3103363224    -0.1420640397    -1.2088548877
   79      C      -8.1513663422    -2.3381131506    -1.3867870316
   80      C      -6.2267549667     2.1745082174     0.4106020311
   81      C      -4.1978872746     1.7837979567     1.7245466190
   82      C      -4.6281562599    -3.8973128788     2.4249852496
   83      C      -8.8139105610    -1.4223365649     0.7710580517
   84      C      -4.3940839398    -3.6367045269    -2.0729163096
   85      C      -2.4270608811    -2.2581532572     1.8833240374
   86      C      -4.4770642669    -4.6256565348     0.0960947995
   87      C      -4.9212629045     1.2610988288     2.7666739240
   88      C      -5.5822465741    -2.1281472439     3.6386370237
   89      O       9.2193309633    -2.2066434965    -3.1435376823
   90      C      10.0016080291    -0.9777825158    -2.9182017497
   91      H      10.9541914787    -1.0899968495    -3.4490818819
   92      H      10.2127666841    -0.8135964624    -1.8539968999
   93      H       9.4532953454    -0.0845693390    -3.2415118508
   94      O      10.6310945556    -3.5554607843    -2.0168214431
   95      C       9.6112836449    -3.4069351164    -2.6330955967
   96      C       8.6679090099    -4.5145203833    -3.0564738844
   97      H       8.8873323797    -5.3730129632    -2.4106063476
   98      H       8.8691524512    -4.8378812012    -4.0855802243
   99      C       7.1083897301    -4.1364899537    -2.8948737290
  100      H       6.8180135255    -3.2011012823    -3.3886830982
  101      H       6.5425925743    -4.9786154715    -3.3124754420
  102      C       6.7167688002    -3.9928530987    -1.4371863478
  103      H       6.8299908786    -4.9699360007    -0.9507259038
  104      H       7.4324210741    -3.4018327878    -0.8524600743
  105      C       5.2904812776    -3.4267172465    -1.2779629205
  106      C       4.2327325254    -4.3778319577    -1.7843564269
  107      C       4.1239707393    -5.6255462610    -1.0751252296
  108      H       4.6042561321    -5.8811190917    -0.1357533811
  109      C       3.4413383726    -6.6512119493    -1.6774606411
  110      H       3.2825114324    -7.5647781280    -1.1109442334
  111      C       2.6891322319    -6.4508388760    -2.8776333592
  112      H       2.0400064035    -7.2824312679    -3.1356406313
  113      C       2.6208492400    -5.1944579137    -3.4950329954
  114      H       1.8758053059    -5.0661258922    -4.2740717804
  115      C       3.3784727583    -4.1166451902    -2.9304204403
  116      H       3.2949840412    -3.1937329138    -3.4978158616
  117      C       2.0133578827     0.8463899433    -1.5667105591
  118      C       1.0467840392    -0.3549659469     0.3342686702
  119      C       2.4500140502     2.6192793501     3.5514934758
  120      C       6.9682940349     1.7897598466    -1.0181224132
  121      C       5.3431919115     0.6888080276     4.3925852282
  122      C       1.7132351855    -0.3322023263    -0.9134895945
  123      C       7.3901620487     2.0772352028     1.7276228951
  124      C       1.5603693772     2.9505496078     1.3193529399
  125      C       3.9151526926    -2.4396498858     2.1154747625
  126      C       7.5182165525     0.7198146281    -0.2520920913
  127      C       5.0195650081    -2.6631080787    -0.0037849841
  128      C       5.3080499673    -2.1402646327     2.2409165906
  129      C       7.3944439541    -0.3395587499     1.6933059117
  130      C       6.7600733760     2.0287089387     2.9697192948
  131      C       2.4966975537    -2.0184998496     0.2395071013
  132      C       4.6712822574     2.9753524866     3.7924778597
  133      C       5.0629520735    -1.9470419023    -1.2994881884
  134      C       6.0790184012    -0.8815414767    -1.4809518502
  135      C       4.4240190212     1.7791250489     4.4235204964
  136      C       4.5433827006     4.1698558395    -0.1152995704
  137      C       3.5332638034     4.1780023766     1.9583461195
  138      C       2.5392141253     3.8859610398     0.9849304348
  139      C       1.0795269463     2.0620949242     0.3160300448
  140      C       5.4964846733     0.2433790533    -2.1366181197
  141      C       3.6625130245    -2.6388239745     0.7651507716
  142      C       0.7470846446     0.8577314631     0.9836832255
  143      C       7.7682412612     0.8786252476     1.0759394716
  144      C       1.5676337610    -1.3986648520     1.0412489830
  145      C       5.7989911949    -1.2423066476     3.2598504295
  146      C       5.0169197984     2.5762320684    -1.8929927085
  147      C       1.4643099386     2.3652638453     2.5497866685
  148      C       5.9875366063    -2.2243402463     1.0031309877
  149      C       2.7086314180     2.9885190822    -1.2323762002
  150      C       6.8577933034    -0.3393331512     3.0277147801
  151      C       3.0509629628    -1.7013652863     2.9434282401
  152      C       5.9774806799     3.8587884468     1.8941563418
  153      C       6.8696273769     3.1867963734     1.0345372842
  154      C       3.5052992023    -0.8671786829     4.0066710591
  155      C       5.9853788232     1.5279009554    -1.9448578705
  156      C       7.0544049923    -0.5766316869    -0.4738302001
  157      C       5.4732531198     3.4343998497    -0.9159758413
  158      C       3.7800479597    -1.2184847429    -1.7421206550
  159      C       1.5892712034    -0.0183120544     3.0535282814
  160      C       7.0137720172    -1.2438391635     0.7232158076
  161      C       4.9227492912    -0.6344221323     4.1523063345
  162      C       3.6369940783     2.3493281937    -2.1057969345
  163      C       3.0827245259     1.5050993664     4.2103116737
  164      C       1.6796670959     2.0849655987    -0.9656375147
  165      C       3.5152916400     3.5545285255     3.2335129158
  166      C       1.8566560192    -1.2342003968     2.3967254960
  167      C       2.6529664548     0.2221435518     3.9560256574
  168      C       2.5688957085    -1.3632571603    -1.0287111152
  169      C       4.1465452163    -0.0241069313    -2.3328417432
  170      C       4.7643712870     4.2909623837     1.3066112037
  171      C       0.9945495110     1.0614175795     2.3648432835
  172      C       6.5043675251     0.8600861820     3.6528359543
  173      C       6.6402557426     2.9721465062    -0.3599805852
  174      C       5.9225290022     3.1656267759     3.1106279654
  175      C       3.2016408688     1.0053388299    -2.2936856594
  176      C       3.1881540288     3.9080479148    -0.2469880575
 ----------------------------------------------------------------

    9   -5804.2811691042      8.27E-06 Convergence criterion met
 Total energy in the final basis set = -5804.2811691042

                    Orbital Energies (a.u.)
 --------------------------------------------------------------

 Alpha MOs
 -- Occupied --
-19.191 -19.187 -19.133 -19.132 -10.314 -10.312 -10.247 -10.241
-10.241 -10.240 -10.240 -10.239 -10.236 -10.232 -10.230 -10.230
-10.230 -10.230 -10.228 -10.227 -10.226 -10.226 -10.226 -10.225
-10.225 -10.224 -10.224 -10.224 -10.224 -10.223 -10.222 -10.221
-10.221 -10.220 -10.220 -10.220 -10.220 -10.220 -10.220 -10.219
-10.219 -10.219 -10.219 -10.219 -10.219 -10.219 -10.219 -10.219
-10.218 -10.218 -10.218 -10.218 -10.218 -10.218 -10.218 -10.218
-10.218 -10.218 -10.217 -10.217 -10.217 -10.217 -10.217 -10.217
-10.217 -10.217 -10.217 -10.217 -10.216 -10.216 -10.216 -10.216
-10.216 -10.216 -10.216 -10.216 -10.216 -10.216 -10.215 -10.215
-10.215 -10.215 -10.215 -10.215 -10.215 -10.215 -10.214 -10.214
-10.214 -10.214 -10.214 -10.214 -10.214 -10.214 -10.214 -10.213
-10.213 -10.213 -10.213 -10.213 -10.213 -10.213 -10.213 -10.213
-10.212 -10.212 -10.212 -10.212 -10.212 -10.212 -10.211 -10.211
-10.211 -10.211 -10.211 -10.211 -10.211 -10.211 -10.210 -10.210
-10.210 -10.210 -10.209 -10.209 -10.209 -10.209 -10.208 -10.208
-10.208 -10.207 -10.207 -10.206 -10.206 -10.206 -10.205 -10.203
-10.202 -10.201 -10.199 -10.199 -10.198 -10.197 -10.197 -10.195
-10.195 -10.194 -10.192 -10.185  -1.101  -1.090  -1.009  -1.005
 -0.985  -0.982  -0.968  -0.966  -0.965  -0.962  -0.962  -0.959
 -0.938  -0.934  -0.930  -0.929  -0.927  -0.927  -0.924  -0.922
 -0.921  -0.919  -0.901  -0.895  -0.894  -0.891  -0.886  -0.882
 -0.876  -0.873  -0.851  -0.850  -0.844  -0.843  -0.839  -0.838
 -0.837  -0.837  -0.824  -0.821  -0.811  -0.803  -0.800  -0.798
 -0.797  -0.797  -0.795  -0.793  -0.792  -0.789  -0.787  -0.785
 -0.772  -0.772  -0.769  -0.768  -0.767  -0.766  -0.765  -0.762
 -0.754  -0.752  -0.744  -0.739  -0.734  -0.731  -0.719  -0.719
 -0.717  -0.715  -0.714  -0.711  -0.711  -0.711  -0.710  -0.709
 -0.708  -0.707  -0.706  -0.705  -0.703  -0.702  -0.676  -0.672
 -0.660  -0.660  -0.658  -0.656  -0.649  -0.645  -0.632  -0.632
 -0.631  -0.627  -0.625  -0.625  -0.623  -0.620  -0.619  -0.617
 -0.616  -0.615  -0.614  -0.613  -0.611  -0.610  -0.610  -0.609
 -0.606  -0.604  -0.603  -0.600  -0.566  -0.565  -0.564  -0.563
 -0.562  -0.560  -0.560  -0.559  -0.558  -0.558  -0.556  -0.552
 -0.537  -0.537  -0.533  -0.533  -0.531  -0.527  -0.527  -0.525
 -0.524  -0.522  -0.521  -0.521  -0.520  -0.515  -0.514  -0.513
 -0.509  -0.507  -0.506  -0.497  -0.496  -0.493  -0.488  -0.486
 -0.485  -0.483  -0.482  -0.482  -0.480  -0.477  -0.476  -0.476
 -0.474  -0.473  -0.472  -0.471  -0.468  -0.468  -0.468  -0.466
 -0.466  -0.465  -0.464  -0.463  -0.462  -0.462  -0.461  -0.460
 -0.455  -0.455  -0.452  -0.452  -0.451  -0.448  -0.446  -0.446
 -0.444  -0.442  -0.441  -0.440  -0.439  -0.438  -0.438  -0.433
 -0.432  -0.431  -0.430  -0.429  -0.428  -0.426  -0.425  -0.425
 -0.424  -0.423  -0.422  -0.421  -0.421  -0.420  -0.420  -0.419
 -0.418  -0.417  -0.416  -0.415  -0.415  -0.414  -0.414  -0.413
 -0.413  -0.412  -0.408  -0.405  -0.403  -0.400  -0.399  -0.398
 -0.395  -0.395  -0.394  -0.390  -0.387  -0.386  -0.382  -0.379
 -0.376  -0.373  -0.372  -0.371  -0.370  -0.367  -0.367  -0.366
 -0.364  -0.363  -0.361  -0.361  -0.360  -0.360  -0.359  -0.359
 -0.358  -0.357  -0.356  -0.356  -0.355  -0.352  -0.352  -0.350
 -0.350  -0.350  -0.348  -0.348  -0.346  -0.346  -0.344  -0.344
 -0.344  -0.343  -0.341  -0.341  -0.339  -0.338  -0.336  -0.336
 -0.335  -0.333  -0.332  -0.332  -0.330  -0.328  -0.325  -0.323
 -0.312  -0.303  -0.298  -0.295  -0.290  -0.287  -0.274  -0.271
 -0.270  -0.270  -0.269  -0.267  -0.267  -0.266  -0.265  -0.264
 -0.263  -0.262  -0.262  -0.261  -0.259  -0.257  -0.254  -0.254
 -0.250  -0.243  -0.242  -0.239  -0.225  -0.222  -0.214  -0.212
 -0.210  -0.209  -0.207  -0.206  -0.202  -0.197

          Ground-State Mulliken Net Atomic Charges

     Atom                 Charge (a.u.)
  ----------------------------------------
      1 O                    -0.456367
      2 C                    -0.083745
      3 H                     0.118259
      4 H                     0.122452
      5 H                     0.126264
      6 O                    -0.494968
      7 C                     0.617292
      8 C                    -0.270095
      9 H                     0.145978
     10 H                     0.130318
     11 C                    -0.177211
     12 H                     0.114371
     13 H                     0.125891
     14 C                    -0.191527
     15 H                     0.101735
     16 H                     0.099187
     17 C                     0.028123
     18 C                     0.102064
     19 C                    -0.118372
     20 H                     0.077211
     21 C                    -0.076390
     22 H                     0.097822
     23 C                    -0.095722
     24 H                     0.085159
     25 C                    -0.086816
     26 H                     0.091932
     27 C                    -0.113142
     28 H                     0.100049
     29 C                     0.008642
     30 C                     0.000675
     31 C                     0.003888
     32 C                     0.008097
     33 C                    -0.006509
     34 C                    -0.001307
     35 C                    -0.031335
     36 C                    -0.026676
     37 C                    -0.014156
     38 C                     0.003919
     39 C                    -0.097972
     40 C                     0.003106
     41 C                     0.017232
     42 C                     0.012816
     43 C                    -0.013006
     44 C                     0.008144
     45 C                    -0.073427
     46 C                     0.017537
     47 C                    -0.021855
     48 C                    -0.002832
     49 C                    -0.006215
     50 C                     0.001092
     51 C                    -0.016889
     52 C                    -0.006498
     53 C                     0.061348
     54 C                     0.025083
     55 C                    -0.021990
     56 C                    -0.013017
     57 C                    -0.021639
     58 C                    -0.021734
     59 C                     0.009384
     60 C                     0.004738
     61 C                     0.019384
     62 C                    -0.024182
     63 C                     0.001512
     64 C                     0.001882
     65 C                     0.027710
     66 C                     0.001832
     67 C                     0.036470
     68 C                    -0.007313
     69 C                    -0.011829
     70 C                     0.006417
     71 C                    -0.009930
     72 C                     0.016384
     73 C                     0.003782
     74 C                    -0.030866
     75 C                     0.018692
     76 C                    -0.000491
     77 C                    -0.026260
     78 C                     0.022570
     79 C                    -0.006808
     80 C                     0.006369
     81 C                     0.024821
     82 C                    -0.003421
     83 C                    -0.004899
     84 C                     0.018996
     85 C                    -0.013392
     86 C                    -0.000346
     87 C                    -0.009866
     88 C                     0.018995
     89 O                    -0.472893
     90 C                    -0.086451
     91 H                     0.129718
     92 H                     0.132718
     93 H                     0.129022
     94 O                    -0.462073
     95 C                     0.596888
     96 C                    -0.269319
     97 H                     0.128862
     98 H                     0.135166
     99 C                    -0.181943
    100 H                     0.121571
    101 H                     0.113074
    102 C                    -0.184021
    103 H                     0.106850
    104 H                     0.110961
    105 C                     0.016541
    106 C                     0.059925
    107 C                    -0.085006
    108 H                     0.098669
    109 C                    -0.095116
    110 H                     0.089852
    111 C                    -0.079952
    112 H                     0.090053
    113 C                    -0.096421
    114 H                     0.098956
    115 C                    -0.111590
    116 H                     0.101225
    117 C                     0.004255
    118 C                     0.016150
    119 C                    -0.041747
    120 C                    -0.013130
    121 C                    -0.003952
    122 C                     0.009237
    123 C                     0.010902
    124 C                     0.031628
    125 C                    -0.007658
    126 C                    -0.006356
    127 C                    -0.097255
    128 C                    -0.006404
    129 C                    -0.013318
    130 C                     0.028528
    131 C                    -0.014233
    132 C                     0.013405
    133 C                    -0.090910
    134 C                     0.037926
    135 C                     0.016317
    136 C                    -0.014341
    137 C                    -0.000655
    138 C                     0.014011
    139 C                    -0.016764
    140 C                     0.011526
    141 C                     0.041451
    142 C                    -0.002862
    143 C                    -0.018295
    144 C                     0.010311
    145 C                     0.017875
    146 C                     0.004113
    147 C                     0.018870
    148 C                     0.039665
    149 C                     0.000952
    150 C                    -0.032539
    151 C                    -0.000013
    152 C                    -0.009289
    153 C                    -0.006442
    154 C                    -0.023909
    155 C                    -0.008977
    156 C                    -0.002595
    157 C                     0.007031
    158 C                     0.016940
    159 C                    -0.007060
    160 C                     0.011812
    161 C                    -0.017980
    162 C                    -0.019986
    163 C                     0.006467
    164 C                    -0.036147
    165 C                    -0.007623
    166 C                     0.006621
    167 C                     0.033512
    168 C                     0.013180
    169 C                     0.016750
    170 C                     0.005187
    171 C                    -0.017245
    172 C                     0.011077
    173 C                     0.009089
    174 C                    -0.031249
    175 C                    -0.025982
    176 C                     0.010254
  ----------------------------------------
  Sum of atomic charges =     0.000000

                    Cartesian Multipole Moments
 -----------------------------------------------------------------
    Charge (ESU x 10^10)
                 0.0000
    Dipole Moment (Debye)
         X       0.2764      Y       0.3594      Z      -4.0392
       Tot       4.0646
    Quadrupole Moments (Debye-Ang)
        XX    -842.3573     XY       1.3777     YY    -782.9157
        XZ      -6.0318     YZ     -11.4769     ZZ    -794.7151

 Total job time:  852.65s(wall), 7280.54s(cpu)
        *  Thank you very much for using Q-Chem.  Have a nice day.  *
