 Q-Chem 4.4, Q-Chem, Inc., Pleasanton, CA (2016)
 Q-Chem 4.4.2 for Intel X86 Linux

User input:
--------------------------------------------------------------
$comment
SP
$end

$rem
MEM_STATIC 5000
MEM_TOTAL 20000
JOBTYPE SP
EXCHANGE B3LYP
BASIS 6-31g(d,p)
$end

$molecule
0 1
O           9.726000     12.780000      9.977000
C          10.901000     13.548000     10.139000
H          11.697000     12.832000     10.380000
H          10.871000     14.203000     11.018000
H          11.203000     14.035000      9.203000
O           8.530000     14.620000      9.424000
C           8.588000     13.458000      9.652000
C           7.435000     12.457000      9.371000
H           7.466000     12.080000      8.341000
H           6.467000     12.969000      9.437000
C           7.361000     11.322000     10.400000
H           8.262000     10.696000     10.419000
H           7.348000     11.713000     11.425000
C           6.158000     10.381000     10.050000
H           5.242000     10.972000     10.169000
H           6.221000     10.085000      8.996000
C           5.928000      9.227000     10.972000
C           5.721000      9.664000     12.456000
C           4.457000     10.046000     12.966000
H           3.588000      9.918000     12.328000
C           4.276000     10.430000     14.346000
H           3.274000     10.704000     14.661000
C           5.409000     10.480000     15.245000
H           5.333000     10.751000     16.293000
C           6.658000     10.054000     14.730000
H           7.507000     10.039000     15.408000
C           6.826000      9.671000     13.361000
H           7.816000      9.381000     13.021000
C           7.202000      4.151000     12.628000
C           4.827000      4.241000     12.948000
C           3.740000      1.524000      9.554000
C           8.401000      5.470000      7.800000
C           2.895000      4.138000      7.351000
C           6.078000      4.887000     12.962000
C           6.318000      4.662000      6.155000
C           5.549000      1.294000     11.155000
C           3.178000      6.679000     10.356000
C           7.440000      6.416000      7.367000
C           5.139000      7.983000     10.473000
C           3.506000      7.070000      9.040000
C           5.233000      6.667000      7.008000
C           5.041000      4.014000      6.176000
C           4.535000      6.335000     12.323000
C           4.217000      2.080000      7.413000
C           6.642000      7.922000     10.761000
C           7.479000      7.419000      9.631000
C           3.075000      2.799000      7.755000
C           7.981000      2.075000      8.812000
C           5.984000      1.046000      8.729000
C           6.439000      1.020000     10.045000
C           5.837000      2.171000     12.224000
C           8.356000      6.427000     10.074000
C           4.146000      7.191000     11.267000
C           4.720000      2.923000     12.596000
C           6.416000      5.988000      6.559000
C           3.844000      5.155000     12.556000
C           3.121000      6.212000      8.008000
C           9.005000      4.122000      9.606000
C           4.145000      1.512000     10.904000
C           4.712000      7.775000      9.075000
C           8.007000      2.555000     11.202000
C           3.975000      6.053000      6.933000
C           2.391000      5.539000     10.633000
C           6.562000      2.461000      6.844000
C           7.292000      3.704000      6.615000
C           2.049000      4.683000      9.596000
C           8.910000      5.474000      9.150000
C           7.003000      7.418000      8.289000
C           8.669000      3.285000      8.536000
C           6.924000      6.827000     11.824000
C           2.696000      3.407000     11.325000
C           5.604000      7.548000      8.050000
C           2.415000      5.067000      8.263000
C           8.641000      3.790000     10.912000
C           2.819000      2.470000      9.114000
C           7.093000      2.776000     12.260000
C           4.648000      1.271000      8.488000
C           2.774000      4.730000     11.744000
C           2.295000      3.394000      9.990000
C           5.921000      6.145000     12.566000
C           8.017000      6.056000     11.379000
C           6.948000      1.618000      7.915000
C           3.684000      2.490000     11.750000
C           3.877000      4.755000      6.522000
C           8.328000      4.123000      7.476000
C           5.214000      2.680000      6.654000
C           8.118000      4.739000     11.784000
C           7.685000      1.681000     10.088000
O          22.074000      5.768000      5.055000
C          22.128000      6.382000      6.394000
H          23.136000      6.791000      6.530000
H          21.938000      5.651000      7.190000
H          21.353000      7.148000      6.519000
O          23.563000      4.140000      5.518000
C          22.801000      4.658000      4.748000
C          22.611000      4.265000      3.297000
H          23.001000      3.245000      3.198000
H          23.213000      4.896000      2.631000
C          21.071000      4.274000      2.818000
H          20.544000      5.216000      3.013000
H          21.082000      4.060000      1.742000
C          20.268000      3.183000      3.499000
H          20.665000      2.211000      3.180000
H          20.450000      3.121000      4.579000
C          18.758000      3.316000      3.212000
C          18.424000      3.077000      1.759000
C          18.691000      1.751000      1.267000
H          18.952000      0.880000      1.860000
C          18.736000      1.565000     -0.091000
H          18.851000      0.552000     -0.467000
C          18.341000      2.593000     -1.004000
H          18.232000      2.254000     -2.030000
C          17.894000      3.841000     -0.549000
H          17.420000      4.492000     -1.277000
C          17.900000      4.093000      0.862000
H          17.575000      5.098000      1.117000
C          14.144000      5.945000      4.151000
C          13.329000      3.652000      3.888000
C          12.299000      2.992000      8.323000
C          17.784000      6.377000      7.659000
C          15.387000      1.325000      9.023000
C          14.233000      4.694000      3.574000
C          17.250000      4.401000      9.559000
C          12.016000      4.909000      6.864000
C          16.203000      1.145000      4.984000
C          18.516000      5.153000      7.659000
C          17.832000      2.754000      4.264000
C          17.219000      1.310000      5.977000
C          18.342000      2.961000      7.954000
C          16.390000      3.350000      9.872000
C          15.331000      2.803000      3.501000
C          13.962000      3.149000      9.849000
C          17.910000      4.218000      4.054000
C          18.349000      5.069000      5.187000
C          14.110000      1.908000      9.276000
C          14.408000      6.963000      8.446000
C          12.968000      5.265000      9.049000
C          12.524000      5.800000      7.809000
C          12.283000      5.136000      5.484000
C          17.534000      6.237000      5.266000
C          16.453000      2.079000      3.988000
C          12.352000      3.856000      4.881000
C          18.288000      4.212000      8.615000
C          14.041000      2.489000      3.858000
C          16.952000      1.077000      7.377000
C          16.017000      7.432000      6.681000
C          11.853000      3.573000      7.097000
C          18.179000      2.280000      5.605000
C          13.686000      7.022000      6.104000
C          17.514000      1.872000      8.398000
C          14.908000      0.886000      5.467000
C          15.207000      5.267000     10.082000
C          16.505000      5.593000      9.640000
C          14.626000      0.577000      6.830000
C          17.323000      6.894000      6.470000
C          18.762000      4.514000      6.444000
C          15.750000      7.206000      8.014000
C          16.617000      4.935000      3.622000
C          12.883000      1.734000      5.869000
C          18.692000      3.158000      6.634000
C          15.687000      0.687000      7.803000
C          15.004000      7.381000      5.695000
C          13.151000      1.831000      8.279000
C          13.140000      6.201000      5.117000
C          12.876000      3.875000      9.322000
C          13.836000      1.532000      4.853000
C          13.429000      1.228000      7.073000
C          15.453000      4.210000      3.281000
C          16.560000      6.150000      4.278000
C          14.146000      5.923000      9.413000
C          12.087000      2.900000      5.894000
C          16.504000      2.084000      9.341000
C          16.794000      6.554000      8.622000
C          15.131000      3.879000     10.258000
C          15.286000      6.688000      4.482000
C          13.409000      6.828000      7.494000
$end

--------------------------------------------------------------

             Standard Nuclear Orientation (Angstroms)
    I     Atom           X                Y                Z
 ----------------------------------------------------------------
    1      O       3.3082897924    -7.3037105981    -1.6465625641
    2      C       2.4238708163    -8.3847618186    -1.4324963747
    3      H       1.6859818267    -8.0291010993    -0.7021688511
    4      H       2.8960080718    -9.2351887851    -0.9261107642
    5      H       1.8582904935    -8.6355099813    -2.3389803830
    6      O       4.4597620085    -8.4779613380    -3.2012560823
    7      C       4.3177080451    -7.5028953913    -2.5419692925
    8      C       5.0997377232    -6.1802107747    -2.7640188085
    9      H       4.6103228593    -5.5385491908    -3.5074793002
   10      H       6.0825015672    -6.3926189798    -3.2028604442
   11      C       5.3952296052    -5.4309276667    -1.4587213819
   12      H       4.4889986196    -5.1209325753    -0.9232902995
   13      H       5.8685100855    -6.0889595377    -0.7193468870
   14      C       6.2048296236    -4.1282419249    -1.7792641532
   15      H       7.1733215119    -4.4431774831    -2.1858807496
   16      H       5.6894441892    -3.5623389272    -2.5645237607
   17      C       6.5970264337    -3.2856104226    -0.6084294879
   18      C       7.4331071980    -4.0673491813     0.4526678068
   19      C       8.8382647086    -4.2096648394     0.3578067306
   20      H       9.3571244886    -3.6569690490    -0.4193038742
   21      C       9.6018842828    -4.9194735623     1.3566429147
   22      H      10.6763886341    -4.9794260507     1.2146883514
   23      C       8.9337235801    -5.5535183158     2.4728590793
   24      H       9.4547084001    -6.0911621330     3.2583747973
   25      C       7.5334492861    -5.3653529994     2.5754637352
   26      H       7.0264031742    -5.7939273031     3.4356604025
   27      C       6.7860843954    -4.6560515575     1.5817780783
   28      H       5.7102166998    -4.5706700446     1.7043288791
   29      C       5.3089984123     0.4883157149     3.1637917841
   30      C       7.6027573310     0.9833077732     2.6690414578
   31      C       6.8420597148     4.7788080604     0.4110754027
   32      C       2.5336492529     0.3841349422    -1.1690513252
   33      C       7.1480622520     3.2909097678    -2.7658336483
   34      C       6.5726760289     0.0360416885     2.8243877678
   35      C       3.6549724904     2.2003319998    -2.9415750755
   36      C       5.7924410003     3.9996141018     2.4555164826
   37      C       8.4587681096    -0.0006858750    -1.0296760290
   38      C       3.3814206748    -0.0773274580    -2.2055174701
   39      C       6.9260992542    -1.7795104668    -0.8144197835
   40      C       7.7060419255    -0.0581094892    -2.2223313943
   41      C       5.2816588470     0.4255274388    -3.3004890870
   42      C       4.7220382899     3.1463589225    -3.0737781050
   43      C       7.9449862184    -0.6569841163     1.2361957208
   44      C       5.6564967084     4.7744575529    -1.5163496753
   45      C       5.6659554123    -2.2351473038    -0.0727280885
   46      C       4.3867968310    -1.6770038487    -0.6044302676
   47      C       6.9370220061     4.3403954910    -1.8479127739
   48      C       2.7887966287     3.2968472892     0.8748605124
   49      C       4.4097323073     4.8250235177     0.5732250688
   50      C       4.5082512526     4.3280210286     1.8704681237
   51      C       6.0846263244     2.8001881190     3.1416936086
   52      C       3.6120717708    -1.1528021440     0.4321292598
   53      C       8.0160496390    -1.0127947151    -0.1303846127
   54      C       7.3592936403     2.3200291620     2.8314556197
   55      C       3.9281926998     0.8433794822    -3.0645652469
   56      C       8.4816198846     0.5450377456     1.6736174302
   57      C       7.5192656740     1.1404356638    -2.9137192364
   58      C       2.4855403458     0.9042847410     1.1048628596
   59      C       7.0014053212     4.2730713421     1.7170265310
   60      C       6.7340818023    -1.0526799095    -2.0851847654
   61      C       3.7748674962     2.1401421250     2.7808703254
   62      C       6.2991267647     1.3637666973    -3.5233144229
   63      C       9.1058743230     1.1789420179    -0.5990606750
   64      C       3.3648932822     3.9327039691    -1.4271776993
   65      C       2.8041340107     2.6610139887    -1.8729844211
   66      C       8.8784379428     2.3649799010    -1.2821827965
   67      C       2.6011060694    -0.1656301744     0.1631667104
   68      C       4.2929960739    -1.1416981465    -1.9205572460
   69      C       2.2426612895     2.0811292791     0.3876378620
   70      C       5.6579465745    -1.6332369288     1.3577116198
   71      C       8.7722421720     2.8302455479     0.9106410305
   72      C       5.4885889639    -0.7930012700    -2.6135147698
   73      C       8.0835047351     2.3082432300    -2.4751468133
   74      C       3.2760843908     0.9210879049     2.2551296837
   75      C       7.6508019091     4.3081066324    -0.6190378089
   76      C       5.0523176887     1.8823343131     3.3333711289
   77      C       5.5619987515     5.0698708396    -0.1380651886
   78      C       9.0690185784     1.4772229501     0.7956296632
   79      C       8.6112962528     3.3531751850    -0.3714806508
   80      C       6.7535254431    -0.9484906580     1.9514510300
   81      C       4.3735459840    -1.1072225586     1.6041644658
   82      C       3.3044242916     4.2730449292    -0.0534246167
   83      C       7.9013037707     3.2600079026     1.9374947784
   84      C       6.0274719350     2.6972764948    -3.4170869620
   85      C       2.2658441652     1.7293319465    -0.9606299864
   86      C       4.5470931433     4.1712308776    -2.0955139938
   87      C       4.2379502047    -0.0557276750     2.4899902356
   88      C       3.4963682715     3.3598589538     2.0437916056
   89      O     -10.8996031844    -2.9407876889     0.5823413925
   90      C     -10.3298580268    -3.9146014333     1.5309773852
   91      H     -11.1281672309    -4.6133374810     1.8072224764
   92      H      -9.9582302388    -3.4314156737     2.4433924820
   93      H      -9.4600184648    -4.4307850814     1.1067845308
   94      O     -12.3195227694    -2.0159587556     2.0690807161
   95      C     -11.8500674996    -2.0431956496     0.9642106327
   96      C     -12.3062983657    -1.1990117299    -0.2084602105
   97      H     -12.8557470145    -0.3500120536     0.2153401342
   98      H     -13.0161720293    -1.7463752647    -0.8413848051
   99      C     -11.0953738482    -0.6286135597    -1.1081433437
  100      H     -10.3960439483    -1.3963066151    -1.4612765533
  101      H     -11.5595875283    -0.1161968613    -1.9599812311
  102      C     -10.2680247999     0.3905611545    -0.3494421809
  103      H     -10.9025854981     1.2593333855    -0.1332905423
  104      H     -10.0197838698     0.0739430880     0.6710956384
  105      C      -8.9900655483     0.7822402056    -1.1198743144
  106      C      -9.2927569446     1.5273845631    -2.3977725127
  107      C      -9.9315653133     2.8072152961    -2.2378157598
  108      H     -10.0701068517     3.3508166211    -1.3084531602
  109      C     -10.5327384867     3.3684582926    -3.3352592046
  110      H     -10.9400915416     4.3714156006    -3.2408657357
  111      C     -10.3737851979     2.8149507751    -4.6447405065
  112      H     -10.7287805145     3.4604095997    -5.4427625807
  113      C      -9.5981635513     1.6682064936    -4.8632047240
  114      H      -9.3530832731     1.4256775285    -5.8925619789
  115      C      -9.0123544897     1.0165711934    -3.7288942820
  116      H      -8.4630974334     0.1163897182    -3.9909343511
  117      C      -4.0322012643    -0.5880439047    -2.7398314738
  118      C      -3.7484654209     1.8114983180    -2.3487635861
  119      C      -1.1789661998     1.3840677889     1.4434260051
  120      C      -5.8943918885    -3.0570123197     1.2824476121
  121      C      -3.9627076902     1.8212137025     3.6489462986
  122      C      -4.5312748268     0.6991128970    -2.7378446948
  123      C      -4.9698767478    -1.6701580634     3.5233489990
  124      C      -1.1986878327     0.1509594868    -0.6452850741
  125      C      -6.3121952501     2.9571169377     0.4549818269
  126      C      -6.7467152711    -2.1483267411     1.9765912360
  127      C      -7.8245014351     1.2434688728    -0.2779999684
  128      C      -6.8197191163     2.2233565869     1.5728124370
  129      C      -6.8104735400    -0.1884964230     3.0144568377
  130      C      -4.2287601946    -0.5617256081     3.9286806492
  131      C      -5.8468028455     2.1340233254    -1.7392296066
  132      C      -2.0659803888     0.3157160286     3.2296858812
  133      C      -7.7523327648    -0.0507877974    -0.9943597626
  134      C      -7.5760744155    -1.2883154550    -0.1955673672
  135      C      -2.6154749499     1.5758624353     3.2497048941
  136      C      -2.4333752745    -2.8699159276     0.6938051589
  137      C      -1.1520320644    -1.0937893485     1.4176469599
  138      C      -1.1524887378    -1.0865831828    -0.0039397813
  139      C      -1.9463571496     0.2793803791    -1.8501571283
  140      C      -6.6261320019    -2.1459758973    -0.8254228876
  141      C      -6.7853472448     2.3314322029    -0.6902333504
  142      C      -2.4419273253     1.6063806820    -1.8659810676
  143      C      -6.3102609348    -1.5105762981     3.0964943500
  144      C      -4.5850099232     2.6791665595    -1.7102041775
  145      C      -6.0651413222     2.0944498963     2.7973831445
  146      C      -4.5120494470    -3.2273790287    -0.5208556234
  147      C      -1.1650519067     1.3457332798     0.0158792081
  148      C      -7.6871161747     1.1780319460     1.1780938812
  149      C      -2.6863382564    -2.0218747464    -1.5923630074
  150      C      -6.0529371534     0.9065099744     3.5582772240
  151      C      -4.9880705073     3.4160103389     0.5711950445
  152      C      -2.7784767074    -2.0370754380     3.0129849105
  153      C      -4.0789645773    -2.5701109468     2.9078733196
  154      C      -4.2460610226     3.3716568532     1.7878415392
  155      C      -5.8622246755    -3.0437708470    -0.0931689529
  156      C      -7.5439136923    -1.2735745871     1.2387936036
  157      C      -3.7826297948    -3.3427151671     0.6427158382
  158      C      -6.6381965552    -0.2097852580    -2.0460167000
  159      C      -2.8631476699     3.0964411433    -0.0320557030
  160      C      -7.6145611855    -0.0740891346     1.8990811024
  161      C      -4.8106993160     2.6812562847     2.9232184161
  162      C      -3.9869733833    -2.6004850898    -1.6750935177
  163      C      -2.1476939926     2.2144491898     2.1126002670
  164      C      -2.7037433238    -0.8248854345    -2.3087704688
  165      C      -1.1754503735     0.1182043952     2.1563050324
  166      C      -4.1566111487     3.3133788869    -0.5430931229
  167      C      -2.9648622775     3.0446414803     1.3788797787
  168      C      -5.8272333594     0.8822549395    -2.4288860017
  169      C      -6.1427568418    -1.4967060695    -1.9555494934
  170      C      -1.9769946217    -2.1355589565     1.8504250355
  171      C      -1.9518941896     2.2513063869    -0.7022507032
  172      C      -4.7348089949     0.7183306318     3.9842111307
  173      C      -4.5919595140    -3.2249002770     1.7453531572
  174      C      -2.8540843493    -0.8025482383     3.6714088450
  175      C      -4.8243531836    -1.6872885581    -2.3793726985
  176      C      -1.9206059311    -2.1805284468    -0.3944698531
 ----------------------------------------------------------------

    9   -5804.3114292711      8.05E-06 Convergence criterion met
 Total energy in the final basis set = -5804.3114292711

                    Orbital Energies (a.u.)
 --------------------------------------------------------------

 Alpha MOs
 -- Occupied --
-19.195 -19.186 -19.141 -19.133 -10.318 -10.313 -10.247 -10.247
-10.244 -10.244 -10.240 -10.239 -10.239 -10.239 -10.232 -10.231
-10.229 -10.229 -10.228 -10.227 -10.225 -10.225 -10.224 -10.223
-10.223 -10.222 -10.222 -10.222 -10.221 -10.221 -10.220 -10.220
-10.220 -10.220 -10.220 -10.219 -10.219 -10.219 -10.219 -10.219
-10.218 -10.218 -10.218 -10.218 -10.218 -10.218 -10.218 -10.218
-10.217 -10.217 -10.217 -10.217 -10.217 -10.217 -10.216 -10.216
-10.216 -10.216 -10.216 -10.216 -10.216 -10.216 -10.216 -10.216
-10.216 -10.216 -10.216 -10.215 -10.215 -10.215 -10.215 -10.215
-10.215 -10.215 -10.215 -10.215 -10.215 -10.215 -10.215 -10.214
-10.214 -10.214 -10.214 -10.214 -10.214 -10.214 -10.214 -10.214
-10.213 -10.213 -10.213 -10.213 -10.213 -10.213 -10.212 -10.212
-10.212 -10.212 -10.212 -10.212 -10.212 -10.212 -10.212 -10.212
-10.212 -10.212 -10.212 -10.211 -10.211 -10.211 -10.211 -10.211
-10.210 -10.210 -10.210 -10.210 -10.209 -10.209 -10.209 -10.209
-10.209 -10.209 -10.208 -10.208 -10.208 -10.208 -10.208 -10.208
-10.207 -10.207 -10.207 -10.207 -10.206 -10.206 -10.206 -10.205
-10.205 -10.205 -10.205 -10.204 -10.204 -10.204 -10.203 -10.201
-10.201 -10.198 -10.198 -10.197  -1.108  -1.089  -1.029  -1.008
 -0.984  -0.982  -0.967  -0.965  -0.964  -0.962  -0.961  -0.960
 -0.937  -0.933  -0.929  -0.928  -0.926  -0.925  -0.924  -0.922
 -0.919  -0.919  -0.900  -0.893  -0.892  -0.889  -0.884  -0.884
 -0.875  -0.870  -0.850  -0.844  -0.843  -0.840  -0.839  -0.837
 -0.837  -0.836  -0.821  -0.820  -0.806  -0.803  -0.798  -0.796
 -0.796  -0.795  -0.795  -0.792  -0.791  -0.789  -0.784  -0.784
 -0.771  -0.770  -0.768  -0.767  -0.766  -0.765  -0.762  -0.762
 -0.753  -0.744  -0.741  -0.738  -0.733  -0.733  -0.718  -0.716
 -0.714  -0.714  -0.712  -0.711  -0.710  -0.710  -0.709  -0.708
 -0.707  -0.707  -0.706  -0.705  -0.704  -0.702  -0.675  -0.671
 -0.658  -0.658  -0.657  -0.657  -0.647  -0.646  -0.631  -0.629
 -0.629  -0.626  -0.626  -0.624  -0.624  -0.622  -0.618  -0.616
 -0.615  -0.613  -0.612  -0.611  -0.611  -0.609  -0.608  -0.608
 -0.607  -0.605  -0.603  -0.603  -0.571  -0.565  -0.564  -0.563
 -0.562  -0.559  -0.559  -0.558  -0.557  -0.556  -0.554  -0.553
 -0.536  -0.533  -0.532  -0.532  -0.530  -0.526  -0.526  -0.525
 -0.524  -0.522  -0.520  -0.519  -0.518  -0.515  -0.514  -0.514
 -0.508  -0.506  -0.500  -0.497  -0.495  -0.492  -0.491  -0.487
 -0.484  -0.483  -0.481  -0.480  -0.479  -0.477  -0.475  -0.475
 -0.475  -0.473  -0.470  -0.470  -0.467  -0.467  -0.466  -0.466
 -0.465  -0.464  -0.464  -0.463  -0.463  -0.461  -0.460  -0.460
 -0.455  -0.454  -0.452  -0.451  -0.450  -0.448  -0.444  -0.444
 -0.443  -0.442  -0.439  -0.439  -0.438  -0.437  -0.437  -0.432
 -0.430  -0.429  -0.427  -0.427  -0.426  -0.426  -0.424  -0.424
 -0.423  -0.422  -0.421  -0.421  -0.420  -0.419  -0.419  -0.418
 -0.417  -0.416  -0.416  -0.415  -0.414  -0.413  -0.413  -0.412
 -0.412  -0.411  -0.408  -0.404  -0.403  -0.402  -0.398  -0.398
 -0.397  -0.394  -0.393  -0.391  -0.390  -0.389  -0.386  -0.385
 -0.380  -0.376  -0.375  -0.371  -0.370  -0.368  -0.366  -0.365
 -0.365  -0.364  -0.363  -0.361  -0.360  -0.360  -0.359  -0.358
 -0.357  -0.357  -0.357  -0.355  -0.355  -0.354  -0.353  -0.352
 -0.351  -0.351  -0.349  -0.348  -0.347  -0.345  -0.344  -0.343
 -0.343  -0.342  -0.342  -0.340  -0.339  -0.338  -0.336  -0.335
 -0.334  -0.332  -0.331  -0.330  -0.329  -0.328  -0.328  -0.326
 -0.312  -0.311  -0.307  -0.298  -0.288  -0.285  -0.272  -0.272
 -0.269  -0.269  -0.268  -0.267  -0.266  -0.265  -0.264  -0.263
 -0.262  -0.261  -0.261  -0.260  -0.259  -0.258  -0.255  -0.254
 -0.251  -0.248  -0.243  -0.241  -0.224  -0.221  -0.213  -0.212
 -0.210  -0.208  -0.206  -0.205  -0.201  -0.199

          Ground-State Mulliken Net Atomic Charges

     Atom                 Charge (a.u.)
  ----------------------------------------
      1 O                    -0.450218
      2 C                    -0.085323
      3 H                     0.117336
      4 H                     0.124696
      5 H                     0.127645
      6 O                    -0.446749
      7 C                     0.588331
      8 C                    -0.256950
      9 H                     0.134619
     10 H                     0.128774
     11 C                    -0.188891
     12 H                     0.117081
     13 H                     0.116699
     14 C                    -0.183053
     15 H                     0.110070
     16 H                     0.107732
     17 C                     0.011327
     18 C                     0.084253
     19 C                    -0.115644
     20 H                     0.094660
     21 C                    -0.098074
     22 H                     0.096494
     23 C                    -0.082570
     24 H                     0.098805
     25 C                    -0.093717
     26 H                     0.092874
     27 C                    -0.108945
     28 H                     0.095897
     29 C                    -0.017360
     30 C                    -0.006526
     31 C                     0.002035
     32 C                     0.009419
     33 C                    -0.014981
     34 C                     0.007031
     35 C                    -0.012600
     36 C                    -0.007986
     37 C                     0.003830
     38 C                    -0.002983
     39 C                    -0.103841
     40 C                     0.006243
     41 C                    -0.002180
     42 C                    -0.005115
     43 C                    -0.021905
     44 C                    -0.005113
     45 C                    -0.088238
     46 C                     0.060943
     47 C                    -0.011246
     48 C                     0.008760
     49 C                     0.029508
     50 C                    -0.012840
     51 C                     0.004049
     52 C                     0.013005
     53 C                     0.021968
     54 C                     0.014370
     55 C                     0.013769
     56 C                     0.012683
     57 C                    -0.001037
     58 C                    -0.005989
     59 C                    -0.022199
     60 C                     0.049480
     61 C                    -0.017390
     62 C                    -0.004286
     63 C                    -0.014818
     64 C                    -0.009385
     65 C                    -0.026823
     66 C                    -0.018499
     67 C                    -0.045408
     68 C                    -0.038804
     69 C                     0.018213
     70 C                     0.012060
     71 C                    -0.000038
     72 C                    -0.006624
     73 C                     0.018980
     74 C                     0.011712
     75 C                     0.011768
     76 C                    -0.017832
     77 C                    -0.001898
     78 C                    -0.019177
     79 C                     0.022158
     80 C                     0.044691
     81 C                     0.004585
     82 C                    -0.027971
     83 C                     0.003347
     84 C                    -0.009776
     85 C                     0.011058
     86 C                     0.032301
     87 C                     0.015275
     88 C                    -0.001683
     89 O                    -0.472513
     90 C                    -0.086659
     91 H                     0.129521
     92 H                     0.132805
     93 H                     0.129218
     94 O                    -0.462347
     95 C                     0.596860
     96 C                    -0.269418
     97 H                     0.128764
     98 H                     0.135039
     99 C                    -0.182336
    100 H                     0.121941
    101 H                     0.112886
    102 C                    -0.183334
    103 H                     0.106423
    104 H                     0.110991
    105 C                     0.016376
    106 C                     0.060615
    107 C                    -0.085324
    108 H                     0.098555
    109 C                    -0.094931
    110 H                     0.089346
    111 C                    -0.080032
    112 H                     0.089347
    113 C                    -0.096554
    114 H                     0.098400
    115 C                    -0.111671
    116 H                     0.101733
    117 C                     0.007342
    118 C                     0.008475
    119 C                    -0.039085
    120 C                    -0.012647
    121 C                    -0.004518
    122 C                     0.011113
    123 C                     0.010505
    124 C                     0.030498
    125 C                    -0.009207
    126 C                    -0.006233
    127 C                    -0.099028
    128 C                    -0.006728
    129 C                    -0.012664
    130 C                     0.028183
    131 C                    -0.011147
    132 C                     0.011857
    133 C                    -0.091131
    134 C                     0.037669
    135 C                     0.017047
    136 C                    -0.013487
    137 C                    -0.001982
    138 C                    -0.000164
    139 C                    -0.016441
    140 C                     0.010976
    141 C                     0.040879
    142 C                    -0.009064
    143 C                    -0.019174
    144 C                     0.007405
    145 C                     0.018593
    146 C                     0.004441
    147 C                     0.022964
    148 C                     0.039146
    149 C                     0.000640
    150 C                    -0.033462
    151 C                    -0.000452
    152 C                    -0.009761
    153 C                    -0.007395
    154 C                    -0.023894
    155 C                    -0.009391
    156 C                    -0.003004
    157 C                     0.004750
    158 C                     0.018062
    159 C                    -0.006305
    160 C                     0.012202
    161 C                    -0.017886
    162 C                    -0.023704
    163 C                     0.003441
    164 C                    -0.008603
    165 C                    -0.006062
    166 C                     0.006486
    167 C                     0.033947
    168 C                     0.011002
    169 C                     0.016945
    170 C                     0.003606
    171 C                    -0.021668
    172 C                     0.011273
    173 C                     0.009833
    174 C                    -0.032678
    175 C                    -0.024174
    176 C                     0.010311
  ----------------------------------------
  Sum of atomic charges =     0.000000

                    Cartesian Multipole Moments
 -----------------------------------------------------------------
    Charge (ESU x 10^10)
                 0.0000
    Dipole Moment (Debye)
         X      -0.9353      Y      -1.4471      Z      -1.3454
       Tot       2.1861
    Quadrupole Moments (Debye-Ang)
        XX    -794.9763     XY     -17.8175     YY    -805.1770
        XZ      42.3694     YZ     -21.3622     ZZ    -810.9577

 Total job time:  823.79s(wall), 7038.87s(cpu)
        *  Thank you very much for using Q-Chem.  Have a nice day.  *
