 Q-Chem 4.4, Q-Chem, Inc., Pleasanton, CA (2016)
 Q-Chem 4.4.2 for Intel X86 Linux

User input:
--------------------------------------------------------------
$comment
SP
$end

$rem
MEM_STATIC 5000
MEM_TOTAL 20000
JOBTYPE SP
EXCHANGE B3LYP
BASIS 6-31g(d,p)
$end

$molecule
0 1
O          -7.800000      4.742000    -15.651000
C          -7.019000      5.737000    -16.234000
H          -7.558000      6.192000    -17.074000
H          -6.065000      5.335000    -16.596000
H          -6.794000      6.440000    -15.422000
O          -6.098000      4.097000    -14.254000
C          -7.239000      3.986000    -14.637000
C          -8.163000      2.918000    -14.117000
H          -7.507000      2.088000    -13.826000
H          -8.771000      2.619000    -14.980000
C          -8.920000      3.498000    -12.915000
H          -9.270000      4.523000    -13.086000
H          -9.851000      2.948000    -12.729000
C          -8.029000      3.460000    -11.640000
H          -7.860000      2.389000    -11.472000
H          -7.022000      3.890000    -11.710000
C          -8.631000      4.009000    -10.381000
C          -8.603000      5.483000    -10.314000
C          -9.764000      6.244000    -10.586000
H         -10.630000      5.753000    -11.022000
C          -9.700000      7.665000    -10.446000
H         -10.616000      8.225000    -10.610000
C          -8.556000      8.356000    -10.059000
H          -8.518000      9.418000     -9.837000
C          -7.522000      7.544000     -9.579000
H          -6.736000      8.064000     -9.040000
C          -7.494000      6.146000     -9.773000
H          -6.666000      5.558000     -9.387000
C          -9.114000      4.079000     -5.027000
C         -11.375000      4.555000     -5.843000
C         -13.245000      0.632000     -4.664000
C          -7.503000     -0.189000     -7.163000
C         -13.086000     -0.637000     -7.911000
C          -9.991000      4.694000     -5.950000
C          -9.695000     -1.894000     -7.595000
C         -11.656000      1.959000     -3.463000
C         -12.094000      2.904000     -9.378000
C          -8.069000     -0.354000     -8.499000
C          -9.817000      3.214000     -9.777000
C         -11.633000      1.697000     -9.906000
C         -10.039000     -0.569000     -9.650000
C         -11.027000     -1.971000     -7.442000
C         -10.907000      4.463000     -7.992000
C         -12.482000     -1.287000     -5.673000
C          -8.506000      3.286000     -9.072000
C          -7.792000      2.058000     -8.770000
C         -13.374000     -0.652000     -6.556000
C          -8.922000     -0.221000     -4.083000
C         -11.179000     -0.395000     -3.875000
C         -10.800000      0.847000     -3.335000
C         -11.092000      3.240000     -3.794000
C          -7.333000      2.126000     -7.443000
C         -11.006000      3.764000     -9.214000
C         -11.928000      3.876000     -4.719000
C          -9.206000     -1.150000     -8.698000
C         -11.965000      4.476000     -7.086000
C         -12.196000      0.536000     -9.501000
C          -7.313000      1.003000     -5.253000
C         -12.818000      1.929000     -4.213000
C         -10.307000      1.771000    -10.140000
C          -8.829000      2.177000     -3.737000
C         -11.428000     -0.650000     -9.462000
C         -13.114000      2.919000     -8.434000
C         -10.126000     -1.927000     -5.409000
C          -9.094000     -1.803000     -6.368000
C         -13.753000      1.701000     -8.134000
C          -7.165000      1.032000     -6.623000
C          -8.292000      0.833000     -9.286000
C          -7.845000     -0.215000     -4.943000
C          -8.575000      4.017000     -7.760000
C         -13.644000      2.958000     -6.236000
C          -9.475000      0.641000    -10.016000
C         -13.243000      0.486000     -8.649000
C          -7.860000      2.206000     -4.691000
C         -13.785000      0.521000     -5.963000
C          -9.650000      3.315000     -3.970000
C         -12.455000     -0.526000     -4.507000
C         -13.127000      3.692000     -7.300000
C         -13.977000      1.698000     -6.759000
C          -9.715000      4.634000     -7.313000
C          -7.715000      3.306000     -6.856000
C         -10.026000     -1.092000     -4.297000
C         -13.047000      3.067000     -5.004000
C         -11.944000     -1.345000     -8.375000
C          -8.003000     -0.953000     -6.161000
C         -11.380000     -2.042000     -6.096000
C          -8.014000      3.396000     -5.469000
C          -9.398000      0.941000     -3.470000
O         -19.687000     -2.086000     -7.426000
C         -20.590000     -2.967000     -6.814000
H         -20.397000     -3.994000     -7.148000
H         -21.647000     -2.704000     -6.950000
H         -20.484000     -3.005000     -5.723000
O         -20.155000     -0.374000     -6.036000
C         -19.641000     -0.806000     -7.062000
C         -18.773000      0.032000     -7.901000
H         -19.311000      0.142000     -8.850000
H         -17.813000     -0.476000     -8.053000
C         -18.534000      1.474000     -7.277000
H         -19.424000      2.116000     -7.297000
H         -18.267000      1.303000     -6.227000
C         -17.400000      2.310000     -7.922000
H         -16.928000      2.936000     -7.154000
H         -16.547000      1.654000     -8.135000
C         -17.839000      3.133000     -9.146000
C         -18.488000      2.257000    -10.231000
C         -19.900000      2.337000    -10.523000
H         -20.448000      2.991000     -9.851000
C         -20.521000      1.496000    -11.395000
H         -21.580000      1.633000    -11.589000
C         -19.792000      0.628000    -12.208000
H         -20.284000     -0.032000    -12.917000
C         -18.372000      0.639000    -12.034000
H         -17.722000      0.068000    -12.690000
C         -17.803000      1.398000    -11.030000
H         -16.739000      1.345000    -10.819000
C         -16.225000      7.026000    -12.724000
C         -18.635000      7.314000    -12.550000
C         -18.523000     11.250000    -10.270000
C         -14.157000      7.117000     -7.984000
C         -19.146000      9.787000     -7.195000
C         -17.520000      6.469000    -12.564000
C         -15.762000      8.910000     -6.533000
C         -17.143000     10.486000    -12.087000
C         -20.150000      6.192000     -8.949000
C         -15.156000      6.583000     -7.137000
C         -18.308000      4.540000     -8.930000
C         -19.460000      6.257000     -7.726000
C         -17.153000      6.878000     -6.237000
C         -16.841000      9.803000     -6.542000
C         -19.042000      5.697000    -11.064000
C         -17.623000     11.432000     -8.170000
C         -17.000000      4.283000     -9.565000
C         -15.803000      4.812000     -8.775000
C         -18.912000     10.858000     -8.082000
C         -14.262000     10.007000    -10.095000
C         -16.035000     11.353000    -10.096000
C         -15.992000     10.797000    -11.355000
C         -17.186000      9.258000    -12.750000
C         -14.896000      5.414000     -9.696000
C         -19.418000      5.251000     -9.728000
C         -18.491000      8.691000    -12.663000
C         -15.886000      7.490000     -6.401000
C         -19.592000      6.861000    -11.646000
C         -19.378000      7.487000     -7.049000
C         -13.892000      7.626000    -10.190000
C         -18.412000     10.663000    -11.519000
C         -18.393000      5.345000     -7.652000
C         -14.925000      8.706000    -12.040000
C         -18.254000      7.852000     -6.340000
C         -20.607000      7.411000     -9.528000
C         -15.330000     10.665000     -7.900000
C         -14.751000      9.485000     -7.323000
C         -20.518000      8.667000     -8.814000
C         -14.167000      6.594000     -9.279000
C         -15.968000      5.490000     -7.507000
C         -13.827000      8.806000     -9.507000
C         -16.742000      4.855000    -10.962000
C         -20.162000      9.106000    -10.963000
C         -17.210000      5.737000     -6.990000
C         -19.935000      8.691000     -7.562000
C         -14.425000      7.524000    -11.494000
C         -19.461000     10.792000     -9.361000
C         -16.096000      8.407000    -12.743000
C         -17.370000     11.613000     -9.532000
C         -20.386000      7.693000    -10.871000
C         -20.295000      9.705000     -9.668000
C         -17.788000      5.424000    -11.679000
C         -15.444000      5.402000    -10.986000
C         -15.004000     10.909000     -9.280000
C         -19.212000      9.610000    -11.858000
C         -18.103000      9.274000     -6.414000
C         -13.982000      8.518000     -8.115000
C         -16.603000     10.904000     -7.348000
C         -15.195000      6.464000    -11.918000
C         -14.876000      9.928000    -11.315000
$end

--------------------------------------------------------------

             Standard Nuclear Orientation (Angstroms)
    I     Atom           X                Y                Z
 ----------------------------------------------------------------
    1      O       3.0384371732     6.9040688818    -5.2871313898
    2      C       2.9406397720     8.2932399743    -5.2644522310
    3      H       2.0826286399     8.6180450968    -5.8656714337
    4      H       3.8507930772     8.7640273485    -5.6552772676
    5      H       2.8611023064     8.5595570399    -4.2028840456
    6      O       5.0272917892     6.9340170771    -4.1434538033
    7      C       4.1269484980     6.3189003973    -4.6648983624
    8      C       4.1439725863     4.8195185617    -4.7928213524
    9      H       5.2061009889     4.5471374644    -4.8329311303
   10      H       3.6749549180     4.6085206405    -5.7620149884
   11      C       3.4495513392     4.2358177370    -3.5553539876
   12      H       2.5342925696     4.7761342147    -3.2856773506
   13      H       3.0870643637     3.2180054958    -3.7464519582
   14      C       4.4214766781     4.2230283239    -2.3403858537
   15      H       5.2222908506     3.5419315294    -2.6544396989
   16      H       4.9375927786     5.1588128050    -2.0918288669
   17      C       3.8776970837     3.6900597288    -1.0484360755
   18      C       3.0383019462     4.6624891261    -0.3219748786
   19      C       1.6271208423     4.5701771252    -0.3547221932
   20      H       1.1561090627     3.8929971923    -1.0623295998
   21      C       0.8618224478     5.4987310889     0.4166680479
   22      H      -0.2174824936     5.3776845259     0.4174250278
   23      C       1.4211569656     6.5009479691     1.2032379572
   24      H       0.8649732972     7.1395615060     1.8825055608
   25      C       2.8051012709     6.3937305691     1.3824099110
   26      H       3.2170906838     6.9977734782     2.1849769721
   27      C       3.6177092652     5.5598034295     0.5842509208
   28      H       4.6893371292     5.5147766869     0.7571969047
   29      C       4.5286279484     1.1905616473     3.6666782762
   30      C       2.3201696856     0.4599072053     2.8963477055
   31      C       3.4251468450    -3.8029403189     1.9561208911
   32      C       7.8907762056     0.2316227090     0.0403804107
   33      C       3.6537328289    -3.1877435878    -1.4714048097
   34      C       3.2955409082     1.4490329910     3.0248278918
   35      C       7.1069114606    -2.0728975520    -1.3643456936
   36      C       4.1166494814    -2.4445984715     3.8013803660
   37      C       2.0332636519     0.4010883011    -1.0600663608
   38      C       7.2805497362     0.3345516518    -1.2823086263
   39      C       3.5452060933     2.1763338837    -1.0094385479
   40      C       3.0034908491     0.1012709282    -2.0176271834
   41      C       5.6421229484    -0.5373402749    -2.6266627945
   42      C       6.1444860081    -3.0079937316    -1.4181451682
   43      C       2.3105777164     1.5891777597     1.0068120459
   44      C       4.9572899585    -4.1899074633     0.2871077369
   45      C       4.6655503776     2.7347554727    -0.2007828649
   46      C       6.0112583873     2.2279182903    -0.4036868397
   47      C       3.7086263961    -3.9441244313    -0.3120650339
   48      C       7.4182790089    -1.9565189970     2.5878825743
   49      C       5.8030963256    -3.5484976099     2.4317480306
   50      C       5.4695119887    -2.7135971102     3.5131673044
   51      C       3.7302600338    -1.1039860324     4.1507791109
   52      C       6.5938069814     1.9982312329     0.8549294606
   53      C       2.4041241408     1.5752738494    -0.4012865827
   54      C       2.5162840691    -0.8054413252     3.5213743010
   55      C       6.8265163846    -0.8123803819    -1.9489319277
   56      C       1.6587703096     0.5663778048     1.6919371124
   57      C       3.3342337705    -1.1897559549    -2.2473524694
   58      C       7.7130462486     0.3413973657     2.2901416397
   59      C       3.0785855508    -2.8644315720     2.9890950444
   60      C       3.9468434336     1.0647000996    -2.0375804530
   61      C       6.1370193330    -0.4448732245     3.9850474542
   62      C       4.6446124135    -1.5248742385    -2.6578942433
   63      C       1.4174890516    -0.6129621431    -0.3359915456
   64      C       7.2269130658    -3.2783391247     0.5059366994
   65      C       7.7665732069    -2.1578742073    -0.1674178142
   66      C       1.7018234747    -1.9446638738    -0.6931601840
   67      C       7.5376814287     1.0272899839     1.1075836089
   68      C       6.2451948072     1.3198371898    -1.4702436673
   69      C       8.0828138214    -0.9286778388     1.9542414802
   70      C       4.4399851163     2.6288463743     1.2819071147
   71      C       1.4199670709    -1.8363168161     1.5658555049
   72      C       5.2908729407     0.7706084315    -2.3402267396
   73      C       2.7176025535    -2.2251340062    -1.6371301877
   74      C       6.6849207028     0.5713560016     3.2660201607
   75      C       2.8105416105    -3.6635335769     0.6935250865
   76      C       4.7750551700    -0.0928896700     4.1960810910
   77      C       4.7596291452    -4.1554126145     1.6652029108
   78      C       1.1751269755    -0.5816278302     1.0145390112
   79      C       1.8034962485    -2.6620672667     0.4967158680
   80      C       3.2741942841     2.1513572185     1.8232331177
   81      C       5.7129841896     2.3038534299     1.8617260051
   82      C       7.0314848683    -3.1268828154     1.8780291912
   83      C       2.0668276945    -1.9138463262     2.7748528204
   84      C       4.8716840721    -2.7625915806    -2.0685350635
   85      C       8.1542929366    -1.0065773128     0.5252717786
   86      C       6.1801247863    -3.8379416761    -0.2995378703
   87      C       5.7033875787     1.5973116311     3.0954101590
   88      C       6.4800291727    -1.7316564497     3.5986808132
   89      O      -0.5369670850    -8.4191331088    -2.4606595350
   90      C      -0.5961545601    -9.8194888380    -2.4204765231
   91      H       0.0970261030   -10.2455921081    -3.1563233628
   92      H      -1.6035902862   -10.2371789579    -2.5450647306
   93      H      -0.2730970850   -10.2379234943    -1.4594836479
   94      O      -1.6401716941    -8.1488218759    -0.5133692567
   95      C      -1.1879093815    -7.6898136365    -1.5565692552
   96      C      -1.1758277074    -6.2443209613    -1.8211329694
   97      H      -1.8501163966    -6.1032725874    -2.6741189716
   98      H      -0.1561666478    -5.9287726049    -2.0731023291
   99      C      -1.7204790816    -5.3974095567    -0.5915163814
  100      H      -2.7994107688    -5.5082461374    -0.4233329492
  101      H      -1.2011477704    -5.7883010958     0.2919590250
  102      C      -1.4610511817    -3.8710993717    -0.6543764153
  103      H      -1.3110808557    -3.4857118935     0.3622205515
  104      H      -0.4491902888    -3.6944891008    -1.0394223161
  105      C      -2.5361176722    -3.0779633208    -1.4181782521
  106      C      -2.7390689683    -3.6058628075    -2.8485400606
  107      C      -3.9458923282    -4.2985054349    -3.2348450809
  108      H      -4.6270798176    -4.4816234999    -2.4089786397
  109      C      -4.1052449736    -4.8753043816    -4.4576352139
  110      H      -5.0510588960    -5.3539191507    -4.6905513514
  111      C      -3.1840944157    -4.6643695555    -5.4837064340
  112      H      -3.3177049368    -5.1095276724    -6.4657082057
  113      C      -2.0485907880    -3.8565283276    -5.1599456242
  114      H      -1.3339195483    -3.5620084793    -5.9224284622
  115      C      -1.8547733332    -3.4218739295    -3.8632697401
  116      H      -0.9515078741    -2.8912854616    -3.5768899430
  117      C      -4.3019553019     2.0151237677    -2.6448853787
  118      C      -6.3173640903     0.6515143684    -2.6407839494
  119      C      -8.1102049054     2.3884792743     1.1633867523
  120      C      -1.7968742459     1.3569528027     1.8321543669
  121      C      -7.1139033031    -0.2625184647     3.1542953652
  122      C      -4.9493199874     0.7796278368    -2.9043902312
  123      C      -3.8225685663     0.9561861323     3.7379937085
  124      C      -6.9436084827     3.4910454394    -0.6290935512
  125      C      -6.1139268615    -2.5417141311    -0.1341497432
  126      C      -2.0898898906     0.0303146015     2.2255230426
  127      C      -3.6935552968    -2.5185801301    -0.6476624565
  128      C      -5.3702362630    -2.5876023815     1.0578538484
  129      C      -3.6424342088    -1.3795145439     2.9233926011
  130      C      -5.1956144443     0.8919039323     4.0070361135
  131      C      -5.3785485123    -1.3018460403    -2.1008372631
  132      C      -7.0970621266     2.1814378311     3.2088205817
  133      C      -2.6479102864    -1.6185965681    -1.1737747073
  134      C      -1.8706517605    -0.8611365757    -0.0972648170
  135      C      -7.7440382018     0.9685369522     2.8786169837
  136      C      -4.0150809518     4.1071255819     1.2528835366
  137      C      -6.1964863759     3.9147381676     1.6525126878
  138      C      -6.0844496093     4.0991357715     0.2925453034
  139      C      -6.3808863980     2.9238630655    -1.7741044726
  140      C      -1.7045005006     0.4853524349    -0.5361897571
  141      C      -5.1403327364    -2.3919164645    -1.1626540643
  142      C      -7.0446921119     1.7062088367    -2.1038970641
  143      C      -3.0503366716    -0.1228720516     3.2008798134
  144      C      -6.6143090231    -0.6191916151    -2.1555994378
  145      C      -5.9009381375    -2.0009736226     2.2206845410
  146      C      -2.3327505207     2.7862247239     0.1392986750
  147      C      -7.9247523054     2.5898293045    -0.1938002277
  148      C      -3.9822946057    -2.5706826396     0.8364025488
  149      C      -4.1484993547     3.6483430601    -1.1318414219
  150      C      -5.0994672405    -1.3638073310     3.1431516235
  151      C      -7.3092035152    -1.7664135026    -0.1506923114
  152      C      -4.8000106966     2.9670022791     3.3684489812
  153      C      -3.5331413075     2.2936151587     3.4149434627
  154      C      -7.8424859658    -1.1736755039     1.0574155037
  155      C      -1.7529350841     1.5458821592     0.4490314337
  156      C      -2.1484139021    -1.0429803951     1.3114629842
  157      C      -2.8458427093     3.3265180827     1.2829478749
  158      C      -3.0650835089    -0.4914381512    -2.1228992543
  159      C      -8.2544855201     0.2409373226    -0.6059500359
  160      C      -3.1602224584    -1.8594633468     1.7362700403
  161      C      -7.1521132864    -1.3249252804     2.2442086907
  162      C      -2.9482359249     2.9380424284    -1.1228574571
  163      C      -8.3883688473     1.1240262440     1.6529501858
  164      C      -5.0245832963     3.0237721093    -2.0247238636
  165      C      -7.2791429250     3.0299703163     2.1139903646
  166      C      -7.5723722887    -0.8781689471    -1.1869248173
  167      C      -8.4550281469     0.0147350779     0.7948105430
  168      C      -4.3615242030    -0.4541591464    -2.6227170235
  169      C      -2.3822891298     0.6821026675    -1.7471562802
  170      C      -4.9661433940     3.9100353052     2.2945306236
  171      C      -7.9914630856     1.5375798096    -1.0610087794
  172      C      -5.8402502495    -0.2911683096     3.7356438712
  173      C      -2.5178639661     2.4542910563     2.3675136675
  174      C      -5.8242566613     2.1114084265     3.8170393992
  175      C      -3.0043728406     1.9352851630    -2.0649840480
  176      C      -4.6906023253     4.1891696000     0.0660488164
 ----------------------------------------------------------------

    9   -5804.2273802696      8.32E-06 Convergence criterion met
 Total energy in the final basis set = -5804.2273802696

                    Orbital Energies (a.u.)
 --------------------------------------------------------------

 Alpha MOs
 -- Occupied --
-19.195 -19.190 -19.139 -19.125 -10.316 -10.309 -10.242 -10.241
-10.240 -10.240 -10.239 -10.237 -10.235 -10.233 -10.233 -10.233
-10.231 -10.229 -10.228 -10.227 -10.227 -10.225 -10.225 -10.225
-10.225 -10.223 -10.223 -10.222 -10.222 -10.221 -10.221 -10.221
-10.221 -10.220 -10.220 -10.220 -10.220 -10.219 -10.219 -10.219
-10.219 -10.219 -10.219 -10.218 -10.218 -10.218 -10.218 -10.218
-10.218 -10.218 -10.217 -10.217 -10.217 -10.217 -10.217 -10.217
-10.217 -10.217 -10.216 -10.216 -10.216 -10.216 -10.216 -10.216
-10.216 -10.216 -10.215 -10.215 -10.215 -10.215 -10.215 -10.215
-10.215 -10.215 -10.215 -10.215 -10.215 -10.215 -10.214 -10.214
-10.214 -10.214 -10.214 -10.214 -10.214 -10.214 -10.214 -10.214
-10.213 -10.213 -10.213 -10.213 -10.213 -10.213 -10.213 -10.212
-10.212 -10.212 -10.212 -10.212 -10.212 -10.212 -10.212 -10.212
-10.212 -10.212 -10.212 -10.212 -10.212 -10.211 -10.211 -10.211
-10.211 -10.211 -10.210 -10.210 -10.210 -10.210 -10.210 -10.209
-10.209 -10.209 -10.209 -10.208 -10.208 -10.208 -10.207 -10.207
-10.207 -10.206 -10.206 -10.206 -10.206 -10.205 -10.205 -10.202
-10.200 -10.200 -10.199 -10.199 -10.198 -10.198 -10.197 -10.197
-10.197 -10.196 -10.194 -10.192  -1.107  -1.099  -1.021  -1.006
 -0.989  -0.983  -0.972  -0.970  -0.966  -0.965  -0.964  -0.961
 -0.939  -0.936  -0.934  -0.932  -0.930  -0.927  -0.926  -0.926
 -0.923  -0.922  -0.902  -0.900  -0.898  -0.891  -0.889  -0.885
 -0.881  -0.876  -0.860  -0.853  -0.845  -0.843  -0.841  -0.840
 -0.838  -0.836  -0.825  -0.819  -0.811  -0.803  -0.802  -0.800
 -0.799  -0.797  -0.796  -0.795  -0.794  -0.792  -0.789  -0.782
 -0.776  -0.773  -0.772  -0.770  -0.769  -0.767  -0.766  -0.764
 -0.755  -0.747  -0.746  -0.743  -0.734  -0.733  -0.720  -0.719
 -0.718  -0.717  -0.717  -0.716  -0.714  -0.713  -0.711  -0.710
 -0.709  -0.708  -0.707  -0.705  -0.703  -0.703  -0.675  -0.674
 -0.662  -0.660  -0.658  -0.657  -0.650  -0.646  -0.635  -0.632
 -0.631  -0.630  -0.627  -0.627  -0.624  -0.622  -0.620  -0.618
 -0.616  -0.615  -0.614  -0.613  -0.613  -0.611  -0.610  -0.610
 -0.608  -0.606  -0.605  -0.604  -0.569  -0.569  -0.566  -0.564
 -0.563  -0.562  -0.560  -0.560  -0.559  -0.558  -0.556  -0.553
 -0.539  -0.536  -0.533  -0.532  -0.531  -0.530  -0.528  -0.527
 -0.525  -0.525  -0.524  -0.521  -0.520  -0.516  -0.515  -0.513
 -0.509  -0.508  -0.505  -0.500  -0.496  -0.495  -0.491  -0.489
 -0.487  -0.486  -0.484  -0.483  -0.482  -0.481  -0.479  -0.477
 -0.476  -0.475  -0.473  -0.472  -0.471  -0.470  -0.469  -0.468
 -0.468  -0.467  -0.467  -0.464  -0.463  -0.461  -0.460  -0.459
 -0.456  -0.455  -0.453  -0.450  -0.449  -0.447  -0.446  -0.445
 -0.444  -0.443  -0.442  -0.442  -0.439  -0.436  -0.435  -0.435
 -0.433  -0.432  -0.431  -0.429  -0.428  -0.427  -0.426  -0.425
 -0.424  -0.424  -0.424  -0.423  -0.422  -0.421  -0.421  -0.419
 -0.419  -0.418  -0.418  -0.417  -0.416  -0.415  -0.414  -0.413
 -0.413  -0.412  -0.411  -0.407  -0.402  -0.400  -0.397  -0.396
 -0.395  -0.393  -0.393  -0.391  -0.391  -0.388  -0.386  -0.381
 -0.381  -0.376  -0.376  -0.375  -0.373  -0.372  -0.369  -0.367
 -0.367  -0.366  -0.365  -0.365  -0.364  -0.363  -0.362  -0.361
 -0.360  -0.358  -0.357  -0.355  -0.354  -0.353  -0.353  -0.350
 -0.350  -0.348  -0.348  -0.348  -0.346  -0.346  -0.345  -0.345
 -0.343  -0.342  -0.342  -0.341  -0.339  -0.337  -0.337  -0.336
 -0.333  -0.332  -0.331  -0.330  -0.328  -0.327  -0.324  -0.323
 -0.311  -0.306  -0.297  -0.295  -0.289  -0.287  -0.276  -0.273
 -0.272  -0.270  -0.270  -0.268  -0.267  -0.267  -0.265  -0.264
 -0.263  -0.262  -0.261  -0.261  -0.259  -0.258  -0.257  -0.253
 -0.251  -0.250  -0.244  -0.243  -0.221  -0.220  -0.216  -0.213
 -0.210  -0.209  -0.207  -0.205  -0.202  -0.201

          Ground-State Mulliken Net Atomic Charges

     Atom                 Charge (a.u.)
  ----------------------------------------
      1 O                    -0.463177
      2 C                    -0.079079
      3 H                     0.119975
      4 H                     0.122907
      5 H                     0.121599
      6 O                    -0.459707
      7 C                     0.591613
      8 C                    -0.241095
      9 H                     0.136249
     10 H                     0.123849
     11 C                    -0.202237
     12 H                     0.118845
     13 H                     0.108326
     14 C                    -0.178908
     15 H                     0.101610
     16 H                     0.134475
     17 C                     0.016635
     18 C                     0.081162
     19 C                    -0.101136
     20 H                     0.094968
     21 C                    -0.109220
     22 H                     0.088921
     23 C                    -0.071858
     24 H                     0.096969
     25 C                    -0.096939
     26 H                     0.089127
     27 C                    -0.096957
     28 H                     0.092138
     29 C                     0.014208
     30 C                     0.000673
     31 C                    -0.018942
     32 C                    -0.005253
     33 C                    -0.006502
     34 C                    -0.016820
     35 C                     0.019969
     36 C                    -0.005043
     37 C                    -0.030585
     38 C                    -0.039311
     39 C                    -0.087458
     40 C                     0.037940
     41 C                    -0.004702
     42 C                     0.007772
     43 C                     0.024112
     44 C                     0.024305
     45 C                    -0.101271
     46 C                     0.050833
     47 C                    -0.010636
     48 C                     0.026473
     49 C                    -0.013649
     50 C                     0.018390
     51 C                    -0.020825
     52 C                     0.025025
     53 C                     0.018448
     54 C                    -0.007001
     55 C                     0.013097
     56 C                     0.000950
     57 C                     0.011090
     58 C                    -0.000698
     59 C                     0.005885
     60 C                     0.026502
     61 C                    -0.011768
     62 C                    -0.036955
     63 C                     0.029391
     64 C                    -0.038302
     65 C                     0.015964
     66 C                    -0.051554
     67 C                     0.017692
     68 C                    -0.013064
     69 C                    -0.034904
     70 C                     0.025342
     71 C                     0.006361
     72 C                    -0.019497
     73 C                     0.027603
     74 C                     0.000475
     75 C                     0.005670
     76 C                    -0.012311
     77 C                    -0.010493
     78 C                    -0.015380
     79 C                     0.001991
     80 C                     0.028447
     81 C                    -0.025587
     82 C                     0.004148
     83 C                     0.022465
     84 C                    -0.005014
     85 C                     0.008921
     86 C                    -0.015249
     87 C                    -0.001203
     88 C                     0.006844
     89 O                    -0.443348
     90 C                    -0.089425
     91 H                     0.119653
     92 H                     0.121814
     93 H                     0.127664
     94 O                    -0.484280
     95 C                     0.601130
     96 C                    -0.270203
     97 H                     0.150753
     98 H                     0.130238
     99 C                    -0.174433
    100 H                     0.111781
    101 H                     0.121539
    102 C                    -0.201944
    103 H                     0.109040
    104 H                     0.103214
    105 C                     0.013394
    106 C                     0.090037
    107 C                    -0.101268
    108 H                     0.090781
    109 C                    -0.099340
    110 H                     0.093163
    111 C                    -0.088924
    112 H                     0.096984
    113 C                    -0.091008
    114 H                     0.092854
    115 C                    -0.106695
    116 H                     0.083336
    117 C                    -0.022967
    118 C                     0.003101
    119 C                     0.010095
    120 C                    -0.017765
    121 C                     0.011854
    122 C                    -0.007932
    123 C                     0.040646
    124 C                    -0.013996
    125 C                    -0.019336
    126 C                    -0.015948
    127 C                    -0.075365
    128 C                     0.010787
    129 C                    -0.063289
    130 C                     0.016067
    131 C                     0.014094
    132 C                    -0.021459
    133 C                    -0.081727
    134 C                     0.008508
    135 C                    -0.002292
    136 C                    -0.020490
    137 C                    -0.004721
    138 C                     0.021370
    139 C                    -0.001395
    140 C                     0.017581
    141 C                    -0.014382
    142 C                    -0.020334
    143 C                     0.014713
    144 C                     0.012721
    145 C                     0.014867
    146 C                     0.012404
    147 C                     0.008652
    148 C                     0.049339
    149 C                    -0.018040
    150 C                    -0.013978
    151 C                     0.009897
    152 C                    -0.001755
    153 C                    -0.045171
    154 C                     0.005834
    155 C                    -0.000288
    156 C                     0.036343
    157 C                     0.018831
    158 C                     0.033602
    159 C                    -0.034771
    160 C                     0.024625
    161 C                    -0.022358
    162 C                    -0.006383
    163 C                     0.003920
    164 C                     0.029821
    165 C                    -0.003268
    166 C                    -0.003325
    167 C                     0.006294
    168 C                     0.008711
    169 C                     0.003417
    170 C                    -0.008388
    171 C                     0.021024
    172 C                    -0.016616
    173 C                    -0.016327
    174 C                     0.014091
    175 C                    -0.009013
    176 C                     0.007295
  ----------------------------------------
  Sum of atomic charges =     0.000000

                    Cartesian Multipole Moments
 -----------------------------------------------------------------
    Charge (ESU x 10^10)
                 0.0000
    Dipole Moment (Debye)
         X      -0.3675      Y       0.5590      Z      -3.4249
       Tot       3.4896
    Quadrupole Moments (Debye-Ang)
        XX    -828.8688     XY      -6.1991     YY    -790.6965
        XZ       8.2307     YZ      19.8375     ZZ    -789.8160

 Total job time:  874.23s(wall), 7459.21s(cpu)
        *  Thank you very much for using Q-Chem.  Have a nice day.  *
