 Q-Chem 4.4, Q-Chem, Inc., Pleasanton, CA (2016)
 Q-Chem 4.4.2 for Intel X86 Linux

User input:
--------------------------------------------------------------
$comment
SP
$end

$rem
MEM_STATIC 5000
MEM_TOTAL 20000
JOBTYPE SP
EXCHANGE B3LYP
BASIS 6-31g(d,p)
$end

$molecule
0 1
O          -7.460000     33.374000    -14.429000
C          -6.867000     33.576000    -15.742000
H          -7.486000     33.112000    -16.520000
H          -5.808000     33.289000    -15.729000
H          -6.945000     34.635000    -16.015000
O          -7.779000     31.050000    -14.600000
C          -7.992000     32.101000    -14.004000
C          -8.694000     32.139000    -12.739000
H          -9.774000     32.170000    -12.930000
H          -8.444000     33.152000    -12.402000
C          -8.351000     31.112000    -11.692000
H          -8.368000     30.142000    -12.205000
H          -7.315000     31.224000    -11.348000
C          -9.311000     31.080000    -10.488000
H          -8.834000     30.990000     -9.504000
H          -9.856000     32.028000    -10.401000
C         -10.330000     29.887000    -10.642000
C         -11.229000     30.093000    -11.783000
C         -10.910000     29.329000    -12.929000
H         -10.144000     28.559000    -12.936000
C         -11.619000     29.566000    -14.115000
H         -11.380000     28.909000    -14.947000
C         -12.692000     30.526000    -14.112000
H         -13.264000     30.623000    -15.031000
C         -12.943000     31.253000    -12.968000
H         -13.729000     32.002000    -12.943000
C         -12.241000     31.037000    -11.760000
H         -12.381000     31.743000    -10.947000
C         -14.040000     27.115000     -7.627000
C         -13.432000     25.559000     -9.370000
C         -11.160000     22.706000     -6.887000
C          -9.912000     28.811000     -5.256000
C          -8.004000     24.006000     -7.703000
C         -13.673000     26.850000     -8.962000
C          -8.046000     26.666000     -5.253000
C         -13.275000     23.819000     -6.330000
C          -9.697000     26.149000    -10.638000
C          -8.857000     28.807000     -6.193000
C         -10.057000     28.463000    -10.164000
C          -8.560000     26.637000    -10.030000
C          -7.602000     27.503000     -7.518000
C          -7.767000     25.397000     -5.678000
C         -12.057000     26.995000    -10.558000
C          -9.357000     23.473000     -5.719000
C         -10.899000     29.359000     -9.352000
C         -10.359000     29.683000     -7.985000
C          -8.946000     23.191000     -7.037000
C         -11.836000     26.134000     -4.042000
C         -11.522000     23.975000     -4.746000
C         -12.785000     24.290000     -5.086000
C         -13.992000     24.702000     -7.158000
C         -11.380000     29.575000     -7.024000
C         -10.634000     27.223000    -10.716000
C         -13.602000     24.521000     -8.507000
C          -7.933000     27.763000     -6.176000
C         -12.413000     25.635000    -10.316000
C          -7.779000     25.710000     -9.193000
C         -12.114000     28.308000     -5.016000
C         -12.500000     23.035000     -7.211000
C          -8.743000     27.939000     -9.580000
C         -13.646000     26.502000     -5.481000
C          -7.312000     26.162000     -7.949000
C         -10.086000     24.860000    -10.489000
C          -9.582000     25.350000     -4.234000
C          -9.101000     26.681000     -4.324000
C          -9.406000     23.969000     -9.696000
C         -11.201000     29.184000     -5.652000
C          -9.087000     29.232000     -7.479000
C         -11.380000     27.479000     -4.174000
C         -12.302000     28.899000     -9.059000
C         -11.584000     23.470000     -9.509000
C          -8.273000     28.460000     -8.329000
C          -8.211000     24.367000     -9.035000
C         -13.251000     27.804000     -5.707000
C         -10.052000     22.688000     -7.768000
C         -14.181000     26.007000     -6.721000
C         -10.743000     23.140000     -5.580000
C         -11.495000     24.570000    -10.407000
C         -10.314000     23.095000     -9.105000
C         -12.801000     27.735000     -9.684000
C         -12.542000     29.056000     -7.691000
C         -10.881000     25.076000     -4.065000
C         -12.651000     23.501000     -8.527000
C          -7.440000     25.102000     -7.050000
C         -10.031000     27.743000     -4.320000
C          -8.701000     24.560000     -5.009000
C         -13.466000     28.222000     -7.003000
C         -12.954000     25.638000     -4.619000
O          -9.914000     15.272000     -0.952000
C          -9.008000     15.634000     -2.005000
H          -9.231000     16.642000     -2.376000
H          -9.168000     15.048000     -2.919000
H          -8.012000     15.438000     -1.589000
O         -11.848000     15.545000     -2.169000
C         -11.299000     15.192000     -1.148000
C         -12.087000     14.798000      0.066000
H         -11.826000     13.773000      0.360000
H         -13.160000     14.775000     -0.158000
C         -11.927000     15.784000      1.273000
H         -12.347000     15.412000      2.216000
H         -10.886000     16.101000      1.409000
C         -12.817000     17.004000      1.064000
H         -12.465000     17.624000      0.231000
H         -13.828000     16.728000      0.739000
C         -12.836000     17.955000      2.244000
C         -13.709000     17.417000      3.374000
C         -13.163000     16.465000      4.272000
H         -12.109000     16.204000      4.290000
C         -13.930000     15.884000      5.293000
H         -13.542000     15.215000      6.056000
C         -15.302000     16.191000      5.348000
H         -16.039000     15.781000      6.032000
C         -15.834000     17.221000      4.535000
H         -16.869000     17.532000      4.634000
C         -15.059000     17.819000      3.516000
H         -15.424000     18.568000      2.819000
C         -13.039000     23.187000      3.902000
C         -11.709000     22.248000      5.609000
C          -7.754000     24.212000      4.178000
C         -11.364000     22.285000     -0.793000
C          -6.687000     21.329000      2.260000
C         -12.789000     22.149000      4.797000
C          -8.607000     22.089000     -0.637000
C         -10.026000     25.101000      4.410000
C          -9.606000     19.222000      3.931000
C         -10.721000     21.025000     -0.731000
C         -11.525000     18.729000      2.624000
C          -9.142000     18.829000      2.684000
C          -9.025000     19.833000      0.115000
C          -7.498000     22.236000      0.200000
C         -11.753000     20.137000      4.779000
C          -7.008000     23.768000      2.027000
C         -12.655000     19.451000      2.017000
C         -12.430000     20.168000      0.780000
C          -6.602000     22.716000      2.817000
C         -10.591000     25.212000      0.900000
C          -8.765000     25.389000      2.300000
C          -9.899000     25.572000      3.080000
C         -11.197000     24.526000      4.883000
C         -13.000000     21.471000      0.807000
C         -11.035000     19.187000      3.949000
C         -10.912000     23.429000      5.685000
C          -9.338000     20.916000     -0.716000
C         -11.051000     20.971000      5.597000
C          -7.929000     19.389000      2.223000
C         -12.447000     23.801000      0.500000
C          -8.967000     24.355000      4.892000
C         -10.235000     18.660000      1.825000
C         -12.196000     24.904000      2.710000
C          -7.879000     19.937000      0.905000
C          -8.876000     20.048000      4.821000
C          -8.568000     24.200000      0.184000
C          -9.275000     23.333000     -0.704000
C          -7.697000     20.550000      4.323000
C         -12.483000     22.513000      0.007000
C         -11.209000     19.998000      0.065000
C         -11.305000     24.385000      0.053000
C         -13.264000     20.562000      2.871000
C          -8.880000     22.070000      5.688000
C         -10.179000     19.204000      0.517000
C          -7.192000     20.266000      3.065000
C         -12.975000     24.090000      1.814000
C          -7.177000     22.927000      4.091000
C         -12.258000     24.339000      3.942000
C          -7.712000     24.662000      2.826000
C          -9.656000     20.891000      5.597000
C          -7.684000     21.860000      4.880000
C         -12.897000     20.782000      4.250000
C         -13.608000     21.734000      2.068000
C          -9.171000     25.192000      0.927000
C          -9.515000     23.318000      5.623000
C          -7.121000     21.146000      0.978000
C         -10.626000     23.462000     -0.735000
C          -7.454000     23.544000      0.704000
C         -13.546000     23.040000      2.588000
C         -11.001000     25.466000      2.191000
$end

--------------------------------------------------------------

             Standard Nuclear Orientation (Angstroms)
    I     Atom           X                Y                Z
 ----------------------------------------------------------------
    1      O     -14.6405247212     2.5259825454    -1.5507975118
    2      C     -15.8808717941     2.2361003280    -2.2535986491
    3      H     -16.2510629844     1.2384028349    -1.9865795580
    4      H     -15.7670531332     2.4406544617    -3.3256163349
    5      H     -16.6801602731     2.8710029595    -1.8534354624
    6      O     -13.5080247260     0.5429758530    -2.1139193623
    7      C     -13.5673592716     1.5666649332    -1.4403274394
    8      C     -12.4919763007     1.9716785315    -0.5605613050
    9      H     -12.6152510975     1.4721994616     0.4085444598
   10      H     -12.7709897591     3.0149630137    -0.3709644188
   11      C     -11.0740093281     1.8643146740    -1.0569781326
   12      H     -10.9775291900     0.8546529519    -1.4760637919
   13      H     -10.8977456380     2.5342400181    -1.9080404951
   14      C      -9.9990004334     2.0831494176     0.0240895024
   15      H      -9.1485797018     2.7094041286    -0.2733573265
   16      H     -10.4129074405     2.6355028326     0.8766648330
   17      C      -9.4306307219     0.6948026013     0.5086253511
   18      C     -10.4546358060    -0.0899814924     1.2072278947
   19      C     -11.0175137207    -1.1369957455     0.4419157970
   20      H     -10.6440116578    -1.4256948326    -0.5362733699
   21      C     -12.1055261149    -1.8466715389     0.9692063226
   22      H     -12.4590614258    -2.6818102873     0.3704158294
   23      C     -12.5701239959    -1.5360763619     2.2960889267
   24      H     -13.3650923249    -2.1608462011     2.6946388030
   25      C     -11.9922461032    -0.4915283795     2.9854673813
   26      H     -12.3382688944    -0.2174028887     3.9777100145
   27      C     -10.8968183242     0.2427247579     2.4759241435
   28      H     -10.5907134655     1.1443006242     2.9979066842
   29      C      -5.2141447354    -1.3202105003     3.4580790508
   30      C      -5.8627367356    -3.1643519990     2.0412800001
   31      C      -2.3462232354    -3.1633271522    -0.6234927393
   32      C      -4.3503664446     2.8163036882     0.6865129893
   33      C      -3.8925587222    -1.3533268081    -3.2020460772
   34      C      -6.2084949315    -2.0658524589     2.7929288745
   35      C      -3.2776955182     1.9183553379    -1.7885740483
   36      C      -2.3772440871    -2.8603472129     1.8115604148
   37      C      -7.4320534211    -1.9002814287    -1.4004520832
   38      C      -5.1866295234     2.7450448216    -0.4477692670
   39      C      -8.2711949406    -0.0356597489    -0.1643697632
   40      C      -7.2432425824    -0.7682807789    -2.1643251067
   41      C      -5.6534389561     1.5626237130    -2.2957506727
   42      C      -2.9600156750     0.8427833254    -2.5702717925
   43      C      -7.7062151075    -2.1428014660     1.0810263876
   44      C      -1.8721078753    -1.2683800102    -1.8015046045
   45      C      -8.0340146630     0.7340562528     1.0694887345
   46      C      -7.0899445972     1.8977206498     0.9284856068
   47      C      -2.8451709446    -2.0009026241    -2.5101144289
   48      C      -1.7848997036     0.6474376008     1.7142781841
   49      C      -1.2204284245    -1.2358179624     0.5352049638
   50      C      -1.6135583307    -1.6678236135     1.7471513300
   51      C      -3.5148326362    -2.8967763325     2.6385593340
   52      C      -6.1745169520     1.9094448348     1.9959502526
   53      C      -8.0331697257    -1.4911723893    -0.1721125608
   54      C      -4.5676144646    -3.5766365679     1.9796947940
   55      C      -4.6522976721     2.3222213229    -1.6642028910
   56      C      -6.7481329823    -3.1934942947     0.9669070607
   57      C      -6.0774330948    -0.7355499209    -3.0641450496
   58      C      -3.7667662577     1.6912859917     2.5714954837
   59      C      -2.7296919279    -3.6066999389     0.6669294141
   60      C      -7.5626222294     0.3830481164    -1.4546551721
   61      C      -3.1013656068    -0.5257962601     3.2546303625
   62      C      -5.3023011969     0.4334646121    -3.1141906514
   63      C      -6.5888314286    -2.9578312034    -1.4753396349
   64      C      -1.6330227823     0.8377526582    -0.6674752834
   65      C      -2.4541068008     1.9938654680    -0.6517843382
   66      C      -5.4744215011    -2.9600823406    -2.2773467706
   67      C      -4.8206214608     2.3893683032     1.9331293685
   68      C      -6.4842868890     2.3152880434    -0.3109647602
   69      C      -2.6475591668     1.7827300834     1.7505360050
   70      C      -7.4690311528    -0.0167582877     2.2454688190
   71      C      -4.9386395935    -4.0999390838    -0.4222677016
   72      C      -6.8191795170     1.6093854833    -1.4817032038
   73      C      -5.1952439887    -1.8464809753    -3.1171693209
   74      C      -4.0165206492     0.5043181658     3.3151325756
   75      C      -3.1305612233    -3.1955401392    -1.8015951305
   76      C      -3.8464444346    -1.7522236240     3.3525255185
   77      C      -1.5060008177    -1.9952004326    -0.6229870204
   78      C      -6.2927046333    -3.6903379697    -0.2704131814
   79      C      -4.4596445330    -3.6778728218    -1.6507483903
   80      C      -7.3373247361    -1.4213693751     2.1803296361
   81      C      -6.3947637638     0.7135987179     2.7614157362
   82      C      -1.2780708350     0.2055237748     0.4573952665
   83      C      -4.0786735802    -3.9896443419     0.7405166833
   84      C      -3.9671445129     0.0395003612    -3.2158459427
   85      C      -2.9802852245     2.4388598699     0.5802368664
   86      C      -1.8985813748     0.1831490572    -1.8929787552
   87      C      -5.3195168373     0.0699744775     3.4339243860
   88      C      -1.9443162722    -0.4672038133     2.4632974600
   89      O       6.6005971129    -5.2741078714    -3.3694183413
   90      C       5.4760069375    -5.1850817281    -4.2571459365
   91      H       4.6293850889    -4.6965364302    -3.7591610599
   92      H       5.0350499443    -6.1653075571    -4.4787452467
   93      H       5.8816487176    -4.7282721371    -5.1683362261
   94      O       5.5280186720    -6.4539881782    -1.7100714969
   95      C       6.5484884829    -5.9805941295    -2.1606161003
   96      C       7.8196006710    -5.9645972590    -1.3643787579
   97      H       8.6089629829    -6.4908377208    -1.9167917528
   98      H       7.6975763110    -6.5194493991    -0.4266777618
   99      C       8.2894424380    -4.5287843063    -0.9492463947
  100      H       9.3030058765    -4.4910465001    -0.5305603379
  101      H       8.1798416214    -3.8080317040    -1.7684956530
  102      C       7.4969471400    -4.0575637585     0.2648719678
  103      H       6.4445689918    -3.8765127271     0.0160472158
  104      H       7.4242960236    -4.8327312846     1.0380208033
  105      C       7.9720255572    -2.7326945721     0.8271744987
  106      C       9.2549857336    -2.9030559774     1.6355451917
  107      C      10.4972089981    -2.9503101017     0.9532898078
  108      H      10.6013733155    -2.7253486293    -0.1040195750
  109      C      11.7067821180    -3.1679223236     1.6299498320
  110      H      12.6901913906    -3.1314183644     1.1696807113
  111      C      11.6547311940    -3.4452584490     3.0083668135
  112      H      12.4874279281    -3.6945983466     3.6591899573
  113      C      10.4408164058    -3.2892964881     3.7203919210
  114      H      10.4067341156    -3.4084073107     4.7985375557
  115      C       9.2233054781    -3.0545645435     3.0427798970
  116      H       8.2507356617    -2.9870935724     3.5219360514
  117      C       6.5360650761     2.0256825916     3.1638091010
  118      C       8.4108007294     2.7135986023     1.9081786647
  119      C       5.9488419997     5.0262732820    -1.2757461207
  120      C       3.0037099426    -0.4227144282     0.4823779078
  121      C       5.8501151412     2.2620416578    -3.6162970249
  122      C       7.8371293914     1.7950251793     2.7222235422
  123      C       3.1036431780     0.5924428652    -2.0911935441
  124      C       5.7744815707     4.9294449741     1.1668655389
  125      C       8.5393639281     0.3715311526    -1.3923001741
  126      C       3.7068830163    -1.0972792914    -0.5449501186
  127      C       7.8058693149    -1.4320590569    -0.0347630628
  128      C       7.6834004155    -0.3880667823    -2.1765778305
  129      C       4.9783931200    -0.9019225397    -2.3774603629
  130      C       3.6708156770     1.5718513756    -2.9104208179
  131      C       8.8613743780     0.6611830194     1.0527660962
  132      C       4.3482421071     3.8727218716    -2.4955215620
  133      C       6.9614946495    -1.6395272308     1.1529327658
  134      C       5.5239764568    -1.6428109010     0.9843692369
  135      C       5.5610629042     3.6386140108    -3.1037149716
  136      C       2.7982980190     2.9824678537     1.1097905059
  137      C       3.7857598684     4.5568384204    -0.2583766676
  138      C       4.3972129763     4.6523921164     0.9845390931
  139      C       6.5412534109     4.2750748981     2.1205194325
  140      C       4.8685079569    -0.8609273528     1.9755590082
  141      C       8.6445446816    -0.2076791493    -0.0895943611
  142      C       7.7945591367     3.9653172815     1.6095272832
  143      C       3.7097467749    -0.6287819958    -1.8508203583
  144      C       9.0603750656     1.9938421019     0.8480651039
  145      C       6.9327369387     0.2775816294    -3.1720207151
  146      C       3.3201748109     0.9722482311     2.2421856150
  147      C       6.5305544236     5.0262895259     0.0139145539
  148      C       7.1089068921    -1.3892754768    -1.3837163409
  149      C       4.5633470951     3.0499510225     2.7911699340
  150      C       5.5276162436     0.0350663800    -3.2541802298
  151      C       8.8017009886     1.7462228458    -1.6129311225
  152      C       2.6457693152     2.6382532400    -1.2327679873
  153      C       2.4061952888     1.2424190290    -1.0474759441
  154      C       8.0531417362     2.3352707517    -2.6042588232
  155      C       3.6067935271    -0.2766915810     1.7310221799
  156      C       4.9556664080    -1.6607544120    -0.3224083718
  157      C       2.5717744981     1.6354713220     1.3229135641
  158      C       7.1057381086    -0.5928563338     2.2566500566
  159      C       8.4328058367     3.7310766892    -0.7385967542
  160      C       5.7140442053    -1.6273223669    -1.4710534062
  161      C       7.1268124210     1.6691124600    -3.3893652684
  162      C       4.2919092403     1.6620375746     3.0600021349
  163      C       6.5438759640     4.2299176610    -2.2774822667
  164      C       5.9061472052     3.2304732205     2.8632296335
  165      C       4.5687358706     4.6884713806    -1.3913529885
  166      C       9.0343364142     2.4814050871    -0.4611443233
  167      C       7.8094210740     3.6249088764    -2.0529406335
  168      C       8.1248700076     0.4297922576     2.2396197636
  169      C       5.8138648770    -0.2497080794     2.8482933857
  170      C       2.7611307999     3.5394607219    -0.1963130667
  171      C       7.7332246759     4.3981039555     0.2765952599
  172      C       4.8956175029     1.2912234765    -3.5075987390
  173      C       2.3774748990     0.7934829693     0.2333185568
  174      C       3.3821815825     2.8448343929    -2.3975654804
  175      C       5.5388399662     1.0370769999     3.3467163567
  176      C       3.7638457197     3.6801470492     1.8027972721
 ----------------------------------------------------------------

    9   -5804.2556899006      8.96E-06 Convergence criterion met
 Total energy in the final basis set = -5804.2556899006

                    Orbital Energies (a.u.)
 --------------------------------------------------------------

 Alpha MOs
 -- Occupied --
-19.186 -19.182 -19.138 -19.137 -10.319 -10.318 -10.244 -10.244
-10.242 -10.240 -10.238 -10.237 -10.237 -10.237 -10.234 -10.233
-10.232 -10.230 -10.230 -10.227 -10.225 -10.224 -10.223 -10.223
-10.222 -10.221 -10.221 -10.221 -10.221 -10.220 -10.220 -10.220
-10.219 -10.219 -10.219 -10.218 -10.218 -10.217 -10.217 -10.217
-10.217 -10.217 -10.217 -10.217 -10.217 -10.217 -10.217 -10.217
-10.216 -10.216 -10.216 -10.216 -10.216 -10.216 -10.216 -10.215
-10.215 -10.215 -10.215 -10.215 -10.215 -10.215 -10.215 -10.215
-10.215 -10.214 -10.214 -10.214 -10.214 -10.214 -10.214 -10.214
-10.214 -10.214 -10.213 -10.213 -10.213 -10.213 -10.213 -10.213
-10.213 -10.213 -10.213 -10.213 -10.213 -10.212 -10.212 -10.212
-10.212 -10.212 -10.212 -10.212 -10.212 -10.212 -10.212 -10.211
-10.211 -10.211 -10.211 -10.210 -10.210 -10.210 -10.210 -10.210
-10.210 -10.210 -10.210 -10.210 -10.210 -10.210 -10.209 -10.209
-10.209 -10.209 -10.209 -10.209 -10.209 -10.209 -10.208 -10.208
-10.208 -10.208 -10.208 -10.208 -10.208 -10.207 -10.207 -10.207
-10.207 -10.206 -10.206 -10.206 -10.206 -10.206 -10.203 -10.203
-10.202 -10.202 -10.202 -10.201 -10.201 -10.201 -10.201 -10.198
-10.198 -10.197 -10.197 -10.196  -1.083  -1.066  -1.010  -1.000
 -0.983  -0.980  -0.965  -0.963  -0.963  -0.960  -0.958  -0.958
 -0.934  -0.933  -0.931  -0.925  -0.923  -0.922  -0.921  -0.920
 -0.916  -0.916  -0.899  -0.896  -0.889  -0.889  -0.882  -0.881
 -0.874  -0.870  -0.854  -0.851  -0.840  -0.839  -0.838  -0.835
 -0.835  -0.832  -0.821  -0.820  -0.811  -0.806  -0.798  -0.797
 -0.794  -0.794  -0.793  -0.792  -0.790  -0.787  -0.783  -0.782
 -0.770  -0.768  -0.766  -0.766  -0.764  -0.763  -0.763  -0.762
 -0.753  -0.750  -0.743  -0.741  -0.732  -0.731  -0.714  -0.714
 -0.712  -0.712  -0.711  -0.710  -0.709  -0.709  -0.708  -0.707
 -0.705  -0.704  -0.704  -0.703  -0.702  -0.700  -0.673  -0.672
 -0.658  -0.656  -0.656  -0.654  -0.648  -0.647  -0.631  -0.629
 -0.629  -0.627  -0.625  -0.625  -0.622  -0.622  -0.619  -0.616
 -0.613  -0.612  -0.610  -0.610  -0.610  -0.609  -0.608  -0.607
 -0.606  -0.605  -0.602  -0.600  -0.565  -0.565  -0.564  -0.562
 -0.561  -0.558  -0.557  -0.556  -0.553  -0.552  -0.552  -0.551
 -0.536  -0.536  -0.531  -0.530  -0.529  -0.527  -0.523  -0.522
 -0.521  -0.519  -0.518  -0.517  -0.517  -0.514  -0.513  -0.512
 -0.505  -0.505  -0.503  -0.498  -0.493  -0.492  -0.486  -0.484
 -0.483  -0.481  -0.478  -0.478  -0.477  -0.476  -0.474  -0.473
 -0.471  -0.470  -0.468  -0.468  -0.467  -0.466  -0.465  -0.465
 -0.463  -0.462  -0.462  -0.462  -0.460  -0.459  -0.458  -0.456
 -0.455  -0.453  -0.451  -0.451  -0.448  -0.445  -0.444  -0.443
 -0.439  -0.439  -0.438  -0.436  -0.435  -0.435  -0.434  -0.433
 -0.432  -0.430  -0.428  -0.428  -0.427  -0.426  -0.424  -0.423
 -0.422  -0.422  -0.420  -0.420  -0.420  -0.419  -0.417  -0.417
 -0.416  -0.415  -0.415  -0.414  -0.413  -0.413  -0.411  -0.411
 -0.410  -0.409  -0.408  -0.407  -0.404  -0.402  -0.397  -0.396
 -0.394  -0.391  -0.389  -0.388  -0.388  -0.386  -0.386  -0.383
 -0.380  -0.375  -0.374  -0.373  -0.368  -0.368  -0.365  -0.365
 -0.364  -0.363  -0.362  -0.361  -0.360  -0.359  -0.359  -0.357
 -0.357  -0.356  -0.355  -0.353  -0.353  -0.351  -0.351  -0.350
 -0.348  -0.348  -0.346  -0.345  -0.345  -0.344  -0.343  -0.342
 -0.341  -0.339  -0.339  -0.338  -0.337  -0.334  -0.334  -0.333
 -0.331  -0.331  -0.329  -0.327  -0.325  -0.324  -0.324  -0.324
 -0.307  -0.306  -0.294  -0.293  -0.289  -0.286  -0.272  -0.269
 -0.268  -0.268  -0.267  -0.266  -0.266  -0.265  -0.263  -0.262
 -0.260  -0.260  -0.259  -0.259  -0.256  -0.256  -0.255  -0.253
 -0.250  -0.249  -0.242  -0.241  -0.223  -0.221  -0.209  -0.208
 -0.208  -0.207  -0.205  -0.204  -0.196  -0.196

          Ground-State Mulliken Net Atomic Charges

     Atom                 Charge (a.u.)
  ----------------------------------------
      1 O                    -0.509989
      2 C                    -0.072949
      3 H                     0.125739
      4 H                     0.126954
      5 H                     0.121446
      6 O                    -0.461403
      7 C                     0.600514
      8 C                    -0.261165
      9 H                     0.155522
     10 H                     0.126325
     11 C                    -0.184188
     12 H                     0.132961
     13 H                     0.110715
     14 C                    -0.185460
     15 H                     0.109898
     16 H                     0.110475
     17 C                    -0.003012
     18 C                     0.084808
     19 C                    -0.086835
     20 H                     0.104934
     21 C                    -0.100922
     22 H                     0.097284
     23 C                    -0.079808
     24 H                     0.093898
     25 C                    -0.098147
     26 H                     0.088809
     27 C                    -0.105082
     28 H                     0.095561
     29 C                    -0.026162
     30 C                     0.035733
     31 C                    -0.008556
     32 C                    -0.016435
     33 C                     0.007434
     34 C                    -0.016001
     35 C                     0.007414
     36 C                     0.013935
     37 C                     0.040293
     38 C                     0.013468
     39 C                    -0.073045
     40 C                     0.001979
     41 C                    -0.013345
     42 C                     0.002769
     43 C                    -0.015075
     44 C                    -0.007129
     45 C                    -0.091133
     46 C                     0.033413
     47 C                     0.010439
     48 C                     0.010174
     49 C                    -0.000317
     50 C                     0.012801
     51 C                    -0.010324
     52 C                    -0.010290
     53 C                     0.003092
     54 C                     0.007485
     55 C                    -0.001724
     56 C                    -0.001915
     57 C                    -0.037180
     58 C                    -0.011633
     59 C                    -0.019591
     60 C                     0.044765
     61 C                    -0.004506
     62 C                     0.007458
     63 C                    -0.000915
     64 C                     0.014508
     65 C                    -0.001660
     66 C                     0.024801
     67 C                    -0.014904
     68 C                     0.007208
     69 C                     0.009705
     70 C                     0.032532
     71 C                     0.005329
     72 C                    -0.038137
     73 C                    -0.003572
     74 C                     0.011845
     75 C                    -0.003277
     76 C                    -0.002764
     77 C                    -0.007146
     78 C                    -0.036999
     79 C                    -0.003030
     80 C                     0.014270
     81 C                     0.006585
     82 C                     0.004781
     83 C                    -0.001148
     84 C                    -0.001971
     85 C                    -0.003563
     86 C                    -0.028988
     87 C                     0.010213
     88 C                    -0.018484
     89 O                    -0.485824
     90 C                    -0.078655
     91 H                     0.128962
     92 H                     0.123719
     93 H                     0.128425
     94 O                    -0.454924
     95 C                     0.596616
     96 C                    -0.248920
     97 H                     0.123939
     98 H                     0.133103
     99 C                    -0.189596
    100 H                     0.108627
    101 H                     0.122870
    102 C                    -0.184076
    103 H                     0.113870
    104 H                     0.115056
    105 C                    -0.001203
    106 C                     0.093590
    107 C                    -0.118581
    108 H                     0.099688
    109 C                    -0.093973
    110 H                     0.098049
    111 C                    -0.082087
    112 H                     0.091166
    113 C                    -0.096848
    114 H                     0.092293
    115 C                    -0.097433
    116 H                     0.095264
    117 C                     0.032664
    118 C                     0.019854
    119 C                    -0.029334
    120 C                    -0.021067
    121 C                    -0.018520
    122 C                    -0.027216
    123 C                     0.014094
    124 C                     0.004149
    125 C                    -0.015169
    126 C                     0.009936
    127 C                    -0.071148
    128 C                     0.026417
    129 C                    -0.005787
    130 C                    -0.003727
    131 C                    -0.007038
    132 C                     0.018324
    133 C                    -0.087531
    134 C                     0.039221
    135 C                    -0.017724
    136 C                     0.010153
    137 C                    -0.004273
    138 C                     0.006461
    139 C                    -0.026969
    140 C                     0.000669
    141 C                     0.042467
    142 C                    -0.014531
    143 C                    -0.021653
    144 C                     0.012815
    145 C                    -0.041795
    146 C                     0.007515
    147 C                     0.023059
    148 C                     0.010749
    149 C                    -0.023023
    150 C                    -0.006145
    151 C                     0.007328
    152 C                     0.005069
    153 C                     0.006239
    154 C                     0.021350
    155 C                     0.001379
    156 C                     0.005898
    157 C                     0.026333
    158 C                     0.022019
    159 C                    -0.039049
    160 C                     0.005171
    161 C                     0.007452
    162 C                    -0.025801
    163 C                     0.013251
    164 C                     0.032143
    165 C                     0.005956
    166 C                     0.013698
    167 C                    -0.021964
    168 C                    -0.031488
    169 C                    -0.004985
    170 C                    -0.036994
    171 C                     0.021848
    172 C                     0.017109
    173 C                    -0.000705
    174 C                     0.003054
    175 C                    -0.021938
    176 C                    -0.001783
  ----------------------------------------
  Sum of atomic charges =     0.000000

                    Cartesian Multipole Moments
 -----------------------------------------------------------------
    Charge (ESU x 10^10)
                 0.0000
    Dipole Moment (Debye)
         X      -1.2080      Y      -0.3421      Z       0.9514
       Tot       1.5753
    Quadrupole Moments (Debye-Ang)
        XX    -705.9957     XY     -39.5509     YY    -815.3101
        XZ     -11.4754     YZ       0.7951     ZZ    -798.9299

 Total job time:  828.85s(wall), 7019.11s(cpu)
        *  Thank you very much for using Q-Chem.  Have a nice day.  *
