 Q-Chem 4.4, Q-Chem, Inc., Pleasanton, CA (2016)
 Q-Chem 4.4.2 for Intel X86 Linux

User input:
--------------------------------------------------------------
$comment
SP
$end

$rem
MEM_STATIC 5000
MEM_TOTAL 20000
JOBTYPE SP
EXCHANGE B3LYP
BASIS 6-31g(d,p)
$end

$molecule
0 1
O           9.726000     12.780000      9.977000
C          10.901000     13.548000     10.139000
H          11.697000     12.832000     10.380000
H          10.871000     14.203000     11.018000
H          11.203000     14.035000      9.203000
O           8.530000     14.620000      9.424000
C           8.588000     13.458000      9.652000
C           7.435000     12.457000      9.371000
H           7.466000     12.080000      8.341000
H           6.467000     12.969000      9.437000
C           7.361000     11.322000     10.400000
H           8.262000     10.696000     10.419000
H           7.348000     11.713000     11.425000
C           6.158000     10.381000     10.050000
H           5.242000     10.972000     10.169000
H           6.221000     10.085000      8.996000
C           5.928000      9.227000     10.972000
C           5.721000      9.664000     12.456000
C           4.457000     10.046000     12.966000
H           3.588000      9.918000     12.328000
C           4.276000     10.430000     14.346000
H           3.274000     10.704000     14.661000
C           5.409000     10.480000     15.245000
H           5.333000     10.751000     16.293000
C           6.658000     10.054000     14.730000
H           7.507000     10.039000     15.408000
C           6.826000      9.671000     13.361000
H           7.816000      9.381000     13.021000
C           7.202000      4.151000     12.628000
C           4.827000      4.241000     12.948000
C           3.740000      1.524000      9.554000
C           8.401000      5.470000      7.800000
C           2.895000      4.138000      7.351000
C           6.078000      4.887000     12.962000
C           6.318000      4.662000      6.155000
C           5.549000      1.294000     11.155000
C           3.178000      6.679000     10.356000
C           7.440000      6.416000      7.367000
C           5.139000      7.983000     10.473000
C           3.506000      7.070000      9.040000
C           5.233000      6.667000      7.008000
C           5.041000      4.014000      6.176000
C           4.535000      6.335000     12.323000
C           4.217000      2.080000      7.413000
C           6.642000      7.922000     10.761000
C           7.479000      7.419000      9.631000
C           3.075000      2.799000      7.755000
C           7.981000      2.075000      8.812000
C           5.984000      1.046000      8.729000
C           6.439000      1.020000     10.045000
C           5.837000      2.171000     12.224000
C           8.356000      6.427000     10.074000
C           4.146000      7.191000     11.267000
C           4.720000      2.923000     12.596000
C           6.416000      5.988000      6.559000
C           3.844000      5.155000     12.556000
C           3.121000      6.212000      8.008000
C           9.005000      4.122000      9.606000
C           4.145000      1.512000     10.904000
C           4.712000      7.775000      9.075000
C           8.007000      2.555000     11.202000
C           3.975000      6.053000      6.933000
C           2.391000      5.539000     10.633000
C           6.562000      2.461000      6.844000
C           7.292000      3.704000      6.615000
C           2.049000      4.683000      9.596000
C           8.910000      5.474000      9.150000
C           7.003000      7.418000      8.289000
C           8.669000      3.285000      8.536000
C           6.924000      6.827000     11.824000
C           2.696000      3.407000     11.325000
C           5.604000      7.548000      8.050000
C           2.415000      5.067000      8.263000
C           8.641000      3.790000     10.912000
C           2.819000      2.470000      9.114000
C           7.093000      2.776000     12.260000
C           4.648000      1.271000      8.488000
C           2.774000      4.730000     11.744000
C           2.295000      3.394000      9.990000
C           5.921000      6.145000     12.566000
C           8.017000      6.056000     11.379000
C           6.948000      1.618000      7.915000
C           3.684000      2.490000     11.750000
C           3.877000      4.755000      6.522000
C           8.328000      4.123000      7.476000
C           5.214000      2.680000      6.654000
C           8.118000      4.739000     11.784000
C           7.685000      1.681000     10.088000
O          11.189000     10.255000      6.483000
C          11.081000     10.918000      7.721000
H          11.604000     11.881000      7.747000
H          11.560000     10.264000      8.460000
H          10.055000     11.160000      8.025000
O           9.773000      8.581000      7.104000
C          10.517000      9.106000      6.271000
C          10.758000      8.669000      4.898000
H          11.712000      8.146000      4.754000
H          10.790000      9.602000      4.323000
C           9.600000      7.837000      4.469000
H           9.718000      6.815000      4.850000
H           8.653000      8.249000      4.838000
C           9.514000      7.810000      2.944000
H           9.646000      8.814000      2.523000
H          10.417000      7.282000      2.611000
C           8.306000      7.169000      2.394000
C           7.092000      7.985000      2.607000
C           6.887000      9.228000      1.966000
H           7.659000      9.650000      1.330000
C           5.756000     10.031000      2.035000
H           5.740000     10.998000      1.539000
C           4.859000      9.674000      3.038000
H           4.018000     10.337000      3.217000
C           5.091000      8.545000      3.886000
H           4.444000      8.305000      4.725000
C           6.204000      7.699000      3.667000
H           6.301000      6.844000      4.330000
C           5.790000      2.344000      2.267000
C           4.822000      3.418000      0.298000
C           7.179000      0.855000     -2.767000
C          10.738000      2.279000      2.306000
C           9.718000      3.296000     -3.230000
C           5.321000      3.481000      1.618000
C          11.684000      2.148000     -0.388000
C           6.030000      0.268000     -0.688000
C           7.513000      5.988000     -1.178000
C          11.181000      3.417000      1.607000
C           8.241000      6.403000      1.057000
C           8.949000      6.086000     -1.221000
C          11.163000      4.498000     -0.413000
C          11.294000      2.105000     -1.767000
C           5.930000      5.358000      0.524000
C           9.498000      0.859000     -2.753000
C           8.221000      5.660000      2.346000
C           9.363000      4.755000      2.625000
C           9.016000      2.054000     -3.376000
C           8.944000     -0.467000      1.028000
C           8.370000     -0.534000     -1.113000
C           7.202000     -0.441000     -0.282000
C           5.315000      1.067000      0.275000
C           8.908000      3.539000      3.265000
C           7.051000      6.169000      0.190000
C           4.903000      2.217000     -0.397000
C          11.632000      3.390000      0.305000
C           5.196000      4.545000     -0.385000
C           9.696000      5.279000     -2.131000
C           8.956000      1.111000      2.950000
C           6.032000      0.904000     -1.939000
C           9.417000      6.180000      0.097000
C           6.852000      0.332000      2.008000
C          10.835000      4.500000     -1.733000
C           6.823000      5.186000     -2.088000
C          10.593000      0.243000     -0.650000
C          11.212000      1.037000      0.293000
C           7.548000      4.445000     -3.045000
C           9.609000      2.349000      3.073000
C          10.446000      4.630000      1.747000
C           9.641000      0.325000      1.995000
C           7.081000      4.719000      2.681000
C           5.719000      3.269000     -2.327000
C          10.435000      5.289000      0.531000
C           8.963000      4.471000     -3.087000
C           7.533000      1.094000      2.975000
C           7.622000      2.042000     -3.305000
C           5.785000      1.090000      1.595000
C           8.352000      0.124000     -2.380000
C           5.706000      4.449000     -1.701000
C           6.871000      3.266000     -3.158000
C           5.993000      4.696000      1.790000
C           7.527000      3.538000      3.307000
C           9.502000     -0.492000     -0.272000
C           5.298000      2.073000     -1.731000
C          10.837000      3.244000     -2.420000
C          10.793000      1.063000      1.662000
C          10.604000      0.920000     -1.936000
C           6.855000      2.352000      3.151000
C           7.563000     -0.436000      1.051000
$end

--------------------------------------------------------------

             Standard Nuclear Orientation (Angstroms)
    I     Atom           X                Y                Z
 ----------------------------------------------------------------
    1      O      -6.4281103621    -6.6185377926    -1.2626725611
    2      C      -6.6388381196    -7.7206426616    -2.1215390641
    3      H      -6.4549161298    -7.3490905830    -3.1376467132
    4      H      -7.6846856481    -8.0488150196    -2.1542781939
    5      H      -5.9037536307    -8.5176024116    -1.9513187628
    6      O      -6.8060329705    -7.8971742033     0.5660123301
    7      C      -6.5840437254    -6.8416781426     0.0738326467
    8      C      -6.1763001661    -5.5758912877     0.8750191592
    9      H      -5.0926515368    -5.5318617597     1.0416236277
   10      H      -6.5986693169    -5.6179410958     1.8866317896
   11      C      -6.7205874592    -4.2780363725     0.2652110241
   12      H      -6.3469995402    -4.0865691499    -0.7485988049
   13      H      -7.8014309963    -4.3428967111     0.0884473832
   14      C      -6.2805779929    -3.0630743541     1.1514666100
   15      H      -6.7704409870    -3.1811539403     2.1254221831
   16      H      -5.1983998299    -3.1092616401     1.3225167729
   17      C      -6.7486961150    -1.7143239764     0.7082535207
   18      C      -8.3013179856    -1.6194861219     0.5800150393
   19      C      -9.1368126154    -1.3106149749     1.6801365500
   20      H      -8.6661434457    -1.0188384122     2.6139063128
   21      C     -10.5704391645    -1.2074370482     1.5434389525
   22      H     -11.1407017912    -0.9610750181     2.4336138155
   23      C     -11.2032858809    -1.4675739726     0.2682041450
   24      H     -12.2733225839    -1.3958513995     0.1026797455
   25      C     -10.3500648686    -1.7331916809    -0.8309606002
   26      H     -10.8092966869    -1.8809935270    -1.8045984956
   27      C      -8.9292347541    -1.8290965575    -0.6856401259
   28      H      -8.3325273113    -2.0632629712    -1.5625131603
   29      C      -6.1957970422     2.6617258232    -2.5591122021
   30      C      -6.9552449585     3.6224476415    -0.4972253357
   31      C      -3.0690933600     5.5376571585     0.6485024940
   32      C      -2.0386999123    -0.2595536733    -1.7395906606
   33      C      -2.1538344989     3.0010526453     2.9130485326
   34      C      -6.9726718312     2.5573497749    -1.4179727704
   35      C      -0.6236199096     0.8482273945     0.3742086893
   36      C      -4.1190054010     5.4378299351    -1.5369725646
   37      C      -5.7677553422     1.4597590055     2.5514063696
   38      C      -2.1603482298    -0.8173754771    -0.4434569785
   39      C      -5.9872592534    -0.4398629136     1.1719569876
   40      C      -4.6457830273     0.6354355956     2.7837639397
   41      C      -2.3264120454    -0.2457762096     1.7264342830
   42      C      -0.6422269670     1.9348326979     1.3069555423
   43      C      -7.1937854312     1.7387903554     0.6233364302
   44      C      -1.2251643484     4.2895243242     1.0517843159
   45      C      -5.9536763522    -0.9138895689    -0.2840117342
   46      C      -4.5856662668    -1.1099699910    -0.8502085854
   47      C      -2.0065032782     4.2094054236     2.2012100153
   48      C      -1.8141446358     3.1531306137    -2.7543467323
   49      C      -1.7316738681     4.8352956858    -1.2653006475
   50      C      -2.8423308008     5.0251085221    -2.0838171500
   51      C      -5.3606322724     4.8378468242    -1.8422871216
   52      C      -4.4719027307    -0.4754233181    -2.0886957180
   53      C      -6.6086777826     0.8643043892     1.5678555325
   54      C      -6.1767526116     4.7267410316    -0.7139342978
   55      C      -1.4541940330    -0.2456332495     0.5856596697
   56      C      -7.1068421769     3.1124080288     0.7959207801
   57      C      -3.4625909691     1.2675915451     3.1708665218
   58      C      -3.0924699572     1.1590400688    -3.2629804622
   59      C      -4.2250401067     5.7443372797    -0.1310739591
   60      C      -4.7119582328    -0.4576914772     1.9157892598
   61      C      -4.1680774265     3.3575325851    -3.3546768508
   62      C      -2.2660531686     0.7778769178     2.6822983323
   63      C      -5.7530520018     2.8486078007     2.8094389950
   64      C      -0.4137141517     2.8619490184    -0.7569512438
   65      C      -0.5199453244     1.4185180462    -0.9456625745
   66      C      -4.5581470204     3.4604003753     3.1601253665
   67      C      -3.1814080807    -0.1086904949    -2.6073782748
   68      C      -3.4453216320    -1.2745974290    -0.0135169334
   69      C      -1.8731597202     1.7429988644    -2.9015393594
   70      C      -6.4783979224     0.2148807853    -1.2108681206
   71      C      -5.5596643431     4.7781511252     1.6446313831
   72      C      -3.5296180545    -0.8898002811     1.3561718152
   73      C      -3.4111523427     2.6224186770     3.3613488311
   74      C      -4.2332003537     1.9434750425    -3.4411711879
   75      C      -3.1770260986     4.9618983865     1.9108849085
   76      C      -5.3824460773     3.8125144337    -2.7873133894
   77      C      -1.8369451978     5.1109992252     0.0787631552
   78      C      -6.4065271343     3.6989452515     1.8684886929
   79      C      -4.4076681471     4.5957574656     2.4080659365
   80      C      -7.0938447923     1.4128555175    -0.7550406409
   81      C      -5.5930554115     0.3328715864    -2.3014467787
   82      C      -1.0177825551     3.7302377500    -1.6992155605
   83      C      -5.4362417548     5.2975838870     0.3359624140
   84      C      -1.4391955832     1.8453418198     2.4819131618
   85      C      -1.2691127407     0.8639306401    -2.0046049674
   86      C      -0.5656431343     3.1612924188     0.5803879476
   87      C      -5.4690351075     1.5539628208    -2.9356944917
   88      C      -2.8926074851     3.9565870098    -3.0041540627
   89      O      -2.0535511947    -5.9229876094    -2.3131353325
   90      C      -3.4447995088    -6.1313723618    -2.3829989401
   91      H      -3.7208733018    -7.1784663464    -2.5531501912
   92      H      -3.7965902930    -5.5543394990    -3.2470326891
   93      H      -3.9978314871    -5.8502499204    -1.4781333126
   94      O      -2.2754675261    -3.7219748470    -1.7660805258
   95      C      -1.5674558680    -4.7024842584    -2.0117851980
   96      C      -0.1101069899    -4.7814742940    -1.9479586993
   97      H       0.3849942755    -4.7448977054    -2.9266914974
   98      H       0.0843781274    -5.7647420429    -1.5035511464
   99      C       0.3709809078    -3.7011115434    -1.0431936680
  100      H       0.4134657471    -2.7517231847    -1.5913047724
  101      H      -0.2884589385    -3.5834170253    -0.1748613068
  102      C       1.7593663739    -4.0483515994    -0.5088153928
  103      H       1.8056788553    -5.0930767251    -0.1785343521
  104      H       2.4197562026    -4.0371477778    -1.3856516081
  105      C       2.2729329986    -3.1474261699     0.5386709758
  106      C       1.5613278451    -3.3179015121     1.8230296731
  107      C       1.6608079015    -4.4951009411     2.5990839385
  108      H       2.2310322721    -5.3442334847     2.2352404412
  109      C       1.1007429461    -4.7258287680     3.8488130754
  110      H       1.2019326960    -5.6985933064     4.3229974144
  111      C       0.1486126561    -3.7858379540     4.2334326023
  112      H      -0.4084090267    -3.9811961361     5.1447245563
  113      C      -0.1763866287    -2.6643442049     3.4062710488
  114      H      -0.9751200748    -1.9709506852     3.6539811797
  115      C       0.5330730219    -2.4285855618     2.2048007552
  116      H       0.2535355793    -1.5421116615     1.6426389971
  117      C       3.6722773720     2.0578160539     1.2964959661
  118      C       4.9075157054     0.9822632062     3.1089068829
  119      C       9.0670518901     1.4658764410     1.1131564056
  120      C       4.5650002100     0.1365599613    -3.1756702832
  121      C       9.0727492893    -1.8165298762    -0.2452055888
  122      C       3.7690910253     1.0774711291     2.2780671274
  123      C       7.2485512063    -0.8451175391    -3.2433188998
  124      C       7.1681161638     2.9947622591     1.3218721520
  125      C       5.8206204357    -2.7435984860     1.9647253404
  126      C       4.8739568573    -1.2244840231    -2.9967874650
  127      C       3.7602774450    -2.8055828927     0.7611561923
  128      C       6.0871451312    -3.4180247202     0.7206743603
  129      C       6.3270341032    -2.7015312645    -2.0189413808
  130      C       8.4536292459    -1.0173435340    -2.4858790506
  131      C       4.2025543927    -1.1028471197     2.6642896582
  132      C       9.4769074917     0.5340973165    -0.9705372016
  133      C       2.8465030208    -1.8037869990     0.1484643538
  134      C       3.1272461209    -1.3955789786    -1.2499560136
  135      C       9.5266146631    -0.4849318635     0.0332489945
  136      C       6.3976045246     2.9239150858    -2.0511931442
  137      C       8.2744257056     2.6440697921    -0.9035543220
  138      C       7.2674073406     3.2529374521    -0.0797654017
  139      C       5.8681614313     2.8380441851     1.9239951783
  140      C       2.8982232461     0.0229474561    -1.4249196582
  141      C       4.4199235573    -2.3528024416     2.0190917510
  142      C       5.9917318533     1.8172849731     2.8655943404
  143      C       6.1566532935    -1.7282517132    -3.0123427573
  144      C       5.1931987064    -0.3371573476     3.3413044413
  145      C       7.3473829517    -3.2530659774     0.0710996924
  146      C       4.0722934329     2.0474063525    -2.1459178367
  147      C       8.0825149654     2.1040610423     1.9049906425
  148      C       4.9336789809    -3.3380530944    -0.0718560044
  149      C       4.8302787044     3.3251274800    -0.2187675964
  150      C       7.4732458830    -2.9224187143    -1.3208043667
  151      C       6.8162513716    -2.0054966029     2.6060744261
  152      C       7.9768913991     1.1929207489    -2.7917986894
  153      C       6.9409934447     0.4991372785    -3.3820748319
  154      C       8.0915925483    -1.9020239158     2.0116391597
  155      C       3.6319418038     0.7328910231    -2.3746576271
  156      C       4.1732553653    -1.9547421305    -1.9933261973
  157      C       5.3547499482     2.2069172449    -2.7194224676
  158      C       2.6717159552    -0.4320191026     0.7689547406
  159      C       7.5255202522     0.0543963193     3.0584070516
  160      C       5.0449647743    -2.8510664558    -1.4019012992
  161      C       8.3793772100    -2.5046554706     0.7631680156
  162      C       3.7953375305     2.6408470518    -0.8822064122
  163      C       9.2110964179     0.1047029899     1.2584836564
  164      C       4.7388858654     2.9799565264     1.1064215832
  165      C       9.1918472416     1.7378752786    -0.2905892097
  166      C       6.5244166493    -0.8078988789     3.2550884370
  167      C       8.4970940121    -0.6269022453     2.2776697750
  168      C       3.2957221111    -0.2114988514     2.0099789693
  169      C       2.6076236272     0.5900086530    -0.1989835014
  170      C       7.6973179511     2.3759238217    -2.1627260253
  171      C       7.3357196523     1.4300350155     2.8727543924
  172      C       8.5555721720    -2.0053271864    -1.5132152122
  173      C       5.6032502186     1.0087342547    -3.4160157044
  174      C       8.9101237978     0.2533711213    -2.1929917192
  175      C       3.0558850297     1.8578218121     0.0734637574
  176      C       6.1128150958     3.4578850803    -0.8092503008
 ----------------------------------------------------------------

    9   -5804.3138522950      8.50E-06 Convergence criterion met
 Total energy in the final basis set = -5804.3138522950

                    Orbital Energies (a.u.)
 --------------------------------------------------------------

 Alpha MOs
 -- Occupied --
-19.206 -19.198 -19.149 -19.140 -10.326 -10.320 -10.254 -10.246
-10.246 -10.243 -10.239 -10.237 -10.235 -10.231 -10.229 -10.229
-10.229 -10.225 -10.224 -10.224 -10.223 -10.223 -10.222 -10.221
-10.220 -10.220 -10.219 -10.219 -10.219 -10.219 -10.219 -10.218
-10.218 -10.218 -10.218 -10.218 -10.218 -10.217 -10.217 -10.217
-10.216 -10.216 -10.216 -10.216 -10.216 -10.216 -10.216 -10.215
-10.215 -10.215 -10.215 -10.215 -10.215 -10.214 -10.214 -10.214
-10.214 -10.214 -10.214 -10.214 -10.214 -10.214 -10.213 -10.213
-10.213 -10.213 -10.213 -10.213 -10.213 -10.213 -10.213 -10.213
-10.212 -10.212 -10.212 -10.212 -10.212 -10.212 -10.212 -10.212
-10.212 -10.212 -10.212 -10.212 -10.212 -10.212 -10.212 -10.212
-10.212 -10.211 -10.211 -10.211 -10.211 -10.211 -10.211 -10.211
-10.211 -10.211 -10.211 -10.210 -10.210 -10.210 -10.210 -10.210
-10.210 -10.210 -10.210 -10.209 -10.209 -10.209 -10.209 -10.208
-10.208 -10.208 -10.208 -10.208 -10.208 -10.208 -10.207 -10.207
-10.207 -10.207 -10.207 -10.207 -10.207 -10.206 -10.206 -10.206
-10.206 -10.206 -10.205 -10.205 -10.204 -10.204 -10.204 -10.204
-10.203 -10.203 -10.202 -10.201 -10.200 -10.196 -10.196 -10.195
-10.194 -10.194 -10.193 -10.189  -1.118  -1.108  -1.038  -1.013
 -0.981  -0.980  -0.963  -0.963  -0.961  -0.960  -0.959  -0.957
 -0.932  -0.932  -0.925  -0.924  -0.923  -0.922  -0.921  -0.920
 -0.918  -0.917  -0.894  -0.892  -0.890  -0.888  -0.883  -0.880
 -0.871  -0.869  -0.848  -0.845  -0.841  -0.839  -0.838  -0.836
 -0.836  -0.835  -0.828  -0.821  -0.811  -0.808  -0.796  -0.794
 -0.794  -0.793  -0.792  -0.791  -0.788  -0.788  -0.786  -0.784
 -0.771  -0.769  -0.768  -0.767  -0.765  -0.764  -0.763  -0.763
 -0.752  -0.748  -0.743  -0.742  -0.734  -0.730  -0.717  -0.714
 -0.713  -0.713  -0.711  -0.710  -0.709  -0.708  -0.708  -0.708
 -0.707  -0.706  -0.706  -0.704  -0.703  -0.700  -0.671  -0.670
 -0.659  -0.657  -0.656  -0.654  -0.646  -0.645  -0.631  -0.629
 -0.625  -0.624  -0.624  -0.623  -0.622  -0.618  -0.616  -0.614
 -0.614  -0.612  -0.611  -0.611  -0.610  -0.608  -0.608  -0.607
 -0.606  -0.602  -0.602  -0.599  -0.580  -0.569  -0.564  -0.563
 -0.558  -0.558  -0.557  -0.557  -0.556  -0.555  -0.552  -0.551
 -0.536  -0.533  -0.532  -0.531  -0.525  -0.525  -0.524  -0.522
 -0.521  -0.520  -0.519  -0.518  -0.515  -0.514  -0.513  -0.512
 -0.511  -0.511  -0.508  -0.503  -0.500  -0.497  -0.493  -0.486
 -0.485  -0.484  -0.482  -0.481  -0.481  -0.480  -0.479  -0.477
 -0.476  -0.475  -0.471  -0.470  -0.469  -0.467  -0.466  -0.465
 -0.463  -0.462  -0.462  -0.462  -0.462  -0.461  -0.459  -0.459
 -0.455  -0.454  -0.452  -0.452  -0.450  -0.449  -0.444  -0.443
 -0.441  -0.441  -0.438  -0.438  -0.437  -0.436  -0.431  -0.430
 -0.429  -0.428  -0.427  -0.426  -0.424  -0.424  -0.423  -0.422
 -0.421  -0.420  -0.420  -0.419  -0.418  -0.418  -0.417  -0.417
 -0.416  -0.415  -0.414  -0.413  -0.412  -0.412  -0.412  -0.411
 -0.411  -0.410  -0.408  -0.407  -0.404  -0.401  -0.399  -0.397
 -0.396  -0.393  -0.391  -0.389  -0.385  -0.385  -0.382  -0.382
 -0.380  -0.379  -0.373  -0.372  -0.370  -0.367  -0.365  -0.364
 -0.363  -0.362  -0.362  -0.361  -0.360  -0.359  -0.358  -0.357
 -0.356  -0.355  -0.354  -0.353  -0.352  -0.352  -0.351  -0.350
 -0.350  -0.349  -0.348  -0.345  -0.344  -0.343  -0.342  -0.342
 -0.341  -0.340  -0.340  -0.339  -0.338  -0.337  -0.336  -0.334
 -0.332  -0.331  -0.331  -0.329  -0.328  -0.326  -0.325  -0.323
 -0.318  -0.311  -0.303  -0.301  -0.285  -0.285  -0.279  -0.277
 -0.270  -0.269  -0.267  -0.265  -0.265  -0.264  -0.263  -0.261
 -0.260  -0.259  -0.259  -0.258  -0.256  -0.254  -0.253  -0.252
 -0.250  -0.242  -0.242  -0.238  -0.221  -0.219  -0.212  -0.210
 -0.207  -0.207  -0.205  -0.205  -0.198  -0.196

          Ground-State Mulliken Net Atomic Charges

     Atom                 Charge (a.u.)
  ----------------------------------------
      1 O                    -0.451959
      2 C                    -0.089492
      3 H                     0.117985
      4 H                     0.130385
      5 H                     0.127658
      6 O                    -0.443158
      7 C                     0.588552
      8 C                    -0.262183
      9 H                     0.137190
     10 H                     0.131016
     11 C                    -0.190775
     12 H                     0.121312
     13 H                     0.116113
     14 C                    -0.182820
     15 H                     0.108871
     16 H                     0.112459
     17 C                     0.009491
     18 C                     0.084237
     19 C                    -0.115787
     20 H                     0.094829
     21 C                    -0.098158
     22 H                     0.096340
     23 C                    -0.082545
     24 H                     0.098574
     25 C                    -0.093662
     26 H                     0.092139
     27 C                    -0.109374
     28 H                     0.095461
     29 C                    -0.017567
     30 C                    -0.007456
     31 C                     0.002973
     32 C                     0.008722
     33 C                    -0.015112
     34 C                     0.007765
     35 C                     0.004181
     36 C                    -0.008325
     37 C                     0.002567
     38 C                     0.024240
     39 C                    -0.102864
     40 C                     0.006604
     41 C                     0.004419
     42 C                     0.001500
     43 C                    -0.022056
     44 C                    -0.004773
     45 C                    -0.089394
     46 C                     0.063490
     47 C                    -0.011147
     48 C                     0.014504
     49 C                     0.030217
     50 C                    -0.012734
     51 C                     0.003309
     52 C                     0.017080
     53 C                     0.020694
     54 C                     0.014031
     55 C                    -0.028145
     56 C                     0.012765
     57 C                    -0.002053
     58 C                    -0.009103
     59 C                    -0.022852
     60 C                     0.046664
     61 C                    -0.018011
     62 C                    -0.006457
     63 C                    -0.014398
     64 C                    -0.002744
     65 C                    -0.022688
     66 C                    -0.019008
     67 C                    -0.041682
     68 C                    -0.012240
     69 C                     0.010864
     70 C                     0.010916
     71 C                     0.000249
     72 C                    -0.010874
     73 C                     0.019597
     74 C                     0.013213
     75 C                     0.012945
     76 C                    -0.018474
     77 C                    -0.002060
     78 C                    -0.020221
     79 C                     0.020753
     80 C                     0.043903
     81 C                     0.002322
     82 C                    -0.030486
     83 C                     0.003546
     84 C                    -0.009601
     85 C                     0.002664
     86 C                     0.031881
     87 C                     0.013920
     88 C                    -0.001069
     89 O                    -0.458004
     90 C                    -0.085237
     91 H                     0.111632
     92 H                     0.119874
     93 H                     0.133456
     94 O                    -0.491699
     95 C                     0.615945
     96 C                    -0.267466
     97 H                     0.144655
     98 H                     0.136207
     99 C                    -0.178506
    100 H                     0.117414
    101 H                     0.126559
    102 C                    -0.190608
    103 H                     0.102028
    104 H                     0.097907
    105 C                     0.026949
    106 C                     0.100353
    107 C                    -0.122206
    108 H                     0.075872
    109 C                    -0.075627
    110 H                     0.096645
    111 C                    -0.098492
    112 H                     0.083814
    113 C                    -0.092644
    114 H                     0.089045
    115 C                    -0.107015
    116 H                     0.095200
    117 C                     0.006638
    118 C                     0.000752
    119 C                     0.003846
    120 C                     0.000314
    121 C                    -0.006513
    122 C                     0.001181
    123 C                    -0.032542
    124 C                    -0.026589
    125 C                    -0.013575
    126 C                    -0.001203
    127 C                    -0.098353
    128 C                     0.003092
    129 C                     0.016162
    130 C                     0.014403
    131 C                    -0.011925
    132 C                     0.008371
    133 C                    -0.073224
    134 C                     0.011934
    135 C                    -0.021433
    136 C                    -0.003183
    137 C                    -0.005523
    138 C                     0.000655
    139 C                    -0.017138
    140 C                    -0.004671
    141 C                     0.060559
    142 C                     0.024301
    143 C                    -0.014617
    144 C                    -0.014128
    145 C                    -0.022676
    146 C                    -0.018767
    147 C                     0.008321
    148 C                     0.004330
    149 C                     0.018344
    150 C                    -0.022594
    151 C                     0.000739
    152 C                     0.001557
    153 C                     0.028381
    154 C                     0.002084
    155 C                     0.031875
    156 C                    -0.011887
    157 C                    -0.011773
    158 C                     0.009510
    159 C                    -0.009791
    160 C                     0.017220
    161 C                     0.003052
    162 C                    -0.030356
    163 C                     0.018713
    164 C                     0.000179
    165 C                    -0.027157
    166 C                     0.022713
    167 C                    -0.007484
    168 C                     0.004781
    169 C                     0.031102
    170 C                    -0.003135
    171 C                    -0.004659
    172 C                     0.018405
    173 C                    -0.009066
    174 C                    -0.000165
    175 C                    -0.006114
    176 C                     0.019069
  ----------------------------------------
  Sum of atomic charges =     0.000000

                    Cartesian Multipole Moments
 -----------------------------------------------------------------
    Charge (ESU x 10^10)
                 0.0000
    Dipole Moment (Debye)
         X      -4.3175      Y      -4.3763      Z      -1.5041
       Tot       6.3289
    Quadrupole Moments (Debye-Ang)
        XX    -793.2704     XY      10.4196     YY    -802.9955
        XZ       6.8733     YZ      16.1641     ZZ    -801.0593

 Total job time:  854.03s(wall), 7383.98s(cpu)
        *  Thank you very much for using Q-Chem.  Have a nice day.  *
