 Q-Chem 4.4, Q-Chem, Inc., Pleasanton, CA (2016)
 Q-Chem 4.4.2 for Intel X86 Linux

User input:
--------------------------------------------------------------
$comment
SP
$end

$rem
MEM_STATIC 5000
MEM_TOTAL 20000
JOBTYPE SP
EXCHANGE B3LYP
BASIS 6-31g(d,p)
$end

$molecule
0 1
O         -13.794000     -1.967000      6.397000
C         -14.869000     -1.507000      7.184000
H         -14.439000     -0.964000      8.034000
H         -15.519000     -2.337000      7.488000
H         -15.495000     -0.837000      6.583000
O         -15.126000     -2.628000      4.627000
C         -14.021000     -2.369000      5.085000
C         -12.717000     -2.557000      4.316000
H         -11.935000     -2.027000      4.873000
H         -12.997000     -1.939000      3.454000
C         -12.219000     -3.992000      4.118000
H         -11.189000     -3.976000      3.739000
H         -12.299000     -4.442000      5.115000
C         -13.097000     -4.803000      3.134000
H         -14.153000     -4.824000      3.432000
H         -13.235000     -4.141000      2.270000
C         -12.465000     -6.210000      2.856000
C         -12.270000     -7.107000      4.062000
C         -13.432000     -7.731000      4.624000
H         -14.458000     -7.508000      4.347000
C         -13.318000     -8.585000      5.750000
H         -14.192000     -9.099000      6.139000
C         -12.098000     -8.760000      6.378000
H         -12.052000     -9.424000      7.236000
C         -10.936000     -8.185000      5.789000
H          -9.986000     -8.388000      6.274000
C         -11.062000     -7.381000      4.666000
H         -10.165000     -6.977000      4.206000
C          -8.608000     -8.927000      0.058000
C         -10.566000    -10.338000     -0.120000
C         -11.448000     -9.462000     -4.495000
C          -9.739000     -4.176000     -1.501000
C         -13.915000     -7.092000     -3.861000
C          -9.769000     -9.470000      0.633000
C         -11.679000     -4.280000     -3.447000
C          -9.367000     -9.831000     -3.299000
C         -13.919000     -8.151000      0.088000
C         -11.109000     -3.895000     -1.164000
C         -12.747000     -6.683000      1.473000
C         -14.234000     -6.836000     -0.376000
C         -13.228000     -4.500000     -1.634000
C         -12.477000     -5.188000     -4.214000
C         -11.918000     -8.973000      1.162000
C         -11.893000     -7.398000     -5.124000
C         -11.353000     -6.207000      1.807000
C         -10.885000     -5.102000      0.969000
C         -13.056000     -7.913000     -4.633000
C          -8.288000     -6.522000     -3.687000
C          -9.588000     -7.979000     -4.861000
C          -8.805000     -8.705000     -3.941000
C          -9.005000    -10.109000     -1.994000
C          -9.540000     -5.418000      0.571000
C         -12.942000     -8.067000      1.125000
C         -10.182000    -10.703000     -1.448000
C         -12.092000     -3.917000     -2.138000
C         -11.891000     -9.989000      0.218000
C         -14.504000     -6.589000     -1.723000
C          -8.069000     -5.760000     -1.377000
C         -10.673000    -10.223000     -3.612000
C         -13.531000     -5.936000      0.354000
C          -7.673000     -8.067000     -1.906000
C         -13.993000     -5.430000     -2.347000
C         -13.881000     -9.174000     -0.893000
C         -10.277000     -5.621000     -4.680000
C         -10.375000     -4.587000     -3.699000
C         -14.179000     -8.947000     -2.247000
C          -8.981000     -4.975000     -0.643000
C         -11.686000     -4.423000      0.080000
C          -8.308000     -5.444000     -2.771000
C         -10.321000     -7.272000      1.649000
C         -12.511000    -10.466000     -2.118000
C         -13.003000     -4.765000     -0.270000
C         -14.452000     -7.609000     -2.659000
C          -7.784000     -7.022000     -0.967000
C         -12.785000     -9.225000     -4.189000
C          -8.160000     -9.221000     -1.238000
C         -10.904000     -8.348000     -5.056000
C         -12.883000    -10.157000     -0.783000
C         -13.301000     -9.739000     -3.010000
C         -10.629000     -8.620000      1.399000
C          -9.215000     -6.728000      1.034000
C          -9.292000     -6.597000     -4.682000
C         -11.163000    -10.713000     -2.433000
C         -13.623000     -5.757000     -3.613000
C          -9.348000     -4.503000     -2.780000
C         -11.581000     -6.012000     -4.985000
C          -8.346000     -7.538000      0.260000
C          -7.955000     -7.800000     -3.284000
O          -2.580000     -5.050000    -13.429000
C          -2.231000     -5.044000    -14.897000
H          -1.470000     -4.272000    -15.067000
H          -3.052000     -4.766000    -15.569000
H          -1.859000     -6.045000    -15.148000
O          -3.768000     -2.976000    -13.600000
C          -3.384000     -3.998000    -12.957000
C          -3.721000     -4.206000    -11.420000
H          -2.760000     -4.321000    -10.904000
H          -4.232000     -5.176000    -11.446000
C          -4.573000     -3.024000    -10.917000
H          -4.119000     -2.140000    -11.381000
H          -5.592000     -3.041000    -11.322000
C          -4.597000     -2.818000     -9.412000
H          -3.640000     -2.429000     -9.042000
H          -5.399000     -2.113000     -9.159000
C          -4.900000     -4.110000     -8.590000
C          -6.186000     -4.866000     -8.880000
C          -6.145000     -6.152000     -9.502000
H          -5.235000     -6.459000    -10.009000
C          -7.363000     -6.810000     -9.804000
H          -7.267000     -7.712000    -10.401000
C          -8.563000     -6.351000     -9.210000
H          -9.448000     -6.972000     -9.311000
C          -8.584000     -5.176000     -8.452000
H          -9.551000     -4.815000     -8.115000
C          -7.376000     -4.403000     -8.326000
H          -7.404000     -3.465000     -7.779000
C          -5.131000     -5.973000     -3.424000
C          -4.624000     -7.884000     -4.621000
C          -0.396000     -8.239000     -3.095000
C          -1.923000     -2.142000     -4.274000
C           0.950000     -6.763000     -5.897000
C          -5.302000     -6.682000     -4.555000
C           0.622000     -3.382000     -4.797000
C          -2.444000     -7.791000     -1.940000
C          -2.515000     -6.978000     -7.890000
C          -1.495000     -2.327000     -5.613000
C          -3.727000     -4.985000     -8.038000
C          -1.666000     -5.902000     -8.109000
C          -0.310000     -3.687000     -7.050000
C           1.293000     -4.631000     -4.900000
C          -4.613000     -7.033000     -6.717000
C           1.083000     -6.620000     -3.506000
C          -4.518000     -4.092000     -7.087000
C          -3.695000     -2.989000     -6.433000
C           0.987000     -7.431000     -4.652000
C          -1.582000     -4.334000     -1.501000
C          -0.496000     -6.245000     -1.736000
C          -1.849000     -6.564000     -1.419000
C          -3.754000     -7.615000     -2.388000
C          -4.080000     -2.917000     -5.030000
C          -3.789000     -6.467000     -7.742000
C          -3.849000     -8.394000     -3.592000
C          -0.261000     -2.903000     -5.834000
C          -4.259000     -8.161000     -5.949000
C          -0.321000     -6.023000     -7.671000
C          -3.303000     -3.055000     -2.721000
C          -1.727000     -8.578000     -2.836000
C          -2.295000     -4.655000     -8.188000
C          -3.823000     -5.233000     -1.646000
C           0.399000     -4.915000     -7.144000
C          -2.166000     -8.178000     -7.189000
C           0.606000     -4.332000     -2.693000
C           0.112000     -3.243000     -3.489000
C          -0.894000     -8.213000     -6.653000
C          -3.273000     -2.400000     -3.950000
C          -2.311000     -2.764000     -6.627000
C          -1.963000     -3.203000     -2.235000
C          -5.205000     -4.742000     -5.925000
C          -2.192000     -9.198000     -5.137000
C          -1.635000     -3.575000     -7.496000
C           0.034000     -7.132000     -6.857000
C          -4.232000     -4.088000     -2.402000
C           0.032000     -8.500000     -4.420000
C          -4.409000     -6.398000     -2.328000
C           0.204000     -7.093000     -2.550000
C          -3.010000     -8.797000     -6.188000
C          -0.846000     -8.882000     -5.454000
C          -5.303000     -6.125000     -5.827000
C          -5.029000     -3.981000     -4.724000
C          -0.322000     -4.872000     -1.810000
C          -2.619000     -9.003000     -3.843000
C           1.127000     -5.389000     -6.057000
C          -1.136000     -2.637000     -3.210000
C           1.264000     -5.186000     -3.607000
C          -5.020000     -4.590000     -3.479000
C          -2.507000     -5.349000     -1.228000
$end

--------------------------------------------------------------

             Standard Nuclear Orientation (Angstroms)
    I     Atom           X                Y                Z
 ----------------------------------------------------------------
    1      O      10.8136506015    -3.7406561584    -4.7237495566
    2      C      12.0986089129    -3.7322480535    -5.3028915441
    3      H      12.2580920481    -4.7199177170    -5.7515815989
    4      H      12.8635569611    -3.4675297400    -4.5622197557
    5      H      12.1416003017    -2.9537434667    -6.0736440003
    6      O      10.7765021613    -1.4656084851    -4.3153097478
    7      C      10.1933632365    -2.5381540134    -4.4017104657
    8      C       8.7198367511    -2.7342820081    -4.0591108355
    9      H       8.4242230410    -3.7131216864    -4.4555429464
   10      H       8.3359976079    -1.9635090478    -4.7387758674
   11      C       8.3366185343    -2.7273926098    -2.5760298079
   12      H       7.3028647543    -3.0778378456    -2.4605384265
   13      H       9.0682205135    -3.3974828383    -2.1084331550
   14      C       8.4604848273    -1.3262401703    -1.9292763906
   15      H       9.4634363052    -0.8963516261    -2.0461745191
   16      H       7.9622716334    -0.6474371415    -2.6326923853
   17      C       7.9210975104    -1.3441579226    -0.4578494381
   18      C       8.6123321644    -2.2962248029     0.4975736663
   19      C       9.9165065442    -1.9356130877     0.9714432455
   20      H      10.5112949233    -1.1074315615     0.5979781954
   21      C      10.6157039437    -2.7802235047     1.8703004310
   22      H      11.5792121620    -2.4778035298     2.2697839377
   23      C      10.0895081646    -4.0063526170     2.2351763033
   24      H      10.6548933853    -4.6229546298     2.9275039063
   25      C       8.7725289822    -4.3404734697     1.8088910832
   26      H       8.3660699578    -5.2845111439     2.1589166983
   27      C       8.0888278330    -3.4849910592     0.9579365697
   28      H       7.0723038524    -3.7342372862     0.6681429962
   29      C       3.4201320196    -1.2722828922     2.6763945905
   30      C       4.9373487033     0.2468562750     3.7929243596
   31      C       2.7716853048     4.0812886696     2.6558424561
   32      C       2.8894105497     0.0956418871    -2.2357087797
   33      C       4.8642638171     4.8571815633    -0.0132492222
   34      C       4.7246912701    -0.9316111376     3.0706824517
   35      C       3.1601471149     2.8220709485    -2.4694143329
   36      C       1.9592407556     1.9013367047     3.3521766325
   37      C       7.4581583826     1.9253782942     1.1667247495
   38      C       4.1322962236     0.6565064934    -2.6940711856
   39      C       7.3044107060    -0.0443338798    -0.0756232709
   40      C       7.2922118294     2.3303582115    -0.1942304327
   41      C       5.5183110804     2.4097644381    -2.4074784495
   42      C       3.3682082557     4.0165655227    -1.7081980207
   43      C       6.6696295765    -0.0585497071     2.2960665967
   44      C       2.5360059658     4.6093249463     0.5299555965
   45      C       6.4014968429    -1.2258362672    -0.3405131810
   46      C       5.4147515881    -0.9954180617    -1.3967017308
   47      C       3.7865166155     5.0130333465     0.8934355031
   48      C       0.5946522860     1.1509142598     0.2154537466
   49      C       0.9794265561     3.0358819536     1.4360972467
   50      C       1.0223317010     1.9191326270     2.2949308103
   51      C       2.5305728870     0.6978519425     3.7217128590
   52      C       4.1555659514    -1.4895073851    -0.9092468377
   53      C       7.3551007944     0.5046270711     1.2550372378
   54      C       3.8335484851     1.0767610408     4.1632595563
   55      C       4.2744166580     2.0251665854    -2.8424636881
   56      C       6.1403043168     0.7711325028     3.2735957267
   57      C       6.6262203899     3.5125516606    -0.5216324049
   58      C       1.8210684086    -0.8599058771    -0.4304648793
   59      C       2.8003929671     3.0021521808     3.5469514890
   60      C       7.1345424145     1.2246046727    -0.9620575401
   61      C       1.3830417494    -0.4336858941     1.8901762330
   62      C       5.7370629541     3.5444297785    -1.6180633604
   63      C       6.8975712284     2.7776328726     2.1514775998
   64      C       1.4182970803     3.0556645529    -0.9876699269
   65      C       2.0240937020     2.2395418823    -1.9916994283
   66      C       6.2504427198     3.9849766473     1.8397169497
   67      C       2.9186999701    -0.9492148705    -1.3102113535
   68      C       5.4094123144     0.1139356455    -2.2105007506
   69      C       1.0954647871     0.3314466916    -0.8233916429
   70      C       5.6003793108    -1.6249521347     0.8524370376
   71      C       5.1811292288     3.0193768706     3.5805247303
   72      C       6.2312561436     1.2445175080    -2.0679862864
   73      C       6.0830682258     4.3209226241     0.4636199039
   74      C       1.9713098558    -1.2104694749     0.8720333631
   75      C       3.9734058037     4.6506033237     2.2445971921
   76      C       2.2811320031    -0.5151340794     2.9864923777
   77      C       1.9009201517     4.0490032580     1.6106732352
   78      C       6.2850122149     2.1829794193     3.2675204867
   79      C       5.1612377720     4.1187103484     2.7206623957
   80      C       5.7968806789    -1.0855124025     2.1349579878
   81      C       4.3127484719    -1.9005166696     0.4481252643
   82      C       0.7442724014     2.5549664700     0.1158685464
   83      C       3.9661232148     2.4513138752     4.0029023095
   84      C       4.6799437544     4.3307456660    -1.2852100552
   85      C       1.8079073840     0.8789296444    -1.9003549489
   86      C       2.2628843087     4.1489298083    -0.7933364640
   87      C       3.2250808553    -1.7506063819     1.3452557238
   88      C       0.7049259946     0.7776840369     1.5402635103
   89      O     -10.0894913138     4.9630863171    -0.7699556838
   90      C     -11.2873152623     5.8807124991    -0.7763571209
   91      H     -12.0478378497     5.4497778176    -1.4396109896
   92      H     -11.1049751194     6.8804724588    -1.1888387512
   93      H     -11.6449908112     5.9575171771     0.2578359187
   94      O      -9.4645507760     5.5986282330    -2.9942750847
   95      C      -9.2640279424     4.9786668802    -1.9076162080
   96      C      -8.0141523419     4.0232670704    -1.6973207333
   97      H      -8.4171445354     3.0383311422    -1.4318014132
   98      H      -7.5527220220     4.4726908988    -0.8097412821
   99      C      -7.1434880576     4.0299146818    -2.9693020671
  100      H      -7.8635546498     4.0049542990    -3.7961932825
  101      H      -6.6141179522     4.9802010093    -3.1085794426
  102      C      -6.1908459029     2.8569037676    -3.1260034397
  103      H      -6.7271212492     1.9298111273    -3.3647040669
  104      H      -5.4751858321     3.0803423048    -3.9273422464
  105      C      -5.3248670549     2.5574193186    -1.8622207449
  106      C      -4.4527810979     3.6695835619    -1.3036611872
  107      C      -4.7655948564     4.2722722458    -0.0461736514
  108      H      -5.7597964015     4.1325597195     0.3678815355
  109      C      -3.9619805183     5.3401445255     0.4245117955
  110      H      -4.3348180406     5.8453241259     1.3105223786
  111      C      -2.7028518545     5.5758854987    -0.1775996573
  112      H      -2.0315435958     6.2765042212     0.3097868705
  113      C      -2.3096971824     4.8681982500    -1.3178795185
  114      H      -1.3839004213     5.1687872600    -1.7990505942
  115      C      -3.2270029742     3.9295838070    -1.9096751012
  116      H      -2.9412664199     3.4165997784    -2.8234797894
  117      C      -1.7161698891    -1.0826207547     0.1224956152
  118      C      -2.6967937459    -0.2540034525     2.0443564890
  119      C      -4.9537850515    -4.0287893806     3.0381705779
  120      C      -5.0568637618    -2.8619561692    -3.2485657802
  121      C      -7.8910761730    -2.8683592947     1.6717084000
  122      C      -2.2382401321    -0.0199635152     0.7622496717
  123      C      -7.2378714919    -3.9015004086    -1.6830923517
  124      C      -2.6862425244    -3.6974023482     2.3471810538
  125      C      -6.4669079437     0.8574319449     1.3329998323
  126      C      -6.2171926088    -2.0715343630    -3.0505750352
  127      C      -5.8018781113     1.4993931402    -0.8137461111
  128      C      -7.3526815835     0.3748223406     0.3795686450
  129      C      -7.9194669818    -1.5427094921    -1.5872226461
  130      C      -7.7103446400    -4.0971790039    -0.3566949710
  131      C      -4.1055975483     1.2635454316     1.1333925871
  132      C      -6.4932074680    -4.8175032099     1.6290459847
  133      C      -4.6694947452     1.1544444533    -1.7761645833
  134      C      -4.9853048986     0.0095097682    -2.7306500541
  135      C      -7.0735764032    -3.7783179369     2.3797249223
  136      C      -3.3735583395    -4.9693680413    -0.9385934737
  137      C      -4.1910987974    -5.2458573527     1.0965289453
  138      C      -2.9215756440    -4.6115294280     1.2336349143
  139      C      -1.9770005476    -2.5545698058     1.9747705296
  140      C      -3.8077105400    -0.8443080804    -2.8086539502
  141      C      -5.4375426410     1.4784130766     0.6541106605
  142      C      -2.5976265159    -1.4747907925     2.6919753051
  143      C      -7.2562888003    -2.6036793398    -2.3154057836
  144      C      -3.7936548250     0.5776824171     2.3249494102
  145      C      -8.0999832300    -0.7883703636     0.7021100872
  146      C      -2.9327464192    -3.0992002606    -2.4859264447
  147      C      -3.7361393837    -3.3610101036     3.1961986288
  148      C      -7.0274969709     0.6853706217    -0.9450844163
  149      C      -1.6623879686    -3.3579324156    -0.3672107774
  150      C      -8.4173199620    -1.7714316633    -0.2759905619
  151      C      -6.1872214130     0.2347526117     2.5928600994
  152      C      -5.8115175333    -5.4108069453    -0.6745884287
  153      C      -6.0300414693    -4.6115808061    -1.8480695183
  154      C      -6.8238558699    -0.9686027293     2.8233758072
  155      C      -3.7905449566    -2.2418862110    -3.1711711380
  156      C      -6.1926600437    -0.7285564908    -2.7662695869
  157      C      -3.6434761058    -4.2933286034    -2.1357538965
  158      C      -3.3489635863     0.7578092511    -1.1899982460
  159      C      -4.7799608311    -1.2200885948     3.6674924638
  160      C      -7.1918309192    -0.3847615241    -1.8983291613
  161      C      -7.7613660263    -1.5126185653     1.8765482216
  162      C      -1.9259004772    -2.6490235047    -1.5828798581
  163      C      -6.0986228396    -3.2405122162     3.3118410930
  164      C      -1.5412505601    -2.3319347866     0.6808348293
  165      C      -5.1707115327    -4.9553423583     2.0062871148
  166      C      -4.8504441172     0.0569750332     3.1209884872
  167      C      -6.0438356681    -1.8497115244     3.5323763545
  168      C      -3.0908346945     0.9011393348     0.1682075419
  169      C      -2.7909934299    -0.3680666748    -1.8781629821
  170      C      -4.4916524697    -5.4539729398    -0.2403466631
  171      C      -3.6497441088    -1.9774600648     3.4582351653
  172      C      -8.2484344928    -3.0119203746     0.3313762592
  173      C      -4.9460966101    -4.1190154652    -2.6129380869
  174      C      -6.8215539507    -5.0160635513     0.2318772840
  175      C      -1.9570977594    -1.2673209826    -1.2324488807
  176      C      -2.4004639594    -4.4881511504    -0.0543442830
 ----------------------------------------------------------------

    9   -5804.2915062723      8.83E-06 Convergence criterion met
 Total energy in the final basis set = -5804.2915062723

                    Orbital Energies (a.u.)
 --------------------------------------------------------------

 Alpha MOs
 -- Occupied --
-19.200 -19.191 -19.144 -19.143 -10.328 -10.322 -10.252 -10.243
-10.242 -10.242 -10.242 -10.241 -10.236 -10.235 -10.234 -10.232
-10.228 -10.226 -10.226 -10.224 -10.224 -10.222 -10.221 -10.220
-10.220 -10.220 -10.220 -10.220 -10.220 -10.219 -10.219 -10.219
-10.219 -10.219 -10.218 -10.218 -10.218 -10.217 -10.217 -10.217
-10.217 -10.217 -10.217 -10.217 -10.216 -10.216 -10.216 -10.216
-10.216 -10.216 -10.216 -10.216 -10.216 -10.216 -10.215 -10.215
-10.215 -10.215 -10.215 -10.215 -10.215 -10.215 -10.215 -10.215
-10.215 -10.214 -10.214 -10.214 -10.214 -10.214 -10.214 -10.214
-10.214 -10.214 -10.213 -10.213 -10.213 -10.213 -10.213 -10.213
-10.213 -10.213 -10.213 -10.212 -10.212 -10.212 -10.212 -10.212
-10.212 -10.212 -10.212 -10.212 -10.211 -10.211 -10.211 -10.211
-10.211 -10.211 -10.211 -10.211 -10.211 -10.211 -10.211 -10.210
-10.210 -10.210 -10.210 -10.209 -10.209 -10.209 -10.209 -10.209
-10.209 -10.209 -10.209 -10.209 -10.209 -10.209 -10.208 -10.208
-10.208 -10.208 -10.208 -10.208 -10.208 -10.207 -10.207 -10.206
-10.206 -10.206 -10.205 -10.204 -10.203 -10.203 -10.203 -10.202
-10.202 -10.202 -10.201 -10.201 -10.200 -10.200 -10.199 -10.199
-10.199 -10.198 -10.197 -10.192  -1.091  -1.066  -1.015  -0.993
 -0.983  -0.979  -0.968  -0.962  -0.961  -0.960  -0.959  -0.957
 -0.937  -0.930  -0.925  -0.925  -0.923  -0.922  -0.922  -0.920
 -0.918  -0.915  -0.898  -0.895  -0.888  -0.886  -0.885  -0.882
 -0.872  -0.865  -0.855  -0.846  -0.841  -0.839  -0.838  -0.837
 -0.836  -0.835  -0.822  -0.819  -0.807  -0.800  -0.797  -0.797
 -0.795  -0.794  -0.791  -0.790  -0.790  -0.788  -0.785  -0.778
 -0.770  -0.770  -0.769  -0.767  -0.765  -0.764  -0.763  -0.758
 -0.751  -0.746  -0.743  -0.741  -0.734  -0.731  -0.716  -0.716
 -0.714  -0.711  -0.710  -0.710  -0.710  -0.708  -0.708  -0.708
 -0.707  -0.705  -0.704  -0.703  -0.701  -0.700  -0.671  -0.670
 -0.659  -0.658  -0.656  -0.655  -0.647  -0.645  -0.632  -0.629
 -0.628  -0.626  -0.623  -0.622  -0.621  -0.619  -0.618  -0.616
 -0.614  -0.612  -0.612  -0.611  -0.611  -0.609  -0.608  -0.608
 -0.607  -0.606  -0.603  -0.600  -0.566  -0.563  -0.563  -0.559
 -0.559  -0.558  -0.557  -0.556  -0.555  -0.555  -0.553  -0.548
 -0.535  -0.534  -0.532  -0.531  -0.528  -0.528  -0.526  -0.524
 -0.520  -0.520  -0.517  -0.516  -0.514  -0.514  -0.514  -0.511
 -0.505  -0.501  -0.499  -0.491  -0.490  -0.489  -0.486  -0.484
 -0.484  -0.483  -0.482  -0.481  -0.480  -0.476  -0.475  -0.472
 -0.472  -0.472  -0.469  -0.467  -0.465  -0.464  -0.464  -0.464
 -0.462  -0.462  -0.462  -0.461  -0.460  -0.459  -0.457  -0.457
 -0.456  -0.455  -0.452  -0.451  -0.450  -0.446  -0.444  -0.442
 -0.441  -0.440  -0.439  -0.438  -0.437  -0.437  -0.432  -0.431
 -0.430  -0.430  -0.428  -0.427  -0.425  -0.425  -0.424  -0.423
 -0.423  -0.422  -0.421  -0.420  -0.420  -0.418  -0.417  -0.416
 -0.416  -0.415  -0.415  -0.414  -0.414  -0.413  -0.412  -0.412
 -0.411  -0.409  -0.408  -0.407  -0.400  -0.399  -0.397  -0.395
 -0.393  -0.393  -0.391  -0.389  -0.388  -0.386  -0.384  -0.382
 -0.378  -0.375  -0.374  -0.370  -0.369  -0.369  -0.365  -0.365
 -0.363  -0.362  -0.361  -0.361  -0.359  -0.359  -0.357  -0.357
 -0.356  -0.356  -0.354  -0.354  -0.353  -0.352  -0.351  -0.350
 -0.349  -0.348  -0.348  -0.347  -0.346  -0.346  -0.344  -0.343
 -0.342  -0.342  -0.341  -0.338  -0.338  -0.337  -0.335  -0.332
 -0.331  -0.330  -0.329  -0.328  -0.327  -0.327  -0.322  -0.322
 -0.309  -0.305  -0.300  -0.298  -0.287  -0.285  -0.273  -0.272
 -0.271  -0.270  -0.268  -0.267  -0.266  -0.265  -0.263  -0.261
 -0.261  -0.260  -0.259  -0.259  -0.257  -0.255  -0.255  -0.251
 -0.250  -0.249  -0.241  -0.241  -0.222  -0.221  -0.212  -0.209
 -0.209  -0.208  -0.206  -0.204  -0.198  -0.195

          Ground-State Mulliken Net Atomic Charges

     Atom                 Charge (a.u.)
  ----------------------------------------
      1 O                    -0.462264
      2 C                    -0.079439
      3 H                     0.122894
      4 H                     0.123823
      5 H                     0.122289
      6 O                    -0.463230
      7 C                     0.575638
      8 C                    -0.250749
      9 H                     0.120901
     10 H                     0.131425
     11 C                    -0.180373
     12 H                     0.112387
     13 H                     0.123800
     14 C                    -0.200092
     15 H                     0.129611
     16 H                     0.115147
     17 C                     0.025768
     18 C                     0.092309
     19 C                    -0.115451
     20 H                     0.096574
     21 C                    -0.085949
     22 H                     0.091181
     23 C                    -0.079866
     24 H                     0.090918
     25 C                    -0.096907
     26 H                     0.095425
     27 C                    -0.102712
     28 H                     0.091379
     29 C                     0.006894
     30 C                    -0.000824
     31 C                    -0.011119
     32 C                    -0.003387
     33 C                    -0.015391
     34 C                    -0.011676
     35 C                    -0.002272
     36 C                     0.016302
     37 C                    -0.009553
     38 C                    -0.013714
     39 C                    -0.107248
     40 C                     0.004790
     41 C                     0.000406
     42 C                    -0.027205
     43 C                     0.030259
     44 C                     0.024029
     45 C                    -0.099571
     46 C                     0.056489
     47 C                    -0.011662
     48 C                     0.009614
     49 C                    -0.017612
     50 C                    -0.015622
     51 C                    -0.007669
     52 C                    -0.014990
     53 C                     0.053354
     54 C                    -0.018450
     55 C                    -0.004196
     56 C                    -0.008719
     57 C                     0.007236
     58 C                    -0.001468
     59 C                     0.002938
     60 C                     0.046648
     61 C                    -0.002326
     62 C                     0.004699
     63 C                    -0.007840
     64 C                    -0.004790
     65 C                     0.031831
     66 C                    -0.005075
     67 C                    -0.002398
     68 C                    -0.000306
     69 C                    -0.004306
     70 C                     0.032134
     71 C                     0.002320
     72 C                    -0.025568
     73 C                    -0.005182
     74 C                     0.008569
     75 C                    -0.003779
     76 C                    -0.014592
     77 C                     0.024315
     78 C                    -0.024948
     79 C                     0.013252
     80 C                     0.010698
     81 C                    -0.015339
     82 C                    -0.003305
     83 C                     0.009535
     84 C                     0.016886
     85 C                    -0.015140
     86 C                    -0.028361
     87 C                    -0.012244
     88 C                     0.015094
     89 O                    -0.484608
     90 C                    -0.094366
     91 H                     0.136188
     92 H                     0.141533
     93 H                     0.131353
     94 O                    -0.481064
     95 C                     0.590356
     96 C                    -0.261633
     97 H                     0.139047
     98 H                     0.136378
     99 C                    -0.179070
    100 H                     0.132770
    101 H                     0.119635
    102 C                    -0.187662
    103 H                     0.107636
    104 H                     0.113533
    105 C                     0.008127
    106 C                     0.086173
    107 C                    -0.107628
    108 H                     0.092219
    109 C                    -0.095745
    110 H                     0.093364
    111 C                    -0.083774
    112 H                     0.093709
    113 C                    -0.088463
    114 H                     0.098169
    115 C                    -0.112363
    116 H                     0.094387
    117 C                     0.045302
    118 C                    -0.001769
    119 C                     0.003106
    120 C                    -0.034449
    121 C                     0.020448
    122 C                     0.019780
    123 C                    -0.013423
    124 C                    -0.020342
    125 C                     0.014782
    126 C                     0.037582
    127 C                    -0.095939
    128 C                     0.015350
    129 C                    -0.020955
    130 C                     0.004768
    131 C                     0.016072
    132 C                    -0.006710
    133 C                    -0.088859
    134 C                     0.023210
    135 C                    -0.034156
    136 C                    -0.002817
    137 C                    -0.002834
    138 C                     0.002197
    139 C                    -0.032318
    140 C                    -0.016661
    141 C                     0.021090
    142 C                     0.001233
    143 C                    -0.021833
    144 C                    -0.019547
    145 C                    -0.032745
    146 C                     0.011680
    147 C                    -0.001461
    148 C                     0.032146
    149 C                    -0.039188
    150 C                    -0.017119
    151 C                    -0.020239
    152 C                    -0.019373
    153 C                    -0.010363
    154 C                     0.023250
    155 C                    -0.012098
    156 C                     0.013845
    157 C                    -0.003405
    158 C                     0.032024
    159 C                    -0.009941
    160 C                     0.008524
    161 C                    -0.002185
    162 C                    -0.018544
    163 C                    -0.012338
    164 C                     0.023538
    165 C                     0.024164
    166 C                    -0.019379
    167 C                     0.002892
    168 C                    -0.006206
    169 C                     0.003015
    170 C                     0.024453
    171 C                     0.026092
    172 C                     0.018760
    173 C                     0.026583
    174 C                     0.000748
    175 C                    -0.005856
    176 C                     0.013334
  ----------------------------------------
  Sum of atomic charges =     0.000000

                    Cartesian Multipole Moments
 -----------------------------------------------------------------
    Charge (ESU x 10^10)
                 0.0000
    Dipole Moment (Debye)
         X       1.9790      Y      -0.6124      Z      -0.0799
       Tot       2.0731
    Quadrupole Moments (Debye-Ang)
        XX    -761.4509     XY     -46.0860     YY    -794.7226
        XZ     -15.8624     YZ      15.5282     ZZ    -808.9788

 Total job time:  851.20s(wall), 7246.49s(cpu)
        *  Thank you very much for using Q-Chem.  Have a nice day.  *
