 Q-Chem 4.4, Q-Chem, Inc., Pleasanton, CA (2016)
 Q-Chem 4.4.2 for Intel X86 Linux

User input:
--------------------------------------------------------------
$comment
SP
$end

$rem
MEM_STATIC 5000
MEM_TOTAL 20000
JOBTYPE SP
EXCHANGE B3LYP
BASIS 6-31g(d,p)
$end

$molecule
0 1
O           2.877000    -10.787000     -5.288000
C           4.305000    -10.513000     -5.264000
H           4.735000    -10.187000     -6.220000
H           4.890000    -11.359000     -4.885000
H           4.444000     -9.599000     -4.673000
O           3.198000    -12.781000     -6.441000
C           2.457000    -11.926000     -5.951000
C           0.981000    -11.894000     -6.238000
H           0.782000    -10.832000     -6.427000
H           0.419000    -12.148000     -5.331000
C           0.565000    -12.755000     -7.390000
H           1.099000    -12.411000     -8.284000
H           0.793000    -13.808000     -7.185000
C          -1.037000    -12.724000     -7.484000
H          -1.570000    -13.165000     -6.632000
H          -1.402000    -11.692000     -7.422000
C          -1.461000    -13.352000     -8.790000
C          -1.372000    -14.889000     -8.600000
C          -2.308000    -15.492000     -7.725000
H          -3.014000    -14.810000     -7.260000
C          -2.225000    -16.881000     -7.504000
H          -3.059000    -17.230000     -6.902000
C          -1.340000    -17.696000     -8.169000
H          -1.383000    -18.728000     -7.833000
C          -0.312000    -17.140000     -8.987000
H           0.488000    -17.728000     -9.427000
C          -0.383000    -15.717000     -9.182000
H           0.352000    -15.139000     -9.734000
C          -1.096000    -13.812000    -14.251000
C          -3.339000    -14.816000    -13.784000
C          -5.732000    -11.469000    -15.567000
C          -0.644000     -9.063000    -12.295000
C          -6.378000     -9.884000    -12.505000
C          -2.018000    -14.562000    -13.414000
C          -3.333000     -8.038000    -12.407000
C          -3.679000    -12.529000    -16.367000
C          -4.813000    -13.055000    -10.551000
C          -1.466000     -9.021000    -11.127000
C          -2.665000    -12.854000     -9.658000
C          -4.696000    -11.797000    -10.028000
C          -3.616000     -9.258000    -10.342000
C          -4.669000     -8.244000    -12.793000
C          -3.230000    -14.441000    -11.551000
C          -5.505000     -9.425000    -14.723000
C          -1.244000    -12.733000    -10.164000
C          -0.702000    -11.373000    -10.566000
C          -6.390000    -10.132000    -13.926000
C          -1.690000     -9.784000    -15.599000
C          -3.788000    -10.124000    -16.306000
C          -3.076000    -11.279000    -16.667000
C          -2.899000    -13.487000    -15.748000
C           0.041000    -11.428000    -11.728000
C          -3.630000    -13.742000    -10.387000
C          -3.732000    -14.310000    -14.994000
C          -2.800000     -8.477000    -11.177000
C          -4.115000    -14.800000    -12.608000
C          -5.511000    -10.764000    -10.526000
C          -0.062000    -10.469000    -13.985000
C          -5.020000    -12.655000    -15.869000
C          -3.383000    -11.554000     -9.528000
C          -0.939000    -12.062000    -15.698000
C          -4.981000     -9.476000    -10.735000
C          -5.749000    -13.328000    -11.588000
C          -3.360000     -8.348000    -14.626000
C          -2.551000     -8.072000    -13.510000
C          -6.523000    -12.305000    -12.163000
C           0.011000    -10.298000    -12.567000
C          -1.524000    -10.246000    -10.361000
C          -0.813000     -9.465000    -14.505000
C          -0.965000    -13.415000    -11.444000
C          -5.818000    -13.691000    -13.882000
C          -2.806000    -10.337000     -9.780000
C          -6.452000    -11.007000    -11.617000
C          -0.212000    -11.746000    -14.561000
C          -6.549000    -11.396000    -14.412000
C          -1.520000    -13.294000    -15.433000
C          -5.076000    -10.255000    -15.750000
C          -5.406000    -14.273000    -12.638000
C          -6.556000    -12.526000    -13.552000
C          -1.930000    -14.337000    -12.040000
C          -0.139000    -12.652000    -12.300000
C          -2.985000     -9.223000    -15.654000
C          -5.039000    -13.796000    -15.036000
C          -5.482000     -8.947000    -11.958000
C          -1.259000     -8.633000    -13.502000
C          -4.685000     -8.436000    -14.207000
C          -0.230000    -12.824000    -13.686000
C          -1.695000    -11.023000    -16.265000
O          -2.580000     -5.050000    -13.429000
C          -2.231000     -5.044000    -14.897000
H          -1.470000     -4.272000    -15.067000
H          -3.052000     -4.766000    -15.569000
H          -1.859000     -6.045000    -15.148000
O          -3.768000     -2.976000    -13.600000
C          -3.384000     -3.998000    -12.957000
C          -3.721000     -4.206000    -11.420000
H          -2.760000     -4.321000    -10.904000
H          -4.232000     -5.176000    -11.446000
C          -4.573000     -3.024000    -10.917000
H          -4.119000     -2.140000    -11.381000
H          -5.592000     -3.041000    -11.322000
C          -4.597000     -2.818000     -9.412000
H          -3.640000     -2.429000     -9.042000
H          -5.399000     -2.113000     -9.159000
C          -4.900000     -4.110000     -8.590000
C          -6.186000     -4.866000     -8.880000
C          -6.145000     -6.152000     -9.502000
H          -5.235000     -6.459000    -10.009000
C          -7.363000     -6.810000     -9.804000
H          -7.267000     -7.712000    -10.401000
C          -8.563000     -6.351000     -9.210000
H          -9.448000     -6.972000     -9.311000
C          -8.584000     -5.176000     -8.452000
H          -9.551000     -4.815000     -8.115000
C          -7.376000     -4.403000     -8.326000
H          -7.404000     -3.465000     -7.779000
C          -5.131000     -5.973000     -3.424000
C          -4.624000     -7.884000     -4.621000
C          -0.396000     -8.239000     -3.095000
C          -1.923000     -2.142000     -4.274000
C           0.950000     -6.763000     -5.897000
C          -5.302000     -6.682000     -4.555000
C           0.622000     -3.382000     -4.797000
C          -2.444000     -7.791000     -1.940000
C          -2.515000     -6.978000     -7.890000
C          -1.495000     -2.327000     -5.613000
C          -3.727000     -4.985000     -8.038000
C          -1.666000     -5.902000     -8.109000
C          -0.310000     -3.687000     -7.050000
C           1.293000     -4.631000     -4.900000
C          -4.613000     -7.033000     -6.717000
C           1.083000     -6.620000     -3.506000
C          -4.518000     -4.092000     -7.087000
C          -3.695000     -2.989000     -6.433000
C           0.987000     -7.431000     -4.652000
C          -1.582000     -4.334000     -1.501000
C          -0.496000     -6.245000     -1.736000
C          -1.849000     -6.564000     -1.419000
C          -3.754000     -7.615000     -2.388000
C          -4.080000     -2.917000     -5.030000
C          -3.789000     -6.467000     -7.742000
C          -3.849000     -8.394000     -3.592000
C          -0.261000     -2.903000     -5.834000
C          -4.259000     -8.161000     -5.949000
C          -0.321000     -6.023000     -7.671000
C          -3.303000     -3.055000     -2.721000
C          -1.727000     -8.578000     -2.836000
C          -2.295000     -4.655000     -8.188000
C          -3.823000     -5.233000     -1.646000
C           0.399000     -4.915000     -7.144000
C          -2.166000     -8.178000     -7.189000
C           0.606000     -4.332000     -2.693000
C           0.112000     -3.243000     -3.489000
C          -0.894000     -8.213000     -6.653000
C          -3.273000     -2.400000     -3.950000
C          -2.311000     -2.764000     -6.627000
C          -1.963000     -3.203000     -2.235000
C          -5.205000     -4.742000     -5.925000
C          -2.192000     -9.198000     -5.137000
C          -1.635000     -3.575000     -7.496000
C           0.034000     -7.132000     -6.857000
C          -4.232000     -4.088000     -2.402000
C           0.032000     -8.500000     -4.420000
C          -4.409000     -6.398000     -2.328000
C           0.204000     -7.093000     -2.550000
C          -3.010000     -8.797000     -6.188000
C          -0.846000     -8.882000     -5.454000
C          -5.303000     -6.125000     -5.827000
C          -5.029000     -3.981000     -4.724000
C          -0.322000     -4.872000     -1.810000
C          -2.619000     -9.003000     -3.843000
C           1.127000     -5.389000     -6.057000
C          -1.136000     -2.637000     -3.210000
C           1.264000     -5.186000     -3.607000
C          -5.020000     -4.590000     -3.479000
C          -2.507000     -5.349000     -1.228000
$end

--------------------------------------------------------------

             Standard Nuclear Orientation (Angstroms)
    I     Atom           X                Y                Z
 ----------------------------------------------------------------
    1      O       2.0449383949     6.0942912501     2.5227101675
    2      C       2.3667873568     6.6479720715     3.8283467148
    3      H       1.8637402367     6.1671592434     4.6773900701
    4      H       2.1928014851     7.7289077924     3.8820950527
    5      H       3.4066099092     6.3717208276     4.0438746939
    6      O      -0.0589687671     7.0852322226     2.5325408700
    7      C       0.7833659347     6.3481309620     2.0154722268
    8      C       0.4415869097     5.4251855604     0.8782264821
    9      H       0.9335333484     4.4853480781     1.1572609036
   10      H       0.9387087425     5.7634689879    -0.0390756524
   11      C      -1.0285593615     5.2441887302     0.6605315382
   12      H      -1.4624137061     4.8349043793     1.5808492701
   13      H      -1.4997500748     6.2005448699     0.4032763229
   14      C      -1.2322943148     4.3527677123    -0.6585824212
   15      H      -0.8911703748     4.8097237359    -1.5962922111
   16      H      -0.5787963840     3.4729372051    -0.6280581169
   17      C      -2.6788926000     3.9281735862    -0.7414632345
   18      C      -3.4745751240     5.1447527046    -1.2829561428
   19      C      -3.2535253314     5.5195147613    -2.6305541504
   20      H      -2.5345719523     4.9092161000    -3.1694665576
   21      C      -3.9339266719     6.6446774799    -3.1366310938
   22      H      -3.7587989590     6.7587273846    -4.2025034611
   23      C      -4.8744350012     7.3410942718    -2.4154357428
   24      H      -5.2558269048     8.2083566608    -2.9466279533
   25      C      -5.0715746561     7.0747555610    -1.0279042485
   26      H      -5.7040312540     7.6798804561    -0.3851239493
   27      C      -4.3487250207     5.9448138983    -0.5095267379
   28      H      -4.3522750761     5.6442236787     0.5338552233
   29      C      -7.1863545309     1.7338925953     1.5024761306
   30      C      -7.6538307966     1.5159762252    -0.9452028510
   31      C      -7.1938736108    -2.9412875680    -1.1160415617
   32      C      -2.6777405623    -0.3922942033     2.8196590258
   33      C      -3.8857012141    -2.8674255702    -2.2804834017
   34      C      -7.0846752619     2.2000149943     0.1293249242
   35      C      -2.3813270346    -2.5475237682     0.9325939652
   36      C      -8.2822519461    -1.5399244237     0.5662256398
   37      C      -4.1807050313     1.1257594132    -2.8190262840
   38      C      -1.8181141058    -0.2657362227     1.6853321624
   39      C      -3.1594606888     2.5308373880    -1.2587154567
   40      C      -2.9828502175     0.5635386964    -2.4743036268
   41      C      -1.5539163561    -0.8157368578    -0.5333595355
   42      C      -2.9346216887    -3.2808197061    -0.1315818160
   43      C      -5.6708257909     2.4149728816    -1.5763059796
   44      C      -5.2486486171    -3.8386826402    -0.5222547247
   45      C      -3.3461538307     2.9256709313     0.1901358620
   46      C      -2.7664068490     2.0523446596     1.2883902317
   47      C      -5.1480545211    -3.4034792779    -1.8332703086
   48      C      -5.7974142654    -2.0606761738     2.9401189219
   49      C      -6.7551117797    -3.2505837136     1.3018306330
   50      C      -7.6854408057    -2.2543382231     1.6383909190
   51      C      -8.3203283454    -0.1614890836     0.6544934187
   52      C      -3.6367900869     1.8972723019     2.3484390905
   53      C      -4.3679127552     2.2961165142    -2.1164798269
   54      C      -8.3202489163     0.3604069145    -0.6367689717
   55      C      -1.6447369545    -1.3570525605     0.7596102743
   56      C      -6.7997767678     1.6883464331    -2.0525818409
   57      C      -2.8072706862    -0.8255082466    -2.6122834021
   58      C      -4.8115954873     0.0549222096     3.4664361426
   59      C      -8.0974176070    -1.8941099321    -0.8131038686
   60      C      -2.3199266082     1.3155442995    -1.4603816075
   61      C      -7.2155240005    -0.1279248891     2.8115761256
   62      C      -2.1228099704    -1.5589932875    -1.6238309635
   63      C      -5.2455589238     0.3225823180    -3.3160038904
   64      C      -4.3054944475    -3.4429906115     1.6512795012
   65      C      -3.1890702283    -2.6680538828     2.0106999083
   66      C      -5.1323616148    -1.0765194957    -3.3930135262
   67      C      -3.5935791817     0.6747775858     3.0451172706
   68      C      -1.9852946286     0.9419479553     0.9079682842
   69      C      -4.6651487750    -1.2918167570     3.3812040118
   70      C      -4.7402578337     2.9130051019     0.6776587905
   71      C      -7.2649403679    -0.5944728314    -2.6231298499
   72      C      -1.7085724501     0.6346573526    -0.4404987422
   73      C      -3.8960989038    -1.6790102623    -3.0821753276
   74      C      -6.0656141451     0.5872535268     3.1071791667
   75      C      -6.3247100227    -2.8403150446    -2.2301341102
   76      C      -7.8264106674     0.5678523211     1.7779797082
   77      C      -6.5232145800    -3.5453138346    -0.0563294624
   78      C      -6.6173237888     0.6409377155    -2.9553309139
   79      C      -6.3550091001    -1.6264336580    -2.9664240973
   80      C      -5.8661033888     2.7679601798    -0.2431879701
   81      C      -4.8576628660     2.3790394306     1.9808386400
   82      C      -5.6137601280    -3.1463384892     2.0555967375
   83      C      -8.1566970914    -0.6920577391    -1.5531629663
   84      C      -2.7952037279    -2.7926065078    -1.3943618861
   85      C      -3.4096391316    -1.6072057561     2.9106996922
   86      C      -4.1572033125    -3.8546941832     0.3293718235
   87      C      -6.0530376651     1.7664808892     2.3741732596
   88      C      -7.0844981642    -1.5250254507     2.7525147099
   89      O      -1.2566662945    -4.7599514183     3.0254243723
   90      C      -2.3645869500    -5.3117279095     3.8885092608
   91      H      -1.9477820222    -5.5457154074     4.8761977253
   92      H      -2.7928781162    -6.2610904382     3.5447266752
   93      H      -3.1455453591    -4.5436040084     3.9474637845
   94      O      -0.2162050437    -6.9080262160     2.8126426793
   95      C      -0.3122160697    -5.6763481389     2.5313243590
   96      C       0.7254793888    -4.9427254273     1.5804364305
   97      H       1.1462252327    -4.1128639661     2.1612159844
   98      H       0.0566063700    -4.5386204381     0.8110177913
   99      C       1.7701367966    -5.9595093192     1.0795587834
  100      H       1.9984778197    -6.5752844100     1.9579376395
  101      H       1.3487246016    -6.6717353792     0.3599611171
  102      C       3.0685842685    -5.3709361043     0.5545323712
  103      H       3.6873583540    -4.9685081716     1.3664685695
  104      H       3.6275711478    -6.1516502738     0.0232536738
  105      C       2.8806607695    -4.2144736946    -0.4769890554
  106      C       2.0661679343    -4.4892320898    -1.7302014259
  107      C       0.7885636206    -3.8752314002    -1.9121117627
  108      H       0.2882256753    -3.4436195121    -1.0502700611
  109      C       0.0317763667    -4.1896464953    -3.0680132292
  110      H      -0.9833343523    -3.8040225885    -3.0765824060
  111      C       0.6669898290    -4.8336760323    -4.1567036410
  112      H       0.1209040650    -4.9033781881    -5.0926517955
  113      C       1.9837099175    -5.2922952131    -4.0492482766
  114      H       2.3796651332    -5.8752037901    -4.8753330531
  115      C       2.6736151718    -5.1507321158    -2.7935971986
  116      H       3.6784062125    -5.5513939697    -2.6950982471
  117      C       5.7317200955    -0.4700021872    -3.3163692430
  118      C       3.6623084411     0.5365774311    -3.1016324822
  119      C       5.0268617821     3.7133772886    -0.2073930578
  120      C       7.7420051934    -1.9263807532     1.1026849882
  121      C       3.8828824630     1.9835132587     2.5385817701
  122      C       4.3949882350    -0.6211975916    -3.2793438108
  123      C       6.8040012694    -0.0089506041     3.0344624760
  124      C       6.0133112740     2.9191116402    -2.2384254258
  125      C       1.8725205038    -0.6331530446     0.2723070184
  126      C       6.6237002805    -2.2398806929     1.9159757786
  127      C       2.8784916056    -2.7254253430     0.0015381657
  128      C       2.4476662801    -1.0591578710     1.4615358542
  129      C       4.7718787658    -1.3897733864     2.9961927221
  130      C       6.0127134360     1.1598330530     3.2037531357
  131      C       2.5567456658    -1.0918135864    -1.9864591127
  132      C       5.8475715820     3.1356086064     1.7851284036
  133      C       4.0990238417    -3.2865691489    -0.7216144389
  134      C       5.3689317912    -3.3125709124     0.1199981252
  135      C       4.4429709573     3.0869806499     1.8557358174
  136      C       8.5774643622     1.1575612425    -0.4471484688
  137      C       7.3119843327     2.9379968116    -0.1078086989
  138      C       7.2350619984     2.6232295636    -1.4962839540
  139      C       5.6507491786     1.9008596906    -3.1213136939
  140      C       6.4711414675    -2.8661219967    -0.7212124282
  141      C       2.1853939100    -1.5724784610    -0.6899190432
  142      C       4.2208558574     1.8016080198    -3.0162603940
  143      C       6.2099252125    -1.3117188230     2.8490774538
  144      C       2.4897023200     0.2606048008    -2.3788794178
  145      C       2.8397734625    -0.0664044791     2.3975928292
  146      C       8.2580162404    -1.2268640452    -0.9935466246
  147      C       4.8943973144     3.3952061216    -1.5619347786
  148      C       3.0997779127    -2.2950792690     1.3971952249
  149      C       7.6981893867     0.5640731192    -2.6210744944
  150      C       4.0041646916    -0.2117195030     3.2018748750
  151      C       1.7081860110     0.7339608311    -0.1241722689
  152      C       7.8540070414     1.6901884102     1.8768846216
  153      C       7.8619873635     0.2792910219     2.1468436445
  154      C       2.2231325589     1.6774820512     0.7424895799
  155      C       7.7086057753    -2.2788747701    -0.2643089572
  156      C       5.4863952927    -2.8551167262     1.4544099782
  157      C       8.6703450913    -0.1939967228    -0.0897380094
  158      C       4.5379268502    -2.6088245409    -1.9836522337
  159      C       2.6733642617     2.4512525037    -1.2951207117
  160      C       4.3698294038    -2.3699063802     2.0770732385
  161      C       2.8204481190     1.2959945523     1.9951038102
  162      C       7.7799784189    -0.8225736283    -2.2741402760
  163      C       3.8723910856     3.4600525115     0.5736024405
  164      C       6.3901927810     0.7414233499    -3.2717946917
  165      C       6.2176111771     3.4886939899     0.5011083843
  166      C       2.0261314299     1.2295950427    -1.4473334227
  167      C       2.7477742626     2.7645246231     0.0863222769
  168      C       3.7484588169    -1.6417738530    -2.5947579460
  169      C       5.9618992334    -2.4568278521    -2.0248548831
  170      C       8.1210652386     2.0288868914     0.5553566203
  171      C       3.7628815259     2.7359782674    -2.0867477517
  172      C       4.6258297806     1.0326601904     3.2376616839
  173      C       8.3382464731    -0.6483619176     1.1901732288
  174      C       6.6740475654     2.1739916775     2.4862334819
  175      C       6.5559193291    -1.4090810256    -2.7106782668
  176      C       8.0750953121     1.5285193017    -1.7003022725
 ----------------------------------------------------------------

    9   -5804.2681884212      9.03E-06 Convergence criterion met
 Total energy in the final basis set = -5804.2681884212

                    Orbital Energies (a.u.)
 --------------------------------------------------------------

 Alpha MOs
 -- Occupied --
-19.201 -19.195 -19.144 -19.137 -10.328 -10.317 -10.249 -10.246
-10.245 -10.244 -10.244 -10.243 -10.243 -10.241 -10.237 -10.235
-10.234 -10.231 -10.230 -10.229 -10.228 -10.227 -10.226 -10.225
-10.224 -10.224 -10.224 -10.224 -10.224 -10.224 -10.223 -10.223
-10.223 -10.223 -10.223 -10.223 -10.222 -10.222 -10.222 -10.222
-10.222 -10.222 -10.222 -10.222 -10.221 -10.221 -10.221 -10.221
-10.220 -10.220 -10.220 -10.220 -10.220 -10.220 -10.220 -10.220
-10.220 -10.219 -10.219 -10.219 -10.219 -10.219 -10.219 -10.219
-10.219 -10.219 -10.219 -10.219 -10.219 -10.219 -10.219 -10.218
-10.218 -10.218 -10.218 -10.217 -10.217 -10.217 -10.217 -10.217
-10.217 -10.217 -10.217 -10.217 -10.217 -10.217 -10.216 -10.216
-10.216 -10.216 -10.216 -10.216 -10.216 -10.215 -10.215 -10.215
-10.215 -10.215 -10.215 -10.215 -10.214 -10.214 -10.214 -10.214
-10.214 -10.214 -10.214 -10.214 -10.213 -10.213 -10.213 -10.213
-10.213 -10.213 -10.212 -10.212 -10.212 -10.212 -10.212 -10.212
-10.212 -10.212 -10.211 -10.211 -10.211 -10.211 -10.211 -10.211
-10.211 -10.210 -10.210 -10.209 -10.207 -10.207 -10.204 -10.203
-10.203 -10.202 -10.202 -10.200 -10.200 -10.200 -10.199 -10.198
-10.198 -10.197 -10.195 -10.192  -1.083  -1.065  -1.005  -0.993
 -0.985  -0.982  -0.968  -0.965  -0.964  -0.963  -0.963  -0.960
 -0.935  -0.932  -0.928  -0.928  -0.926  -0.926  -0.924  -0.922
 -0.921  -0.918  -0.897  -0.896  -0.892  -0.889  -0.888  -0.885
 -0.876  -0.867  -0.850  -0.847  -0.844  -0.841  -0.841  -0.840
 -0.838  -0.838  -0.823  -0.821  -0.808  -0.801  -0.800  -0.798
 -0.797  -0.797  -0.794  -0.794  -0.793  -0.791  -0.788  -0.780
 -0.774  -0.773  -0.771  -0.770  -0.769  -0.768  -0.765  -0.759
 -0.745  -0.745  -0.741  -0.741  -0.734  -0.732  -0.719  -0.719
 -0.717  -0.716  -0.714  -0.713  -0.713  -0.712  -0.711  -0.711
 -0.710  -0.707  -0.705  -0.705  -0.704  -0.701  -0.674  -0.673
 -0.662  -0.659  -0.659  -0.657  -0.647  -0.646  -0.634  -0.632
 -0.629  -0.628  -0.626  -0.625  -0.624  -0.620  -0.620  -0.619
 -0.618  -0.615  -0.615  -0.613  -0.613  -0.610  -0.610  -0.609
 -0.608  -0.605  -0.604  -0.602  -0.566  -0.564  -0.563  -0.562
 -0.562  -0.560  -0.560  -0.558  -0.557  -0.556  -0.555  -0.550
 -0.537  -0.535  -0.534  -0.533  -0.531  -0.528  -0.527  -0.527
 -0.524  -0.523  -0.522  -0.519  -0.518  -0.517  -0.516  -0.513
 -0.510  -0.503  -0.499  -0.493  -0.492  -0.491  -0.488  -0.487
 -0.486  -0.485  -0.484  -0.482  -0.482  -0.479  -0.477  -0.474
 -0.472  -0.471  -0.470  -0.468  -0.468  -0.467  -0.466  -0.465
 -0.465  -0.464  -0.464  -0.463  -0.462  -0.460  -0.459  -0.457
 -0.457  -0.456  -0.455  -0.452  -0.451  -0.446  -0.445  -0.444
 -0.444  -0.444  -0.442  -0.440  -0.440  -0.439  -0.435  -0.434
 -0.431  -0.431  -0.431  -0.429  -0.428  -0.427  -0.426  -0.425
 -0.425  -0.424  -0.423  -0.421  -0.421  -0.420  -0.420  -0.419
 -0.418  -0.418  -0.417  -0.416  -0.415  -0.415  -0.415  -0.413
 -0.412  -0.411  -0.410  -0.408  -0.402  -0.402  -0.399  -0.399
 -0.396  -0.396  -0.394  -0.391  -0.390  -0.387  -0.383  -0.381
 -0.380  -0.376  -0.372  -0.371  -0.371  -0.369  -0.368  -0.367
 -0.365  -0.364  -0.364  -0.363  -0.362  -0.362  -0.361  -0.359
 -0.359  -0.357  -0.356  -0.355  -0.355  -0.354  -0.353  -0.353
 -0.351  -0.351  -0.350  -0.350  -0.348  -0.347  -0.346  -0.346
 -0.344  -0.344  -0.344  -0.342  -0.340  -0.338  -0.338  -0.334
 -0.334  -0.332  -0.332  -0.331  -0.329  -0.328  -0.325  -0.323
 -0.311  -0.307  -0.300  -0.299  -0.289  -0.288  -0.275  -0.273
 -0.272  -0.271  -0.270  -0.269  -0.268  -0.266  -0.264  -0.264
 -0.263  -0.262  -0.262  -0.261  -0.261  -0.260  -0.253  -0.251
 -0.250  -0.250  -0.245  -0.243  -0.224  -0.224  -0.215  -0.214
 -0.213  -0.212  -0.209  -0.207  -0.199  -0.198

          Ground-State Mulliken Net Atomic Charges

     Atom                 Charge (a.u.)
  ----------------------------------------
      1 O                    -0.474693
      2 C                    -0.087541
      3 H                     0.122948
      4 H                     0.136172
      5 H                     0.123021
      6 O                    -0.475110
      7 C                     0.603995
      8 C                    -0.273547
      9 H                     0.140321
     10 H                     0.131647
     11 C                    -0.164948
     12 H                     0.115990
     13 H                     0.135821
     14 C                    -0.209722
     15 H                     0.115069
     16 H                     0.105838
     17 C                     0.020502
     18 C                     0.098151
     19 C                    -0.104629
     20 H                     0.088611
     21 C                    -0.085347
     22 H                     0.089652
     23 C                    -0.089058
     24 H                     0.093237
     25 C                    -0.095107
     26 H                     0.104660
     27 C                    -0.119332
     28 H                     0.090635
     29 C                    -0.017711
     30 C                     0.014742
     31 C                    -0.014276
     32 C                    -0.046052
     33 C                    -0.014987
     34 C                    -0.021685
     35 C                     0.033127
     36 C                     0.009450
     37 C                     0.033950
     38 C                    -0.029968
     39 C                    -0.114285
     40 C                     0.022214
     41 C                    -0.020279
     42 C                    -0.020480
     43 C                     0.011118
     44 C                     0.031025
     45 C                    -0.078622
     46 C                     0.010170
     47 C                     0.018889
     48 C                     0.005333
     49 C                    -0.000841
     50 C                    -0.036528
     51 C                     0.036147
     52 C                    -0.006663
     53 C                     0.020718
     54 C                    -0.007417
     55 C                    -0.008447
     56 C                     0.013132
     57 C                    -0.020943
     58 C                    -0.013257
     59 C                    -0.014290
     60 C                     0.024149
     61 C                    -0.019128
     62 C                     0.004561
     63 C                    -0.003482
     64 C                    -0.023950
     65 C                     0.042763
     66 C                     0.009000
     67 C                     0.016928
     68 C                     0.036627
     69 C                     0.005534
     70 C                     0.018985
     71 C                     0.034920
     72 C                     0.008705
     73 C                    -0.026893
     74 C                     0.032846
     75 C                    -0.024143
     76 C                     0.012170
     77 C                     0.011380
     78 C                    -0.059951
     79 C                     0.014385
     80 C                     0.013683
     81 C                     0.023749
     82 C                     0.030374
     83 C                    -0.011954
     84 C                     0.001120
     85 C                     0.001234
     86 C                    -0.037346
     87 C                    -0.011301
     88 C                    -0.024598
     89 O                    -0.485885
     90 C                    -0.094115
     91 H                     0.132854
     92 H                     0.140918
     93 H                     0.130759
     94 O                    -0.481180
     95 C                     0.593466
     96 C                    -0.265506
     97 H                     0.137810
     98 H                     0.138394
     99 C                    -0.179286
    100 H                     0.132562
    101 H                     0.120137
    102 C                    -0.187666
    103 H                     0.107027
    104 H                     0.113566
    105 C                     0.009857
    106 C                     0.083449
    107 C                    -0.110753
    108 H                     0.093834
    109 C                    -0.091222
    110 H                     0.091915
    111 C                    -0.085116
    112 H                     0.092473
    113 C                    -0.089825
    114 H                     0.094686
    115 C                    -0.111731
    116 H                     0.092650
    117 C                     0.041315
    118 C                    -0.001038
    119 C                     0.001608
    120 C                    -0.033506
    121 C                     0.018395
    122 C                     0.015176
    123 C                    -0.012570
    124 C                    -0.020100
    125 C                     0.020198
    126 C                     0.036524
    127 C                    -0.095906
    128 C                     0.012377
    129 C                    -0.019693
    130 C                     0.003992
    131 C                     0.015883
    132 C                    -0.007879
    133 C                    -0.091084
    134 C                     0.023706
    135 C                    -0.031520
    136 C                    -0.001860
    137 C                    -0.001771
    138 C                     0.002124
    139 C                    -0.031453
    140 C                    -0.016696
    141 C                     0.026713
    142 C                     0.000865
    143 C                    -0.021677
    144 C                    -0.018890
    145 C                    -0.031460
    146 C                     0.011218
    147 C                    -0.000432
    148 C                     0.033660
    149 C                    -0.037117
    150 C                    -0.017351
    151 C                    -0.015933
    152 C                    -0.019197
    153 C                    -0.011433
    154 C                     0.016198
    155 C                    -0.011620
    156 C                     0.015175
    157 C                    -0.003521
    158 C                     0.034725
    159 C                    -0.020935
    160 C                     0.008372
    161 C                    -0.000757
    162 C                    -0.016166
    163 C                     0.001829
    164 C                     0.020207
    165 C                     0.023312
    166 C                    -0.021240
    167 C                    -0.005531
    168 C                    -0.000432
    169 C                     0.004036
    170 C                     0.024618
    171 C                     0.023022
    172 C                     0.018461
    173 C                     0.028259
    174 C                     0.000672
    175 C                    -0.013752
    176 C                     0.014921
  ----------------------------------------
  Sum of atomic charges =     0.000000

                    Cartesian Multipole Moments
 -----------------------------------------------------------------
    Charge (ESU x 10^10)
                 0.0000
    Dipole Moment (Debye)
         X      -0.1566      Y       0.6710      Z      -1.1154
       Tot       1.3110
    Quadrupole Moments (Debye-Ang)
        XX    -812.3169     XY      -1.2995     YY    -816.6090
        XZ       2.2537     YZ       2.4442     ZZ    -796.9647

 Total job time:  865.65s(wall), 7491.30s(cpu)
        *  Thank you very much for using Q-Chem.  Have a nice day.  *
