 Q-Chem 4.4, Q-Chem, Inc., Pleasanton, CA (2016)
 Q-Chem 4.4.2 for Intel X86 Linux

User input:
--------------------------------------------------------------
$comment
SP
$end

$rem
MEM_STATIC 5000
MEM_TOTAL 20000
JOBTYPE SP
EXCHANGE B3LYP
BASIS 6-31g(d,p)
$end

$molecule
0 1
O          13.630000     -9.461000     -5.264000
C          12.239000     -9.144000     -5.324000
H          11.721000     -9.830000     -4.643000
H          11.826000     -9.300000     -6.329000
H          12.050000     -8.097000     -5.057000
O          14.234000     -7.441000     -5.984000
C          14.579000     -8.558000     -5.675000
C          16.018000     -8.993000     -5.533000
H          16.152000     -9.973000     -6.008000
H          16.118000     -8.942000     -4.442000
C          17.092000     -8.069000     -6.283000
H          16.896000     -7.977000     -7.359000
H          17.246000     -7.048000     -5.915000
C          18.508000     -8.651000     -6.286000
H          18.490000     -9.537000     -6.932000
H          19.042000     -7.864000     -6.831000
C          19.228000     -8.868000     -4.940000
C          19.304000     -7.562000     -4.205000
C          18.360000     -7.315000     -3.258000
H          17.604000     -8.073000     -3.075000
C          18.305000     -6.132000     -2.541000
H          17.522000     -6.023000     -1.797000
C          19.282000     -5.186000     -2.770000
H          19.174000     -4.198000     -2.333000
C          20.241000     -5.350000     -3.687000
H          20.764000     -4.479000     -4.069000
C          20.276000     -6.559000     -4.350000
H          20.952000     -6.640000     -5.197000
C          23.400000    -10.933000     -2.194000
C          21.613000    -11.165000     -0.631000
C          21.278000    -15.700000     -0.742000
C          22.237000    -13.242000     -6.532000
C          18.531000    -15.620000     -3.008000
C          22.232000    -10.457000     -1.640000
C          20.568000    -15.400000     -5.960000
C          23.290000    -14.245000     -0.694000
C          18.130000    -11.617000     -2.472000
C          20.815000    -13.109000     -6.683000
C          19.011000    -10.216000     -4.244000
C          17.851000    -12.272000     -3.681000
C          18.831000    -13.640000     -5.825000
C          19.945000    -16.011000     -4.893000
C          20.017000    -10.200000     -1.951000
C          20.785000    -16.717000     -2.746000
C          20.346000     -9.832000     -4.814000
C          20.925000    -10.786000     -5.885000
C          19.550000    -16.190000     -2.169000
C          24.128000    -14.877000     -4.087000
C          23.097000    -15.969000     -2.436000
C          23.793000    -14.936000     -1.824000
C          23.380000    -12.848000     -0.578000
C          22.320000    -10.994000     -5.577000
C          18.889000    -10.444000     -2.776000
C          22.179000    -12.329000     -0.121000
C          19.982000    -14.181000     -6.452000
C          20.264000    -11.016000     -0.840000
C          17.671000    -13.647000     -3.740000
C          24.007000    -12.696000     -5.175000
C          22.004000    -14.604000     -0.179000
C          18.327000    -11.497000     -4.748000
C          24.458000    -12.853000     -2.762000
C          18.194000    -14.330000     -4.808000
C          18.310000    -12.370000     -1.286000
C          22.215000    -16.316000     -4.672000
C          22.007000    -15.510000     -5.769000
C          18.222000    -13.801000     -1.341000
C          22.982000    -12.185000     -5.984000
C          20.219000    -11.912000     -6.295000
C          23.907000    -14.088000     -5.219000
C          21.482000     -9.737000     -3.846000
C          20.020000    -13.323000     -0.069000
C          18.948000    -12.235000     -5.767000
C          17.877000    -14.424000     -2.573000
C          24.287000    -12.121000     -3.913000
C          19.888000    -15.564000     -0.944000
C          23.944000    -12.108000     -1.676000
C          21.811000    -16.333000     -1.887000
C          19.468000    -12.076000     -0.510000
C          19.220000    -14.382000     -0.541000
C          21.278000     -9.878000     -2.463000
C          22.628000    -10.405000     -4.380000
C          23.318000    -15.999000     -3.821000
C          21.405000    -13.369000      0.144000
C          18.750000    -15.557000     -4.350000
C          22.781000    -14.406000     -6.019000
C          20.931000    -16.578000     -4.102000
C          23.613000    -10.946000     -3.564000
C          24.452000    -14.233000     -2.861000
O          27.846000    -30.758000     -7.232000
C          29.043000    -31.030000     -8.022000
H          29.848000    -30.373000     -7.670000
H          28.750000    -30.586000     -8.982000
H          29.315000    -32.092000     -8.035000
O          28.892000    -29.876000     -5.350000
C          27.867000    -30.242000     -5.922000
C          26.519000    -30.118000     -5.350000
H          26.716000    -29.837000     -4.308000
H          26.000000    -31.084000     -5.389000
C          25.707000    -28.914000     -5.874000
H          26.343000    -28.022000     -5.933000
H          25.268000    -29.064000     -6.868000
C          24.679000    -28.526000     -4.822000
H          24.139000    -29.458000     -4.617000
H          25.096000    -28.131000     -3.887000
C          23.618000    -27.422000     -5.237000
C          22.600000    -28.092000     -6.100000
C          21.489000    -28.722000     -5.489000
H          21.396000    -28.498000     -4.430000
C          20.495000    -29.391000     -6.288000
H          19.620000    -29.823000     -5.811000
C          20.753000    -29.480000     -7.634000
H          20.031000    -30.091000     -8.168000
C          21.902000    -28.923000     -8.252000
H          22.062000    -29.063000     -9.317000
C          22.758000    -28.270000     -7.475000
H          23.692000    -27.884000     -7.874000
C          22.708000    -22.393000     -7.404000
C          20.847000    -22.653000     -5.808000
C          22.512000    -19.724000     -2.742000
C          27.218000    -23.297000     -5.171000
C          23.930000    -22.180000     -0.646000
C          21.710000    -23.235000     -6.793000
C          26.955000    -22.450000     -2.535000
C          22.367000    -19.531000     -5.136000
C          22.100000    -25.092000     -2.850000
C          27.070000    -24.252000     -4.123000
C          23.363000    -26.286000     -4.326000
C          23.288000    -25.267000     -2.176000
C          25.960000    -24.610000     -2.165000
C          26.115000    -21.869000     -1.579000
C          21.401000    -24.769000     -5.115000
C          24.520000    -20.123000     -1.744000
C          24.032000    -26.025000     -5.574000
C          25.428000    -25.486000     -5.557000
C          23.607000    -20.897000     -1.079000
C          25.881000    -20.007000     -5.518000
C          24.493000    -19.073000     -3.962000
C          23.756000    -19.134000     -5.185000
C          21.897000    -20.509000     -6.062000
C          25.545000    -24.455000     -6.492000
C          22.103000    -25.616000     -4.165000
C          20.945000    -21.296000     -5.436000
C          26.950000    -23.816000     -2.792000
C          20.691000    -23.594000     -4.790000
C          23.795000    -24.392000     -1.206000
C          26.045000    -22.046000     -6.669000
C          21.724000    -19.834000     -3.892000
C          24.133000    -25.965000     -3.084000
C          24.112000    -20.621000     -7.048000
C          25.088000    -24.007000     -1.271000
C          21.367000    -23.958000     -2.446000
C          26.468000    -20.306000     -3.207000
C          27.190000    -21.482000     -3.527000
C          21.815000    -23.049000     -1.426000
C          26.449000    -23.351000     -6.309000
C          26.184000    -25.357000     -4.317000
C          26.593000    -21.182000     -5.800000
C          23.383000    -25.082000     -6.576000
C          20.686000    -21.861000     -3.024000
C          25.471000    -25.527000     -3.094000
C          23.046000    -23.270000     -0.773000
C          24.817000    -21.764000     -7.299000
C          22.351000    -20.698000     -1.729000
C          22.726000    -20.982000     -7.068000
C          23.877000    -19.387000     -2.722000
C          20.654000    -23.188000     -3.395000
C          21.439000    -21.742000     -1.838000
C          22.035000    -24.543000     -6.335000
C          24.318000    -24.157000     -7.104000
C          25.811000    -19.580000     -4.194000
C          20.857000    -20.876000     -4.058000
C          25.200000    -22.677000     -0.878000
C          27.263000    -21.906000     -4.868000
C          25.815000    -20.563000     -1.962000
C          23.981000    -22.865000     -7.527000
C          24.614000    -19.738000     -6.114000
$end

--------------------------------------------------------------

             Standard Nuclear Orientation (Angstroms)
    I     Atom           X                Y                Z
 ----------------------------------------------------------------
    1      O      10.7634048084     5.6154992053     0.6135472390
    2      C      11.5084919758     6.7499553916     1.0571960575
    3      H      11.0833922817     7.0603409358     2.0192937990
    4      H      11.4161558248     7.5971295005     0.3653145182
    5      H      12.5778077101     6.5226264609     1.1472205964
    6      O      12.4151095205     4.9076641382    -0.7034406356
    7      C      11.2746055791     4.7592246744    -0.3300621610
    8      C      10.4091778555     3.5769013216    -0.6951050961
    9      H       9.4044681640     3.9281012572    -0.9619347067
   10      H      10.5107841134     2.9851703318     0.2227252826
   11      C      10.8729421369     2.7617041608    -1.9951544338
   12      H      10.9384477966     3.3920603282    -2.8912660958
   13      H      11.8144999220     2.2023042290    -1.9490930236
   14      C       9.8649714065     1.7022280752    -2.4482487184
   15      H       8.9846840483     2.2365370496    -2.8254013224
   16      H      10.3908104361     1.2908243640    -3.3176107266
   17      C       9.5330122685     0.5340980692    -1.4982590238
   18      C      10.7974401642    -0.1975538229    -1.1554112360
   19      C      11.4109480016     0.1176459434     0.0164297262
   20      H      10.9559036076     0.8749621103     0.6480908877
   21      C      12.6004776847    -0.4624417330     0.4227798471
   22      H      13.0157025448    -0.1576924846     1.3784064536
   23      C      13.1574746566    -1.4359314248    -0.3796902104
   24      H      14.1583027593    -1.7942156294    -0.1588904424
   25      C      12.6197110335    -1.7987642308    -1.5487191410
   26      H      13.2411443250    -2.2959697888    -2.2867579594
   27      C      11.4164095893    -1.2193429563    -1.8934097573
   28      H      11.0541565283    -1.3932735720    -2.9030962734
   29      C       6.4500603993    -3.7432111471    -0.3106738101
   30      C       6.9338551998    -2.8635587653     1.8531922389
   31      C       2.7585841852    -1.3658567023     2.8605509067
   32      C       4.3086771135    -0.1970827843    -3.1988817766
   33      C       3.5460926559     1.9851971429     1.9454369601
   34      C       7.3211087747    -3.1175897769     0.5539582670
   35      C       2.8605060358     1.5229624625    -1.5514735458
   36      C       3.4816777073    -3.4792460606     1.7751043724
   37      C       7.4919498279     1.0604449442     1.7282951878
   38      C       4.8831892888     1.0521179571    -2.7841441870
   39      C       8.3874401841     0.7500400651    -0.5034511762
   40      C       6.8696915104     2.0131321964     0.9074854742
   41      C       5.0934465466     2.4953802811    -1.1027261101
   42      C       2.5705603387     1.7293510225    -0.2198301044
   43      C       8.2570105893    -1.1502484403     1.1219819098
   44      C       1.8018196565     0.2217862589     1.4977062845
   45      C       8.2717085806    -0.2312590764    -1.6340435832
   46      C       7.1002814576     0.0025085244    -2.6166468624
   47      C       2.7444797994     0.8811964078     2.3990680934
   48      C       2.3468996708    -2.4994799736    -1.4445934741
   49      C       1.7818024215    -2.0853348770     0.6744570061
   50      C       2.5781722985    -3.2212158989     0.7146853930
   51      C       4.7785868972    -3.9663195847     1.5428309665
   52      C       6.4761892007    -1.2753952354    -2.8648883491
   53      C       8.3277089548     0.2489982447     0.8991468683
   54      C       5.6932285593    -3.2796606795     2.3254810658
   55      C       4.1608833789     1.9339313145    -2.0114130727
   56      C       7.4952138035    -1.6546070924     2.1833367079
   57      C       5.6271912515     2.5457013640     1.2222380571
   58      C       4.3564410609    -2.4627156006    -2.8286230195
   59      C       3.6007574505    -2.5213506936     2.8315883906
   60      C       7.3618988821     1.8903483238    -0.3995516423
   61      C       4.2523158830    -3.8987481349    -0.8342340134
   62      C       4.7296276017     2.7565649402     0.2070740080
   63      C       6.8171737906     0.5632935917     2.8700144318
   64      C       1.5644870820    -0.2320042620    -0.8798816555
   65      C       2.3053155541     0.2352632793    -1.9424931648
   66      C       5.4923700579     1.0297873117     3.1629456166
   67      C       5.1067434049    -1.3520427102    -3.2405442780
   68      C       6.2353964616     1.0794266052    -2.4534494642
   69      C       3.0731596964    -2.0009285692    -2.5293878659
   70      C       8.0692201071    -1.6638350808    -1.2555341253
   71      C       5.4602562174    -1.2039289642     3.4608588593
   72      C       6.3845743206     2.0094098364    -1.3992051111
   73      C       4.9198641109     2.0410703697     2.3416530274
   74      C       4.9071346743    -3.4197321979    -1.9440187145
   75      C       3.3215318589    -0.1217092682     3.2163416864
   76      C       5.2068269821    -4.1413156165     0.1800078604
   77      C       1.8988472188    -1.1415301642     1.7622190111
   78      C       6.7800237340    -0.8522371233     3.0264390725
   79      C       4.6841235167    -0.0358222357     3.5928046881
   80      C       8.1113926421    -2.0786647640     0.0862273330
   81      C       7.0258819115    -2.2305349915    -2.0523983676
   82      C       1.5727592957    -1.6403378922    -0.6394092942
   83      C       4.9846390484    -2.4718237501     3.0976218565
   84      C       3.4287564792     2.3886484447     0.6506963418
   85      C       3.0754194750    -0.5957436051    -2.7149952744
   86      C       1.7786930900     0.6744783669     0.2039103124
   87      C       6.2608185525    -3.3025133177    -1.6116007668
   88      C       2.9455380478    -3.4954850830    -0.6245971840
   89      O     -14.0772788244    -0.1877312219    -2.3517254746
   90      C     -14.7840111273    -0.7836767396    -3.4814472952
   91      H     -14.3979179399    -1.7988639038    -3.6360599478
   92      H     -14.3460885122    -0.2130210293    -4.3103989485
   93      H     -15.8743666020    -0.7382545630    -3.3762866345
   94      O     -13.4366789618    -2.1581468698    -1.2929252147
   95      C     -13.4944520837    -0.9300436270    -1.3066980666
   96      C     -12.8954573714    -0.0686258405    -0.2777040279
   97      H     -12.6123392810    -0.7799803708     0.5080140380
   98      H     -13.6409105631     0.6398182193     0.1049767179
   99      C     -11.5384696219     0.5537510804    -0.6711086745
  100      H     -10.9084294090    -0.1914067155    -1.1725368242
  101      H     -11.6158534871     1.4166308413    -1.3439439112
  102      C     -10.7565355361     0.8571470815     0.5979705003
  103      H     -11.4439060263     1.4645179779     1.1986962310
  104      H     -10.4457059654    -0.0229997909     1.1749154379
  105      C      -9.4045017853     1.6686054929     0.4238958513
  106      C      -9.7740499112     3.1001315338     0.2137521459
  107      C      -9.9596155494     3.9344975189     1.3424420044
  108      H      -9.6348705729     3.4778369740     2.2731986036
  109      C     -10.3309600909     5.3163276010     1.1792033581
  110      H     -10.4169420517     5.9589267621     2.0506684582
  111      C     -10.6045458097     5.7271876493    -0.1024151012
  112      H     -10.9885225496     6.7419583207    -0.1530446158
  113      C     -10.5006686695     4.8822113937    -1.2371391501
  114      H     -10.7684218547     5.2628278972    -2.2183956452
  115      C     -10.1013992509     3.6323351281    -1.0339957229
  116      H     -10.0717650134     2.9158412729    -1.8502746993
  117      C      -4.5393566531     2.1380214297    -2.2076135103
  118      C      -4.0553659695     3.0731523897     0.0216061078
  119      C      -1.5924731304    -0.4856055250     1.4432329815
  120      C      -6.6778337884    -2.4934619772    -1.8613737190
  121      C      -4.2023482761    -2.0158452079     3.2550812745
  122      C      -4.9614102885     2.9301246605    -1.0794591766
  123      C      -5.5864344216    -3.6773470827     0.4062985411
  124      C      -1.5521227865     0.6711645417    -0.6662135958
  125      C      -6.5278112719     1.2898392227     2.6626858822
  126      C      -7.4475651802    -2.5962469533    -0.6658897863
  127      C      -8.1791530981     1.1837330924     1.0938670073
  128      C      -7.0248488767     0.0148866813     2.8166165050
  129      C      -7.2709233660    -2.4413505148     1.6010095857
  130      C      -4.6910743147    -3.5406044941     1.4724733595
  131      C      -6.1751340767     2.8283521419     0.8649785108
  132      C      -2.5410038882    -2.5503034675     1.6000156584
  133      C      -8.2483249076     1.1094943068    -0.3424093809
  134      C      -8.1914708656    -0.2289920477    -1.0093785682
  135      C      -2.9222578732    -1.8726521011     2.7270933063
  136      C      -3.1702217572    -2.0366981392    -2.3305246913
  137      C      -1.7171525817    -1.7933771379    -0.5842655864
  138      C      -1.6320619672    -0.5951407203    -1.3586092276
  139      C      -2.3946532795     1.7418172913    -1.0889488062
  140      C      -7.3311416017    -0.1702673972    -2.1081323956
  141      C      -7.1263545870     2.0159544391     1.6051828834
  142      C      -2.7785905336     2.4737516477     0.0220927244
  143      C      -6.8927860523    -3.2070934547     0.4721540050
  144      C      -4.8116693121     2.9871804662     1.1906891170
  145      C      -6.2879458030    -1.0808962687     3.2854529225
  146      C      -5.2362312220    -1.1343384880    -2.9836479196
  147      C      -1.5312889402     0.7357516559     0.7649357519
  148      C      -8.0283442800    -0.1178678372     1.8160835403
  149      C      -3.2960424816     0.3237045089    -2.8403535689
  150      C      -6.3493335241    -2.2548704033     2.6203850471
  151      C      -5.1893165900     1.4431032879     3.0766944725
  152      C      -3.4603385533    -3.5064572244    -0.4516070571
  153      C      -4.8282426541    -3.6775430250    -0.7775334594
  154      C      -4.3972942355     0.3664205468     3.6066377383
  155      C      -6.5690731421    -1.3081039904    -2.5487008353
  156      C      -8.2172787391    -1.4685609699    -0.2421889954
  157      C      -4.5309473724    -2.2166751280    -2.6188423697
  158      C      -7.2278851752     1.8755331368    -1.1708665393
  159      C      -3.0372250653     1.7492907386     2.3911251366
  160      C      -8.0500255739    -1.3687278238     1.1702761269
  161      C      -4.9532914709    -0.9239991016     3.7342904129
  162      C      -4.6218900611     0.1274994363    -3.1051303908
  163      C      -2.3786583655    -0.5565944933     2.6169618013
  164      C      -3.1885746664     1.6094220128    -2.2181814314
  165      C      -1.7157572597    -1.7472343607     0.8347202829
  166      C      -4.3070387469     2.2841651458     2.3583138221
  167      C      -3.0757414490     0.5392586045     3.1136932807
  168      C      -6.2637470561     2.7803222921    -0.5247239298
  169      C      -6.7006234242     1.0784813491    -2.2174502644
  170      C      -2.6406889706    -2.6847966408    -1.2170758330
  171      C      -2.2455666618     1.8184125203     1.1923252570
  172      C      -5.1008955144    -2.8688130128     2.6396206467
  173      C      -5.3572592541    -3.0250905087    -1.9079462827
  174      C      -3.3928196813    -3.4455572686     0.9746521751
  175      C      -5.4067219626     1.2268108747    -2.7327941880
  176      C      -2.5528128693    -0.7535796993    -2.4031837182
 ----------------------------------------------------------------

    9   -5804.2609188675      9.74E-06 Convergence criterion met
 Total energy in the final basis set = -5804.2609188675

                    Orbital Energies (a.u.)
 --------------------------------------------------------------

 Alpha MOs
 -- Occupied --
-19.183 -19.180 -19.135 -19.129 -10.316 -10.314 -10.244 -10.242
-10.242 -10.240 -10.240 -10.240 -10.239 -10.237 -10.232 -10.232
-10.229 -10.228 -10.228 -10.227 -10.227 -10.224 -10.223 -10.223
-10.223 -10.222 -10.222 -10.222 -10.221 -10.220 -10.220 -10.220
-10.219 -10.219 -10.219 -10.219 -10.219 -10.219 -10.219 -10.219
-10.219 -10.219 -10.218 -10.218 -10.218 -10.218 -10.217 -10.217
-10.217 -10.217 -10.217 -10.217 -10.216 -10.216 -10.216 -10.216
-10.216 -10.216 -10.216 -10.216 -10.216 -10.216 -10.216 -10.216
-10.216 -10.215 -10.215 -10.215 -10.215 -10.215 -10.215 -10.215
-10.215 -10.214 -10.214 -10.214 -10.214 -10.214 -10.214 -10.214
-10.214 -10.214 -10.214 -10.213 -10.213 -10.213 -10.213 -10.213
-10.213 -10.213 -10.213 -10.213 -10.212 -10.212 -10.212 -10.212
-10.212 -10.212 -10.212 -10.211 -10.211 -10.211 -10.211 -10.211
-10.211 -10.211 -10.211 -10.210 -10.210 -10.210 -10.210 -10.210
-10.210 -10.209 -10.209 -10.208 -10.207 -10.207 -10.207 -10.207
-10.207 -10.207 -10.206 -10.206 -10.206 -10.206 -10.205 -10.205
-10.205 -10.205 -10.204 -10.204 -10.203 -10.203 -10.202 -10.202
-10.202 -10.201 -10.200 -10.200 -10.198 -10.197 -10.196 -10.194
-10.192 -10.191 -10.191 -10.189  -1.091  -1.070  -1.005  -0.999
 -0.984  -0.983  -0.971  -0.967  -0.965  -0.962  -0.960  -0.959
 -0.940  -0.933  -0.928  -0.927  -0.926  -0.923  -0.922  -0.921
 -0.919  -0.918  -0.900  -0.897  -0.891  -0.889  -0.886  -0.881
 -0.880  -0.876  -0.864  -0.860  -0.843  -0.840  -0.840  -0.838
 -0.836  -0.835  -0.823  -0.820  -0.813  -0.803  -0.798  -0.797
 -0.797  -0.795  -0.794  -0.792  -0.791  -0.790  -0.783  -0.783
 -0.772  -0.770  -0.769  -0.769  -0.769  -0.767  -0.766  -0.765
 -0.756  -0.756  -0.748  -0.742  -0.736  -0.733  -0.716  -0.716
 -0.714  -0.713  -0.713  -0.712  -0.711  -0.709  -0.708  -0.707
 -0.706  -0.706  -0.705  -0.704  -0.702  -0.701  -0.676  -0.675
 -0.660  -0.660  -0.657  -0.657  -0.649  -0.649  -0.634  -0.632
 -0.629  -0.627  -0.627  -0.625  -0.622  -0.620  -0.618  -0.617
 -0.616  -0.615  -0.615  -0.613  -0.612  -0.609  -0.609  -0.608
 -0.605  -0.605  -0.603  -0.601  -0.568  -0.566  -0.562  -0.562
 -0.561  -0.559  -0.558  -0.558  -0.555  -0.554  -0.554  -0.550
 -0.540  -0.539  -0.534  -0.532  -0.527  -0.527  -0.525  -0.525
 -0.523  -0.522  -0.520  -0.519  -0.516  -0.515  -0.513  -0.511
 -0.509  -0.505  -0.503  -0.499  -0.494  -0.490  -0.488  -0.488
 -0.486  -0.484  -0.481  -0.481  -0.478  -0.476  -0.475  -0.474
 -0.474  -0.471  -0.470  -0.468  -0.467  -0.466  -0.466  -0.465
 -0.465  -0.464  -0.464  -0.463  -0.462  -0.460  -0.459  -0.459
 -0.458  -0.456  -0.453  -0.451  -0.447  -0.446  -0.445  -0.444
 -0.444  -0.443  -0.441  -0.438  -0.437  -0.437  -0.434  -0.433
 -0.432  -0.431  -0.431  -0.429  -0.428  -0.427  -0.426  -0.424
 -0.424  -0.423  -0.421  -0.421  -0.420  -0.419  -0.418  -0.418
 -0.417  -0.417  -0.416  -0.416  -0.415  -0.414  -0.413  -0.413
 -0.413  -0.411  -0.410  -0.409  -0.405  -0.402  -0.398  -0.396
 -0.395  -0.394  -0.391  -0.391  -0.386  -0.384  -0.383  -0.380
 -0.379  -0.379  -0.375  -0.373  -0.371  -0.367  -0.366  -0.366
 -0.363  -0.362  -0.361  -0.360  -0.360  -0.359  -0.359  -0.357
 -0.357  -0.356  -0.355  -0.355  -0.354  -0.351  -0.351  -0.350
 -0.348  -0.347  -0.347  -0.347  -0.346  -0.344  -0.344  -0.343
 -0.341  -0.341  -0.340  -0.340  -0.339  -0.337  -0.337  -0.336
 -0.333  -0.332  -0.332  -0.330  -0.329  -0.327  -0.326  -0.325
 -0.312  -0.310  -0.293  -0.292  -0.290  -0.284  -0.272  -0.271
 -0.269  -0.268  -0.267  -0.266  -0.265  -0.264  -0.263  -0.263
 -0.263  -0.262  -0.261  -0.261  -0.258  -0.258  -0.257  -0.255
 -0.253  -0.250  -0.247  -0.244  -0.224  -0.216  -0.214  -0.211
 -0.209  -0.208  -0.207  -0.202  -0.201  -0.197

          Ground-State Mulliken Net Atomic Charges

     Atom                 Charge (a.u.)
  ----------------------------------------
      1 O                    -0.476433
      2 C                    -0.081059
      3 H                     0.121166
      4 H                     0.119013
      5 H                     0.134206
      6 O                    -0.462715
      7 C                     0.578190
      8 C                    -0.250352
      9 H                     0.133962
     10 H                     0.144777
     11 C                    -0.175919
     12 H                     0.114029
     13 H                     0.126525
     14 C                    -0.203465
     15 H                     0.101494
     16 H                     0.109182
     17 C                     0.025831
     18 C                     0.111406
     19 C                    -0.113456
     20 H                     0.080992
     21 C                    -0.073568
     22 H                     0.092538
     23 C                    -0.090161
     24 H                     0.083320
     25 C                    -0.068158
     26 H                     0.099756
     27 C                    -0.139606
     28 H                     0.079811
     29 C                    -0.003397
     30 C                     0.020403
     31 C                    -0.001796
     32 C                    -0.005010
     33 C                    -0.003128
     34 C                    -0.008669
     35 C                    -0.040290
     36 C                     0.014202
     37 C                     0.017487
     38 C                     0.002407
     39 C                    -0.062932
     40 C                     0.032124
     41 C                     0.002246
     42 C                     0.050715
     43 C                     0.006730
     44 C                    -0.023527
     45 C                    -0.093358
     46 C                    -0.002254
     47 C                    -0.023800
     48 C                     0.001620
     49 C                     0.018358
     50 C                    -0.006152
     51 C                    -0.040837
     52 C                    -0.005707
     53 C                    -0.001753
     54 C                     0.041535
     55 C                    -0.021422
     56 C                     0.010854
     57 C                     0.002223
     58 C                    -0.013475
     59 C                    -0.029726
     60 C                     0.000788
     61 C                     0.029367
     62 C                    -0.014331
     63 C                    -0.039879
     64 C                    -0.004916
     65 C                    -0.008021
     66 C                    -0.003323
     67 C                    -0.004009
     68 C                     0.034688
     69 C                    -0.012824
     70 C                     0.039533
     71 C                     0.004271
     72 C                    -0.009728
     73 C                    -0.012481
     74 C                     0.002629
     75 C                     0.001567
     76 C                    -0.010452
     77 C                     0.009457
     78 C                    -0.018922
     79 C                     0.009126
     80 C                    -0.001763
     81 C                     0.024482
     82 C                    -0.001771
     83 C                     0.005951
     84 C                     0.010699
     85 C                     0.026226
     86 C                     0.018495
     87 C                    -0.011209
     88 C                    -0.023139
     89 O                    -0.497043
     90 C                    -0.083893
     91 H                     0.137900
     92 H                     0.127487
     93 H                     0.129269
     94 O                    -0.466011
     95 C                     0.581067
     96 C                    -0.240644
     97 H                     0.140241
     98 H                     0.129993
     99 C                    -0.184543
    100 H                     0.119285
    101 H                     0.119048
    102 C                    -0.183296
    103 H                     0.116066
    104 H                     0.112347
    105 C                    -0.017211
    106 C                     0.112025
    107 C                    -0.127828
    108 H                     0.085913
    109 C                    -0.080076
    110 H                     0.097613
    111 C                    -0.098631
    112 H                     0.084379
    113 C                    -0.076269
    114 H                     0.096469
    115 C                    -0.104895
    116 H                     0.082405
    117 C                    -0.026782
    118 C                    -0.006691
    119 C                     0.013101
    120 C                     0.000210
    121 C                     0.006330
    122 C                    -0.011840
    123 C                     0.032509
    124 C                    -0.019009
    125 C                     0.001069
    126 C                    -0.004983
    127 C                    -0.091024
    128 C                    -0.001489
    129 C                     0.000168
    130 C                    -0.002309
    131 C                     0.003681
    132 C                     0.022763
    133 C                    -0.069280
    134 C                     0.034704
    135 C                     0.008225
    136 C                    -0.000737
    137 C                    -0.010962
    138 C                     0.004892
    139 C                     0.022259
    140 C                    -0.010269
    141 C                     0.052614
    142 C                     0.000002
    143 C                    -0.011100
    144 C                     0.003114
    145 C                     0.010923
    146 C                     0.004790
    147 C                     0.017555
    148 C                     0.012767
    149 C                    -0.005873
    150 C                     0.028365
    151 C                    -0.004341
    152 C                    -0.001813
    153 C                    -0.016628
    154 C                    -0.004231
    155 C                    -0.011874
    156 C                    -0.025466
    157 C                     0.025805
    158 C                     0.014032
    159 C                    -0.017623
    160 C                     0.004351
    161 C                    -0.039558
    162 C                     0.010230
    163 C                    -0.014846
    164 C                    -0.020578
    165 C                     0.011374
    166 C                    -0.001888
    167 C                    -0.000518
    168 C                    -0.018645
    169 C                     0.026410
    170 C                    -0.008740
    171 C                    -0.002941
    172 C                    -0.012404
    173 C                    -0.021087
    174 C                    -0.014453
    175 C                     0.026001
    176 C                     0.005083
  ----------------------------------------
  Sum of atomic charges =     0.000000

                    Cartesian Multipole Moments
 -----------------------------------------------------------------
    Charge (ESU x 10^10)
                 0.0000
    Dipole Moment (Debye)
         X      -0.6540      Y       2.9941      Z      -0.9583
       Tot       3.2111
    Quadrupole Moments (Debye-Ang)
        XX    -751.4483     XY     -39.5305     YY    -804.3686
        XZ       9.8589     YZ       6.1183     ZZ    -796.9391

 Total job time:  846.04s(wall), 7170.64s(cpu)
        *  Thank you very much for using Q-Chem.  Have a nice day.  *
