 Q-Chem 4.4, Q-Chem, Inc., Pleasanton, CA (2016)
 Q-Chem 4.4.2 for Intel X86 Linux

User input:
--------------------------------------------------------------
$comment
SP
$end

$rem
MEM_STATIC 5000
MEM_TOTAL 20000
JOBTYPE SP
EXCHANGE B3LYP
BASIS 6-31g(d,p)
$end

$molecule
0 1
O          18.366000    -12.780000     -9.016000
C          19.522000    -12.842000     -9.882000
H          20.341000    -13.431000     -9.452000
H          19.926000    -11.825000     -9.971000
H          19.321000    -13.358000    -10.829000
O          17.905000    -10.544000     -9.330000
C          17.604000    -11.654000     -8.851000
C          16.340000    -11.895000     -7.948000
H          15.518000    -11.245000     -8.272000
H          16.768000    -11.570000     -6.992000
C          15.774000    -13.296000     -7.719000
H          16.567000    -13.967000     -7.367000
H          14.926000    -13.312000     -7.024000
C          15.271000    -13.984000     -8.972000
H          14.342000    -13.468000     -9.244000
H          15.926000    -13.771000     -9.825000
C          15.022000    -15.521000     -8.674000
C          13.722000    -15.807000     -7.949000
C          12.522000    -15.993000     -8.694000
H          12.587000    -15.954000     -9.777000
C          11.329000    -15.974000     -7.960000
H          10.350000    -15.972000     -8.430000
C          11.317000    -16.027000     -6.531000
H          10.349000    -15.951000     -6.046000
C          12.501000    -15.918000     -5.809000
H          12.545000    -15.901000     -4.724000
C          13.692000    -15.859000     -6.563000
H          14.569000    -15.699000     -5.944000
C          17.509000    -20.201000     -7.464000
C          15.657000    -20.955000     -8.771000
C          18.108000    -22.158000    -12.528000
C          20.287000    -16.630000     -9.885000
C          17.403000    -19.162000    -14.242000
C          16.133000    -20.049000     -7.782000
C          20.061000    -17.185000    -12.755000
C          18.514000    -22.402000    -10.124000
C          14.597000    -18.076000    -11.410000
C          19.373000    -15.954000    -10.736000
C          15.332000    -16.500000     -9.853000
C          15.347000    -17.064000    -12.063000
C          17.938000    -16.070000    -12.534000
C          19.495000    -18.106000    -13.656000
C          14.725000    -18.873000     -9.097000
C          19.290000    -20.561000    -13.633000
C          16.269000    -16.402000     -8.684000
C          17.699000    -15.951000     -8.914000
C          17.984000    -20.433000    -14.016000
C          21.070000    -20.008000    -10.047000
C          20.246000    -21.456000    -11.586000
C          19.777000    -21.837000    -10.315000
C          17.788000    -22.038000     -9.004000
C          18.570000    -16.827000     -8.197000
C          14.590000    -17.824000    -10.047000
C          16.460000    -21.926000     -9.400000
C          19.289000    -16.128000    -12.140000
C          14.765000    -20.202000     -9.595000
C          16.064000    -17.512000    -13.204000
C          20.422000    -18.391000     -8.483000
C          17.631000    -22.507000    -11.186000
C          15.869000    -16.169000    -11.129000
C          19.593000    -20.667000     -8.222000
C          17.348000    -17.000000    -13.448000
C          14.636000    -19.392000    -11.932000
C          20.953000    -19.230000    -12.340000
C          20.901000    -17.906000    -11.899000
C          15.397000    -19.776000    -13.053000
C          19.892000    -17.101000     -8.633000
C          18.075000    -15.681000    -10.221000
C          21.178000    -18.714000     -9.608000
C          16.437000    -17.602000     -7.841000
C          15.484000    -21.445000    -11.595000
C          17.185000    -15.723000    -11.360000
C          16.128000    -18.808000    -13.720000
C          19.583000    -19.344000     -7.773000
C          17.212000    -21.454000    -13.358000
C          18.345000    -21.186000     -8.012000
C          19.350000    -21.502000    -12.669000
C          14.691000    -20.473000    -11.002000
C          15.892000    -21.077000    -12.891000
C          15.612000    -18.764000     -8.040000
C          17.792000    -17.734000     -7.495000
C          20.972000    -20.282000    -11.399000
C          16.326000    -22.213000    -10.789000
C          18.150000    -18.005000    -14.041000
C          21.073000    -17.643000    -10.533000
C          20.105000    -19.376000    -13.449000
C          18.339000    -19.007000     -7.328000
C          20.291000    -20.989000     -9.390000
O          27.846000    -30.758000     -7.232000
C          29.043000    -31.030000     -8.022000
H          29.848000    -30.373000     -7.670000
H          28.750000    -30.586000     -8.982000
H          29.315000    -32.092000     -8.035000
O          28.892000    -29.876000     -5.350000
C          27.867000    -30.242000     -5.922000
C          26.519000    -30.118000     -5.350000
H          26.716000    -29.837000     -4.308000
H          26.000000    -31.084000     -5.389000
C          25.707000    -28.914000     -5.874000
H          26.343000    -28.022000     -5.933000
H          25.268000    -29.064000     -6.868000
C          24.679000    -28.526000     -4.822000
H          24.139000    -29.458000     -4.617000
H          25.096000    -28.131000     -3.887000
C          23.618000    -27.422000     -5.237000
C          22.600000    -28.092000     -6.100000
C          21.489000    -28.722000     -5.489000
H          21.396000    -28.498000     -4.430000
C          20.495000    -29.391000     -6.288000
H          19.620000    -29.823000     -5.811000
C          20.753000    -29.480000     -7.634000
H          20.031000    -30.091000     -8.168000
C          21.902000    -28.923000     -8.252000
H          22.062000    -29.063000     -9.317000
C          22.758000    -28.270000     -7.475000
H          23.692000    -27.884000     -7.874000
C          22.708000    -22.393000     -7.404000
C          20.847000    -22.653000     -5.808000
C          22.512000    -19.724000     -2.742000
C          27.218000    -23.297000     -5.171000
C          23.930000    -22.180000     -0.646000
C          21.710000    -23.235000     -6.793000
C          26.955000    -22.450000     -2.535000
C          22.367000    -19.531000     -5.136000
C          22.100000    -25.092000     -2.850000
C          27.070000    -24.252000     -4.123000
C          23.363000    -26.286000     -4.326000
C          23.288000    -25.267000     -2.176000
C          25.960000    -24.610000     -2.165000
C          26.115000    -21.869000     -1.579000
C          21.401000    -24.769000     -5.115000
C          24.520000    -20.123000     -1.744000
C          24.032000    -26.025000     -5.574000
C          25.428000    -25.486000     -5.557000
C          23.607000    -20.897000     -1.079000
C          25.881000    -20.007000     -5.518000
C          24.493000    -19.073000     -3.962000
C          23.756000    -19.134000     -5.185000
C          21.897000    -20.509000     -6.062000
C          25.545000    -24.455000     -6.492000
C          22.103000    -25.616000     -4.165000
C          20.945000    -21.296000     -5.436000
C          26.950000    -23.816000     -2.792000
C          20.691000    -23.594000     -4.790000
C          23.795000    -24.392000     -1.206000
C          26.045000    -22.046000     -6.669000
C          21.724000    -19.834000     -3.892000
C          24.133000    -25.965000     -3.084000
C          24.112000    -20.621000     -7.048000
C          25.088000    -24.007000     -1.271000
C          21.367000    -23.958000     -2.446000
C          26.468000    -20.306000     -3.207000
C          27.190000    -21.482000     -3.527000
C          21.815000    -23.049000     -1.426000
C          26.449000    -23.351000     -6.309000
C          26.184000    -25.357000     -4.317000
C          26.593000    -21.182000     -5.800000
C          23.383000    -25.082000     -6.576000
C          20.686000    -21.861000     -3.024000
C          25.471000    -25.527000     -3.094000
C          23.046000    -23.270000     -0.773000
C          24.817000    -21.764000     -7.299000
C          22.351000    -20.698000     -1.729000
C          22.726000    -20.982000     -7.068000
C          23.877000    -19.387000     -2.722000
C          20.654000    -23.188000     -3.395000
C          21.439000    -21.742000     -1.838000
C          22.035000    -24.543000     -6.335000
C          24.318000    -24.157000     -7.104000
C          25.811000    -19.580000     -4.194000
C          20.857000    -20.876000     -4.058000
C          25.200000    -22.677000     -0.878000
C          27.263000    -21.906000     -4.868000
C          25.815000    -20.563000     -1.962000
C          23.981000    -22.865000     -7.527000
C          24.614000    -19.738000     -6.114000
$end

--------------------------------------------------------------

             Standard Nuclear Orientation (Angstroms)
    I     Atom           X                Y                Z
 ----------------------------------------------------------------
    1      O      -7.4814723179     3.8142677481    -2.2742184094
    2      C      -7.0615461695     3.3806560825    -3.5879074720
    3      H      -5.9780701876     3.4652894358    -3.7345328180
    4      H      -7.4975777787     4.0714408573    -4.3214733046
    5      H      -7.2499699629     2.3150732405    -3.7681730566
    6      O      -9.3525689160     4.9764956567    -2.9517409619
    7      C      -8.6284776016     4.5262019378    -2.0434076888
    8      C      -8.9062272023     4.7640544752    -0.5145298880
    9      H      -9.9870234512     4.7957182530    -0.3300390389
   10      H      -8.4453347147     5.7552079444    -0.4254349082
   11      C      -8.2674062051     3.8873118027     0.5619588578
   12      H      -7.1799542105     3.8561097304     0.4224289683
   13      H      -8.5108814706     4.2077609592     1.5819672564
   14      C      -8.6649787901     2.4262793545     0.5012775192
   15      H      -9.7059937840     2.3851782449     0.8446133332
   16      H      -8.7380012788     2.0835563825    -0.5375736158
   17      C      -7.7067382491     1.5729287850     1.4322672459
   18      C      -8.0523783643     1.6452946624     2.9062811842
   19      C      -9.0094179531     0.7433262620     3.4541399527
   20      H      -9.4429884458     0.0007845027     2.7913553999
   21      C      -9.4800563758     1.0457669318     4.7384277384
   22      H     -10.3029964066     0.5112012163     5.2035666439
   23      C      -8.8597747387     2.0393432599     5.5588244539
   24      H      -9.3267572550     2.2451021560     6.5167470009
   25      C      -7.8727434225     2.8704843139     5.0392142834
   26      H      -7.4048087864     3.6734784945     5.6010750511
   27      C      -7.4621247598     2.6048889998     3.7158362410
   28      H      -6.7472836771     3.3337986284     3.3476202991
   29      C      -2.5869514279    -0.1548567080     2.0274220113
   30      C      -3.8273995358    -1.9697034388     2.9624561472
   31      C      -3.0422912660    -4.9850254754    -0.4815381938
   32      C      -4.1241998958     1.0225248529    -2.7245466132
   33      C      -6.1425253872    -4.3784811619    -2.0408615694
   34      C      -3.6977314106    -0.5601535501     2.8145092363
   35      C      -5.1023331362    -1.4614730855    -3.9365740906
   36      C      -1.6260015917    -3.3304686009     0.6410272197
   37      C      -7.4634227241    -2.1794636713     1.1983988866
   38      C      -5.4996170041     0.6726647993    -2.7735233535
   39      C      -7.3652495003     0.1358881187     0.9195474804
   40      C      -7.9091643444    -1.8294097895    -0.1023046491
   41      C      -7.0897514201    -0.9899539110    -2.6610219620
   42      C      -5.2433260521    -2.8355524667    -3.6674554330
   43      C      -5.9052666632    -1.0128276709     2.6859042252
   44      C      -3.7776518343    -4.4867030307    -2.5742583317
   45      C      -6.3434303079     1.2326344064     0.8348886445
   46      C      -5.8156421260     1.6528857258    -0.5237980241
   47      C      -4.8551323220    -4.9407334213    -1.8660202340
   48      C      -1.5064806930    -1.1750730508    -2.1176474218
   49      C      -1.7368777869    -3.4105184591    -1.8112130805
   50      C      -1.2625666349    -2.8401103088    -0.6152923167
   51      C      -1.8605378471    -2.4270720318     1.6622222960
   52      C      -4.3940987086     1.7649063913    -0.4415077869
   53      C      -7.0645602155    -1.0304292064     1.8631924619
   54      C      -2.9471504806    -2.9055049139     2.3856301768
   55      C      -6.0241676365    -0.4725642208    -3.4230194086
   56      C      -5.2273076302    -2.2446440421     2.8829955167
   57      C      -7.6348008709    -2.8054215396    -1.0966887540
   58      C      -2.3167745972     0.8945382200    -1.3822414274
   59      C      -2.5642906038    -4.3437933150     0.7475389736
   60      C      -7.7658028850    -0.4575883486    -0.3106755355
   61      C      -1.2671991736    -0.5916984372     0.2379530143
   62      C      -7.2456819680    -2.3841999366    -2.3778971058
   63      C      -6.8044797014    -3.4201852854     1.3780234095
   64      C      -3.0370051122    -2.3376554917    -3.5950502342
   65      C      -3.7430904136    -1.1526922713    -3.8129188036
   66      C      -6.5350343072    -4.3305199796     0.3378753797
   67      C      -3.5522465003     1.5344670319    -1.5600061378
   68      C      -6.2926457201     0.9642680318    -1.6286954143
   69      C      -2.0916296986     0.0207275828    -2.4439639642
   70      C      -5.1098479099     1.0796177081     1.6309623580
   71      C      -4.7945370949    -4.3667925100     1.7120106559
   72      C      -7.3081365387    -0.0642830550    -1.5834620304
   73      C      -6.9703006728    -4.0235384346    -0.9398489732
   74      C      -1.9424419349     0.6068158551    -0.0062614498
   75      C      -4.4155704207    -5.2975639866    -0.5428247523
   76      C      -1.6428844537    -1.0348554478     1.4762734229
   77      C      -2.7303555483    -4.4025184910    -1.7290007067
   78      C      -5.6839910896    -3.4542946891     2.2611020127
   79      C      -5.3098584226    -4.9761124173     0.5524084915
   80      C      -4.9690818846     0.0003433621     2.5721434311
   81      C      -4.0138022106     1.5141483996     0.8673971001
   82      C      -1.9537298097    -2.3518492992    -2.6901418660
   83      C      -3.4243998697    -4.1248270797     1.8242635616
   84      C      -6.3291334597    -3.3167528854    -2.9211850861
   85      C      -3.2355663525     0.0417703116    -3.2834025475
   86      C      -3.9459185860    -3.4050233103    -3.5250271168
   87      C      -2.7713819568     0.9011659441     1.0355381783
   88      C      -1.0976749839    -1.5075302758    -0.8049398817
   89      O      10.9488546824    -4.9043992265    -1.5196106655
   90      C      11.5623638535    -5.4140667059    -2.7422056750
   91      H      11.7988747886    -4.5629986547    -3.3928390201
   92      H      10.6889875909    -5.8714777668    -3.2244649676
   93      H      12.4176295429    -6.0724019663    -2.5495601832
   94      O      11.8297413906    -2.7518425091    -1.5867089946
   95      C      11.1729233951    -3.6130681580    -1.0047764363
   96      C      10.4679210529    -3.3891043189     0.2650565828
   97      H      10.8451936059    -2.4114754454     0.5897737004
   98      H      10.7442207760    -4.1615711971     0.9937481396
   99      C       8.9522420896    -3.1326925078     0.1218565006
  100      H       8.7579305951    -2.4564516369    -0.7199168226
  101      H       8.3553778270    -4.0375306814    -0.0463039337
  102      C       8.4807126430    -2.3231567041     1.3203321005
  103      H       8.8229657276    -2.9012581129     2.1868830726
  104      H       8.8805839612    -1.3029886088     1.3794843288
  105      C       6.9156594393    -2.1043938163     1.4600220022
  106      C       6.3389726219    -3.3755986360     1.9905534536
  107      C       6.2893087876    -3.5754199413     3.3913200114
  108      H       6.5249506264    -2.6815739056     3.9621248714
  109      C       5.7539204626    -4.7949591337     3.9391169626
  110      H       5.6715648159    -4.9128538419     5.0157303497
  111      C       5.4173271102    -5.7732864434     3.0359106792
  112      H       5.1285659512    -6.7085192261     3.5067797006
  113      C       5.5355939428    -5.6192444851     1.6306854192
  114      H       5.2860168478    -6.4483004849     0.9750922353
  115      C       5.9838922212    -4.4539154954     1.1791203635
  116      H       6.1661442577    -4.2983586379     0.1193377163
  117      C       2.1816226358    -0.5189632921    -0.9669381532
  118      C       1.8221005446     0.0863537060     1.3957874334
  119      C       2.2674499391     4.5738664705     0.7511828215
  120      C       6.5794004774     1.3997515923    -2.7337681531
  121      C       5.6334420291     4.7440290492     1.7889775733
  122      C       2.3413267859    -0.8365331437     0.4301777954
  123      C       6.9586529195     3.8100890069    -1.3990340474
  124      C       1.0552811450     2.9451912603    -0.5401629395
  125      C       5.4296579677     0.8565986956     3.0269667907
  126      C       7.5375651875     1.4934672896    -1.6824020149
  127      C       6.3965089486    -0.7456567306     1.7241399681
  128      C       6.5829267727     1.4657465223     2.5852032921
  129      C       7.8723040308     2.4459942810     0.3607989634
  130      C       6.4427406789     4.7160107471    -0.4661689120
  131      C       3.8325733952    -0.7042082002     2.1688539180
  132      C       4.2248049109     5.4331922797    -0.0346859129
  133      C       6.1373027988    -1.3387783226     0.4379809776
  134      C       6.6890593834    -0.6888322374    -0.7919624185
  135      C       4.4173629119     5.2167227404     1.3035712951
  136      C       3.4526500227     3.0604307715    -3.1783513935
  137      C       2.6071618150     4.5230266846    -1.6401710121
  138      C       1.6669488039     3.4520265752    -1.7477686858
  139      C       1.0021775233     1.5346020905    -0.3345463078
  140      C       5.7088694974    -0.6568892029    -1.7864886524
  141      C       5.2240399639    -0.4388169759     2.4945858421
  142      C       1.1619848812     1.2735405819     1.0159563753
  143      C       7.7318684029     2.7186092919    -1.0210924543
  144      C       2.7536312160     0.1660905091     2.4311780122
  145      C       6.7445785437     2.8472783810     2.4154610516
  146      C       4.3977017508     0.9119539596    -3.1664090385
  147      C       1.3566158092     3.5128252713     0.7403772004
  148      C       7.1976265663     0.5179467095     1.7194592891
  149      C       2.0821421001     1.1941146616    -2.4813368946
  150      C       7.2959350244     3.3153241736     1.2747427835
  151      C       4.3953299001     1.7521134477     3.3656108183
  152      C       4.9816690510     4.6478204887    -2.2207576920
  153      C       6.0710128832     3.7828787765    -2.4888357584
  154      C       4.5180227593     3.1803917437     3.2544686955
  155      C       5.6495015687     0.3882901461    -2.7731986288
  156      C       7.6045263113     0.4433059302    -0.7147583165
  157      C       4.5507366137     2.2215609125    -3.4183434734
  158      C       4.6960737753    -1.5674342640     0.0078305826
  159      C       2.3636626533     2.5875414164     2.7576286576
  160      C       7.7663579367     1.0698370001     0.5557798937
  161      C       5.7198203484     3.7525520332     2.7865732392
  162      C       3.1679396201     0.3974075699    -2.7110683805
  163      C       3.2150403876     4.6271266441     1.7999924781
  164      C       1.4204513427     0.6619465347    -1.3277861041
  165      C       2.9312217498     5.0859129570    -0.3777145958
  166      C       3.0470251822     1.4342171122     3.0777109961
  167      C       3.2612407966     3.6734872025     2.8109318124
  168      C       3.5852357944    -1.3073495835     0.9374008808
  169      C       4.4768806572    -1.1476459088    -1.3279710920
  170      C       3.6818548171     4.2846080026    -2.5546044342
  171      C       1.4066336611     2.5284263617     1.6856105056
  172      C       6.6709583161     4.5025887538     0.9063680685
  173      C       5.8347250694     2.5490256733    -3.1253580194
  174      C       5.2472796901     5.2446432740    -0.9496414301
  175      C       3.2501797496    -0.6645874901    -1.8008573865
  176      C       2.2204658255     2.5539659697    -2.6703341608
 ----------------------------------------------------------------

    9   -5804.2672216883      9.94E-06 Convergence criterion met
 Total energy in the final basis set = -5804.2672216883

                    Orbital Energies (a.u.)
 --------------------------------------------------------------

 Alpha MOs
 -- Occupied --
-19.194 -19.181 -19.136 -19.134 -10.327 -10.316 -10.244 -10.243
-10.242 -10.241 -10.241 -10.240 -10.238 -10.235 -10.233 -10.232
-10.229 -10.229 -10.227 -10.226 -10.226 -10.225 -10.224 -10.224
-10.224 -10.224 -10.224 -10.223 -10.223 -10.223 -10.222 -10.222
-10.222 -10.222 -10.221 -10.221 -10.221 -10.221 -10.221 -10.220
-10.220 -10.220 -10.220 -10.220 -10.220 -10.220 -10.220 -10.220
-10.220 -10.219 -10.219 -10.219 -10.219 -10.219 -10.219 -10.219
-10.218 -10.218 -10.218 -10.218 -10.218 -10.218 -10.218 -10.218
-10.217 -10.217 -10.217 -10.217 -10.217 -10.217 -10.217 -10.217
-10.217 -10.217 -10.217 -10.217 -10.216 -10.216 -10.216 -10.216
-10.216 -10.216 -10.216 -10.216 -10.215 -10.215 -10.215 -10.215
-10.215 -10.215 -10.215 -10.214 -10.214 -10.214 -10.214 -10.214
-10.214 -10.214 -10.214 -10.213 -10.213 -10.213 -10.213 -10.213
-10.213 -10.213 -10.213 -10.212 -10.212 -10.212 -10.212 -10.212
-10.212 -10.212 -10.211 -10.211 -10.211 -10.211 -10.211 -10.210
-10.210 -10.210 -10.209 -10.209 -10.208 -10.208 -10.208 -10.207
-10.207 -10.207 -10.207 -10.206 -10.206 -10.206 -10.204 -10.204
-10.203 -10.202 -10.202 -10.201 -10.201 -10.201 -10.200 -10.199
-10.197 -10.196 -10.193 -10.192  -1.084  -1.071  -0.999  -0.997
 -0.985  -0.983  -0.972  -0.966  -0.966  -0.963  -0.961  -0.960
 -0.940  -0.934  -0.927  -0.926  -0.925  -0.924  -0.923  -0.922
 -0.921  -0.920  -0.898  -0.895  -0.892  -0.891  -0.889  -0.887
 -0.877  -0.873  -0.861  -0.854  -0.841  -0.841  -0.839  -0.837
 -0.836  -0.836  -0.824  -0.821  -0.814  -0.807  -0.799  -0.799
 -0.796  -0.795  -0.795  -0.793  -0.793  -0.792  -0.784  -0.782
 -0.770  -0.770  -0.770  -0.769  -0.767  -0.767  -0.766  -0.763
 -0.757  -0.753  -0.743  -0.741  -0.736  -0.732  -0.717  -0.716
 -0.714  -0.714  -0.713  -0.712  -0.712  -0.710  -0.710  -0.709
 -0.708  -0.708  -0.707  -0.706  -0.704  -0.701  -0.675  -0.673
 -0.661  -0.658  -0.658  -0.657  -0.649  -0.648  -0.634  -0.632
 -0.629  -0.629  -0.628  -0.624  -0.623  -0.622  -0.617  -0.616
 -0.616  -0.614  -0.614  -0.613  -0.612  -0.610  -0.610  -0.609
 -0.606  -0.605  -0.602  -0.602  -0.568  -0.568  -0.565  -0.563
 -0.563  -0.561  -0.559  -0.559  -0.558  -0.555  -0.555  -0.554
 -0.540  -0.537  -0.535  -0.533  -0.530  -0.528  -0.526  -0.526
 -0.524  -0.524  -0.521  -0.519  -0.517  -0.517  -0.514  -0.512
 -0.509  -0.508  -0.499  -0.498  -0.491  -0.490  -0.489  -0.487
 -0.487  -0.484  -0.479  -0.478  -0.477  -0.476  -0.476  -0.475
 -0.474  -0.473  -0.471  -0.470  -0.468  -0.468  -0.467  -0.467
 -0.467  -0.465  -0.465  -0.464  -0.461  -0.460  -0.460  -0.458
 -0.456  -0.455  -0.453  -0.453  -0.450  -0.448  -0.446  -0.445
 -0.444  -0.442  -0.442  -0.439  -0.439  -0.438  -0.437  -0.434
 -0.433  -0.432  -0.430  -0.430  -0.429  -0.427  -0.426  -0.426
 -0.425  -0.424  -0.422  -0.421  -0.421  -0.419  -0.419  -0.418
 -0.418  -0.417  -0.416  -0.416  -0.415  -0.415  -0.414  -0.413
 -0.413  -0.412  -0.412  -0.408  -0.403  -0.401  -0.399  -0.396
 -0.395  -0.394  -0.392  -0.391  -0.389  -0.387  -0.385  -0.384
 -0.379  -0.376  -0.374  -0.372  -0.371  -0.369  -0.367  -0.367
 -0.364  -0.364  -0.363  -0.361  -0.361  -0.361  -0.360  -0.359
 -0.358  -0.357  -0.356  -0.356  -0.354  -0.352  -0.352  -0.352
 -0.349  -0.349  -0.348  -0.347  -0.346  -0.345  -0.344  -0.344
 -0.342  -0.342  -0.341  -0.340  -0.338  -0.337  -0.336  -0.334
 -0.333  -0.332  -0.332  -0.331  -0.330  -0.329  -0.328  -0.325
 -0.312  -0.306  -0.295  -0.293  -0.289  -0.287  -0.274  -0.271
 -0.270  -0.269  -0.268  -0.267  -0.267  -0.266  -0.265  -0.264
 -0.263  -0.263  -0.261  -0.260  -0.259  -0.258  -0.257  -0.256
 -0.250  -0.247  -0.246  -0.244  -0.222  -0.222  -0.214  -0.213
 -0.211  -0.209  -0.208  -0.208  -0.199  -0.196

          Ground-State Mulliken Net Atomic Charges

     Atom                 Charge (a.u.)
  ----------------------------------------
      1 O                    -0.463614
      2 C                    -0.091839
      3 H                     0.125315
      4 H                     0.137849
      5 H                     0.128600
      6 O                    -0.479003
      7 C                     0.585647
      8 C                    -0.256589
      9 H                     0.134785
     10 H                     0.141877
     11 C                    -0.180820
     12 H                     0.113058
     13 H                     0.109858
     14 C                    -0.181508
     15 H                     0.102163
     16 H                     0.113480
     17 C                     0.008393
     18 C                     0.079876
     19 C                    -0.088030
     20 H                     0.100752
     21 C                    -0.103446
     22 H                     0.091926
     23 C                    -0.083195
     24 H                     0.089196
     25 C                    -0.085087
     26 H                     0.097038
     27 C                    -0.109613
     28 H                     0.088453
     29 C                    -0.013832
     30 C                    -0.007886
     31 C                    -0.021289
     32 C                    -0.041162
     33 C                     0.000434
     34 C                    -0.029074
     35 C                    -0.017513
     36 C                     0.005535
     37 C                    -0.003482
     38 C                     0.004094
     39 C                    -0.120374
     40 C                    -0.024639
     41 C                    -0.007557
     42 C                     0.015523
     43 C                     0.002934
     44 C                     0.014066
     45 C                    -0.086618
     46 C                     0.026521
     47 C                     0.014739
     48 C                     0.012986
     49 C                    -0.019609
     50 C                    -0.001078
     51 C                    -0.000609
     52 C                     0.012245
     53 C                     0.036597
     54 C                     0.000474
     55 C                    -0.023548
     56 C                    -0.014447
     57 C                     0.027761
     58 C                    -0.003738
     59 C                    -0.014769
     60 C                     0.076875
     61 C                    -0.011041
     62 C                    -0.008940
     63 C                    -0.004690
     64 C                    -0.002137
     65 C                     0.029038
     66 C                    -0.002962
     67 C                     0.008082
     68 C                     0.024141
     69 C                    -0.006053
     70 C                     0.044118
     71 C                     0.006107
     72 C                    -0.023361
     73 C                    -0.013395
     74 C                     0.017675
     75 C                    -0.021546
     76 C                     0.002515
     77 C                     0.027041
     78 C                     0.000580
     79 C                     0.003869
     80 C                     0.023350
     81 C                    -0.001777
     82 C                    -0.003644
     83 C                     0.006968
     84 C                    -0.004455
     85 C                    -0.009089
     86 C                    -0.030701
     87 C                    -0.013172
     88 C                     0.038931
     89 O                    -0.497185
     90 C                    -0.083765
     91 H                     0.137822
     92 H                     0.127545
     93 H                     0.129322
     94 O                    -0.465735
     95 C                     0.580799
     96 C                    -0.240512
     97 H                     0.140128
     98 H                     0.130070
     99 C                    -0.184515
    100 H                     0.119123
    101 H                     0.119195
    102 C                    -0.182771
    103 H                     0.116133
    104 H                     0.112291
    105 C                    -0.018447
    106 C                     0.112604
    107 C                    -0.128026
    108 H                     0.085659
    109 C                    -0.079969
    110 H                     0.097755
    111 C                    -0.098722
    112 H                     0.084734
    113 C                    -0.076086
    114 H                     0.096774
    115 C                    -0.105034
    116 H                     0.082460
    117 C                    -0.020569
    118 C                     0.004101
    119 C                     0.008198
    120 C                     0.000129
    121 C                     0.006065
    122 C                    -0.012386
    123 C                     0.033481
    124 C                    -0.023650
    125 C                     0.000342
    126 C                    -0.005534
    127 C                    -0.092105
    128 C                    -0.001707
    129 C                     0.000479
    130 C                    -0.002762
    131 C                     0.004764
    132 C                     0.026862
    133 C                    -0.069182
    134 C                     0.036278
    135 C                     0.008029
    136 C                    -0.002731
    137 C                    -0.019795
    138 C                    -0.007028
    139 C                     0.030587
    140 C                    -0.010095
    141 C                     0.054387
    142 C                     0.004962
    143 C                    -0.010511
    144 C                    -0.002362
    145 C                     0.011676
    146 C                     0.005839
    147 C                     0.002688
    148 C                     0.013255
    149 C                    -0.011356
    150 C                     0.026228
    151 C                    -0.003728
    152 C                    -0.002006
    153 C                    -0.018299
    154 C                    -0.003493
    155 C                    -0.012375
    156 C                    -0.025310
    157 C                     0.025996
    158 C                     0.015755
    159 C                    -0.018783
    160 C                     0.005099
    161 C                    -0.040787
    162 C                     0.009916
    163 C                    -0.010975
    164 C                    -0.014314
    165 C                     0.004095
    166 C                    -0.001710
    167 C                    -0.000912
    168 C                    -0.020200
    169 C                     0.026518
    170 C                    -0.000098
    171 C                     0.000168
    172 C                    -0.012021
    173 C                    -0.021031
    174 C                    -0.015671
    175 C                     0.021514
    176 C                     0.013897
  ----------------------------------------
  Sum of atomic charges =     0.000000

                    Cartesian Multipole Moments
 -----------------------------------------------------------------
    Charge (ESU x 10^10)
                 0.0000
    Dipole Moment (Debye)
         X       0.1699      Y      -2.8851      Z       3.2642
       Tot       4.3598
    Quadrupole Moments (Debye-Ang)
        XX    -824.3832     XY     -22.1052     YY    -794.7624
        XZ     -20.8336     YZ      15.1363     ZZ    -798.2454

 Total job time:  861.54s(wall), 7349.71s(cpu)
        *  Thank you very much for using Q-Chem.  Have a nice day.  *
