 Q-Chem 4.4, Q-Chem, Inc., Pleasanton, CA (2016)
 Q-Chem 4.4.2 for Intel X86 Linux

User input:
--------------------------------------------------------------
$comment
SP
$end

$rem
MEM_STATIC 5000
MEM_TOTAL 20000
JOBTYPE SP
EXCHANGE B3LYP
BASIS 6-31g(d,p)
$end

$molecule
0 1
O          10.668000    -21.206000    -11.818000
C          11.288000    -19.944000    -12.117000
H          10.506000    -19.187000    -12.247000
H          11.891000    -20.067000    -13.026000
H          11.824000    -19.507000    -11.265000
O          12.338000    -22.531000    -12.671000
C          11.362000    -22.357000    -11.934000
C          10.741000    -23.535000    -11.176000
H          11.279000    -24.359000    -11.662000
H           9.664000    -23.569000    -11.386000
C          10.886000    -23.641000     -9.654000
H          10.316000    -22.775000     -9.295000
H          10.248000    -24.479000     -9.348000
C          12.312000    -23.742000     -9.130000
H          12.782000    -24.708000     -9.353000
H          12.965000    -23.075000     -9.707000
C          12.350000    -23.414000     -7.646000
C          11.691000    -22.108000     -7.254000
C          10.452000    -22.120000     -6.583000
H           9.981000    -23.096000     -6.517000
C           9.821000    -21.021000     -6.075000
H           8.897000    -21.108000     -5.512000
C          10.418000    -19.738000     -6.298000
H           9.896000    -18.826000     -6.021000
C          11.638000    -19.652000     -7.012000
H          12.134000    -18.686000     -6.994000
C          12.296000    -20.853000     -7.412000
H          13.345000    -20.807000     -7.689000
C          15.689000    -22.915000     -3.227000
C          13.580000    -23.685000     -2.312000
C          14.791000    -27.884000     -1.293000
C          17.120000    -26.195000     -6.884000
C          13.362000    -29.269000     -4.059000
C          14.307000    -22.842000     -3.157000
C          16.154000    -28.800000     -6.300000
C          16.048000    -25.883000     -1.025000
C          11.434000    -25.814000     -4.889000
C          15.913000    -26.682000     -7.534000
C          12.455000    -24.534000     -6.654000
C          11.828000    -26.697000     -5.924000
C          14.085000    -27.911000     -7.220000
C          15.462000    -29.539000     -5.319000
C          12.506000    -23.683000     -4.187000
C          15.436000    -29.391000     -2.896000
C          13.703000    -23.714000     -6.866000
C          14.939000    -24.423000     -7.360000
C          14.032000    -29.312000     -2.846000
C          18.247000    -26.581000     -3.625000
C          17.032000    -27.767000     -2.152000
C          17.146000    -26.440000     -1.683000
C          15.664000    -24.520000     -1.316000
C          16.081000    -23.991000     -6.669000
C          11.925000    -24.529000     -5.214000
C          14.241000    -24.479000     -1.284000
C          15.446000    -27.998000     -7.259000
C          12.524000    -24.173000     -2.944000
C          12.245000    -28.051000     -5.622000
C          17.871000    -24.755000     -5.257000
C          14.902000    -26.587000     -0.807000
C          12.533000    -25.995000     -6.967000
C          17.501000    -24.370000     -2.949000
C          13.363000    -28.622000     -6.221000
C          11.413000    -26.275000     -3.548000
C          17.317000    -28.672000     -4.348000
C          17.294000    -28.241000     -5.652000
C          11.890000    -27.526000     -3.306000
C          17.214000    -24.845000     -6.444000
C          14.810000    -25.780000     -7.726000
C          18.318000    -26.101000     -4.933000
C          14.301000    -22.887000     -5.677000
C          12.608000    -26.211000     -1.623000
C          13.672000    -26.589000     -7.497000
C          12.309000    -28.403000     -4.271000
C          17.473000    -23.860000     -4.270000
C          13.673000    -28.404000     -1.905000
C          16.416000    -23.784000     -2.335000
C          15.880000    -28.537000     -1.878000
C          11.943000    -25.432000     -2.579000
C          12.559000    -27.517000     -2.069000
C          13.653000    -22.919000     -4.421000
C          15.714000    -23.043000     -5.646000
C          17.808000    -27.847000     -3.335000
C          13.783000    -25.731000     -0.980000
C          14.026000    -29.397000     -5.281000
C          17.838000    -26.937000     -5.953000
C          16.151000    -29.415000     -4.154000
C          16.386000    -22.922000     -4.419000
C          17.831000    -25.695000     -2.630000
O          27.846000    -30.758000     -7.232000
C          29.043000    -31.030000     -8.022000
H          29.848000    -30.373000     -7.670000
H          28.750000    -30.586000     -8.982000
H          29.315000    -32.092000     -8.035000
O          28.892000    -29.876000     -5.350000
C          27.867000    -30.242000     -5.922000
C          26.519000    -30.118000     -5.350000
H          26.716000    -29.837000     -4.308000
H          26.000000    -31.084000     -5.389000
C          25.707000    -28.914000     -5.874000
H          26.343000    -28.022000     -5.933000
H          25.268000    -29.064000     -6.868000
C          24.679000    -28.526000     -4.822000
H          24.139000    -29.458000     -4.617000
H          25.096000    -28.131000     -3.887000
C          23.618000    -27.422000     -5.237000
C          22.600000    -28.092000     -6.100000
C          21.489000    -28.722000     -5.489000
H          21.396000    -28.498000     -4.430000
C          20.495000    -29.391000     -6.288000
H          19.620000    -29.823000     -5.811000
C          20.753000    -29.480000     -7.634000
H          20.031000    -30.091000     -8.168000
C          21.902000    -28.923000     -8.252000
H          22.062000    -29.063000     -9.317000
C          22.758000    -28.270000     -7.475000
H          23.692000    -27.884000     -7.874000
C          22.708000    -22.393000     -7.404000
C          20.847000    -22.653000     -5.808000
C          22.512000    -19.724000     -2.742000
C          27.218000    -23.297000     -5.171000
C          23.930000    -22.180000     -0.646000
C          21.710000    -23.235000     -6.793000
C          26.955000    -22.450000     -2.535000
C          22.367000    -19.531000     -5.136000
C          22.100000    -25.092000     -2.850000
C          27.070000    -24.252000     -4.123000
C          23.363000    -26.286000     -4.326000
C          23.288000    -25.267000     -2.176000
C          25.960000    -24.610000     -2.165000
C          26.115000    -21.869000     -1.579000
C          21.401000    -24.769000     -5.115000
C          24.520000    -20.123000     -1.744000
C          24.032000    -26.025000     -5.574000
C          25.428000    -25.486000     -5.557000
C          23.607000    -20.897000     -1.079000
C          25.881000    -20.007000     -5.518000
C          24.493000    -19.073000     -3.962000
C          23.756000    -19.134000     -5.185000
C          21.897000    -20.509000     -6.062000
C          25.545000    -24.455000     -6.492000
C          22.103000    -25.616000     -4.165000
C          20.945000    -21.296000     -5.436000
C          26.950000    -23.816000     -2.792000
C          20.691000    -23.594000     -4.790000
C          23.795000    -24.392000     -1.206000
C          26.045000    -22.046000     -6.669000
C          21.724000    -19.834000     -3.892000
C          24.133000    -25.965000     -3.084000
C          24.112000    -20.621000     -7.048000
C          25.088000    -24.007000     -1.271000
C          21.367000    -23.958000     -2.446000
C          26.468000    -20.306000     -3.207000
C          27.190000    -21.482000     -3.527000
C          21.815000    -23.049000     -1.426000
C          26.449000    -23.351000     -6.309000
C          26.184000    -25.357000     -4.317000
C          26.593000    -21.182000     -5.800000
C          23.383000    -25.082000     -6.576000
C          20.686000    -21.861000     -3.024000
C          25.471000    -25.527000     -3.094000
C          23.046000    -23.270000     -0.773000
C          24.817000    -21.764000     -7.299000
C          22.351000    -20.698000     -1.729000
C          22.726000    -20.982000     -7.068000
C          23.877000    -19.387000     -2.722000
C          20.654000    -23.188000     -3.395000
C          21.439000    -21.742000     -1.838000
C          22.035000    -24.543000     -6.335000
C          24.318000    -24.157000     -7.104000
C          25.811000    -19.580000     -4.194000
C          20.857000    -20.876000     -4.058000
C          25.200000    -22.677000     -0.878000
C          27.263000    -21.906000     -4.868000
C          25.815000    -20.563000     -1.962000
C          23.981000    -22.865000     -7.527000
C          24.614000    -19.738000     -6.114000
$end

--------------------------------------------------------------

             Standard Nuclear Orientation (Angstroms)
    I     Atom           X                Y                Z
 ----------------------------------------------------------------
    1      O       9.1168957174     4.2608326878     5.3072776164
    2      C       8.4945220391     5.5288079049     5.5743634706
    3      H       9.2579731652     6.3141854839     5.5319672881
    4      H       8.0203441078     5.4746117431     6.5629164866
    5      H       7.8359562019     5.8718608051     4.7664187040
    6      O       7.6231862888     2.9778469650     6.4883422963
    7      C       8.4874555832     3.1081048902     5.6153632245
    8      C       9.0477726109     1.8815731193     4.8876588591
    9      H       8.6089667754     1.0923362367     5.5114942396
   10      H      10.1434808624     1.8944108319     4.9543193474
   11      C       8.7094197497     1.6324430073     3.4138215110
   12      H       9.1949367875     2.4759777505     2.9074033605
   13      H       9.3328752378     0.7863484858     3.1002113789
   14      C       7.2320014687     1.4474815730     3.0955802647
   15      H       6.8315429057     0.4944412693     3.4631834733
   16      H       6.6354438272     2.1478893672     3.6937231424
   17      C       6.9884063733     1.6365859803     1.6068946186
   18      C       7.5413566320     2.9173428392     1.0174127447
   19      C       8.6817531500     2.8752018063     0.1908379357
   20      H       9.1762349269     1.9095564041     0.1485327404
   21      C       9.1995542431     3.9385261232    -0.4912540121
   22      H      10.0447651087     3.8236493313    -1.1626227001
   23      C       8.5892635066     5.2210030264    -0.3041037796
   24      H       9.0362095150     6.1166467402    -0.7272096808
   25      C       7.4705393734     5.3412428821     0.5558908082
   26      H       6.9406987283     6.2885757264     0.5194851361
   27      C       6.9157019173     4.1657681743     1.1439210868
   28      H       5.9108505059     4.2103606626     1.5532267807
   29      C       3.0849035136     1.6421691395    -2.3539281813
   30      C       5.0837116398     0.8451660371    -3.4708695986
   31      C       3.9077688925    -3.4591536807    -3.9467618363
   32      C       2.2669916797    -1.3230368072     1.7348838620
   33      C       5.7362975047    -4.5472182055    -1.2852546122
   34      C       4.4422448693     1.7435293963    -2.6137426201
   35      C       3.2451288167    -3.9452955280     1.2581827584
   36      C       2.5526825657    -1.5238678933    -4.2193126911
   37      C       7.6257241879    -0.9826569367    -1.0262589176
   38      C       3.5658472317    -1.7173769808     2.2583225713
   39      C       6.7967363895     0.4278225572     0.7399213754
   40      C       7.4034456791    -1.7764912341     0.1255090160
   41      C       5.3818461112    -2.9231758937     1.8124323925
   42      C       3.8302838505    -4.7535261411     0.2623399684
   43      C       6.3924224364     1.0468380181    -1.7633247345
   44      C       3.5342594743    -4.8283027997    -2.1460385359
   45      C       5.5573318769     1.2318516747     1.0436673753
   46      C       4.4237370191     0.5400836563     1.7583929920
   47      C       4.9157834658    -4.7185719539    -2.3895700584
   48      C       0.7394725748    -2.0355455291    -1.2981381797
   49      C       1.7952654787    -3.3206768674    -2.8101860584
   50      C       1.5715379442    -2.0457435662    -3.3744351770
   51      C       2.9201964459    -0.1305682905    -4.1028834655
   52      C       3.1859826940     0.8775574208     1.1906389176
   53      C       7.1336906070     0.3138827799    -0.7527288122
   54      C       4.3243133581    -0.0565263615    -4.3278445504
   55      C       4.0417870866    -3.0407885613     2.0400726153
   56      C       6.2306531829     0.4443373339    -2.9449746971
   57      C       7.0014654044    -3.1626819958     0.0018318921
   58      C       1.2567961520    -0.0582732185     0.1025211387
   59      C       3.6859153095    -2.2155702589    -4.5255599538
   60      C       6.8148854630    -0.9997222802     1.1875376711
   61      C       1.3077441199     0.1221862573    -2.2590096535
   62      C       5.9933280914    -3.7044264760     0.7923621422
   63      C       7.4887194230    -1.5643083203    -2.3123982422
   64      C       1.8333358640    -4.0269016570    -0.5249151352
   65      C       2.0102245363    -3.4773967197     0.7214639089
   66      C       7.0312785833    -2.8439776434    -2.3778833661
   67      C       2.0660049887    -0.0220338376     1.1945768908
   68      C       4.6500024919    -0.7738010591     2.2215958529
   69      C       0.8219233164    -1.4392856273    -0.0395751083
   70      C       4.7787862181     1.9305676757    -0.1229159295
   71      C       6.0511374667    -1.7079537400    -4.0589577494
   72      C       5.7777956762    -1.5712393172     1.9147721936
   73      C       6.7748708614    -3.6389103386    -1.2924101558
   74      C       1.4888544513     0.7520210017    -1.0034491242
   75      C       5.1147212743    -3.8920992493    -3.4460702320
   76      C       2.2806688286     0.6766444739    -3.0612631030
   77      C       2.9295987576    -4.0830742422    -3.1667225295
   78      C       6.8056614168    -0.8277107172    -3.2722762195
   79      C       6.2066803709    -2.9657495558    -3.5105882656
   80      C       5.2580460970     1.7997123747    -1.4464154039
   81      C       3.3806494726     1.7365122772     0.0486129110
   82      C       1.1838461604    -3.3112758667    -1.5318500155
   83      C       4.7851607718    -1.3191246925    -4.5791394290
   84      C       5.2427245657    -4.5791659120     0.0208575951
   85      C       1.4618394077    -2.1654973105     0.9767024066
   86      C       2.9909727567    -4.7547113405    -0.8067145125
   87      C       2.5502006667     1.7270727972    -1.0836501667
   88      C       0.9886562243    -1.2344882290    -2.4136164228
   89      O      -8.1438356400    -6.1058784903     3.9093375760
   90      C      -9.2164804800    -6.3344344630     4.8727109276
   91      H     -10.0845124322    -5.7332539501     4.5749181797
   92      H      -8.8174768487    -5.7967519829     5.7423537582
   93      H      -9.4445959620    -7.3973108491     5.0150278796
   94      O      -9.4587398190    -5.4275130196     2.1135616188
   95      C      -8.3548997209    -5.7132021830     2.5736526313
   96      C      -7.0986707576    -5.6080909475     1.8183352013
   97      H      -7.4403473120    -5.4291777763     0.7913097833
   98      H      -6.5433020919    -6.5529084894     1.8724042090
   99      C      -6.2707686443    -4.3407658872     2.1216523330
  100      H      -6.9264987263    -3.4635751231     2.1864244168
  101      H      -5.7004910275    -4.3875380017     3.0575224143
  102      C      -5.4040889400    -4.0251220226     0.9119964973
  103      H      -4.8610321437    -4.9579933632     0.7194104703
  104      H      -5.9540210393    -3.7284835386     0.0099325883
  105      C      -4.3399837724    -2.8610328404     1.0832815471
  106      C      -3.1937414369    -3.4227602153     1.8582550076
  107      C      -2.1492440354    -4.0778207877     1.1622213701
  108      H      -2.2036952912    -3.9498392110     0.0847420075
  109      C      -1.0351702707    -4.6450467230     1.8771286264
  110      H      -0.2143938711    -5.0966893995     1.3274714653
  111      C      -1.1117742026    -4.6164520960     3.2480827412
  112      H      -0.3039370094    -5.1572196199     3.7325727353
  113      C      -2.1902793195    -4.0343810248     3.9625013726
  114      H      -2.2045623025    -4.0798970451     5.0474664818
  115      C      -3.1641616162    -3.4775517427     3.2523123675
  116      H      -4.0518542351    -3.0803700937     3.7368756267
  117      C      -3.3434181002     2.3673947219     2.6597434359
  118      C      -1.6982497723     2.0091534426     0.8588488362
  119      C      -3.8574238317     4.6005980524    -2.2028507270
  120      C      -8.0693507024     1.1475834286     1.1361862666
  121      C      -5.4441296331     1.9270533491    -3.8673024144
  122      C      -2.4029555446     1.4984284753     1.9973863993
  123      C      -8.1844806740     1.7550612995    -1.5754165299
  124      C      -3.4085053491     5.0165003131     0.1241661414
  125      C      -3.2346283931    -0.7225241538    -1.6800430959
  126      C      -8.0238356642     0.1043501469     0.1657092184
  127      C      -4.2486840070    -1.8074851777     0.0502550832
  128      C      -4.4930643778    -0.9888890291    -2.1716055289
  129      C      -7.1663025838    -0.4038148527    -1.8837866585
  130      C      -7.4987394578     2.2668723611    -2.6821709840
  131      C      -2.2585324547    -0.1749925096     0.4343364390
  132      C      -5.9621898411     4.0606236746    -2.8852411703
  133      C      -4.7583475846    -1.4499433198     1.3485589220
  134      C      -6.1637750918    -0.9504484306     1.4706424075
  135      C      -5.1155285481     3.2522221972    -3.5955380845
  136      C      -6.8223311355     4.4884691236     1.0116753320
  137      C      -5.6851627067     5.3104380538    -0.7914472491
  138      C      -4.7930790035     5.3808884262     0.3229325836
  139      C      -2.7854615651     4.1400398571     1.0614459887
  140      C      -6.1961650206     0.1588374481     2.3187642926
  141      C      -3.0463906685    -1.1233143499    -0.3355194710
  142      C      -1.8945853927     3.3232745181     0.3855887355
  143      C      -8.0949578844     0.4190445939    -1.2024888794
  144      C      -1.6414160847     0.9828177779    -0.0843086456
  145      C      -5.1546611642    -0.2199446402    -3.1383465590
  146      C      -6.7584178898     2.5604167312     2.3487419231
  147      C      -2.9225101143     4.6168568199    -1.1630353619
  148      C      -5.1856540092    -1.6217066707    -1.1012997619
  149      C      -4.8470754288     4.0628976791     2.3400242465
  150      C      -6.4415870397     0.1364093741    -2.9355348056
  151      C      -2.6035047312     0.3877947070    -2.2761437172
  152      C      -7.6943645348     3.9634458557    -1.1651570728
  153      C      -8.3239850601     2.8038754193    -0.6497597531
  154      C      -3.2144439004     1.1874869363    -3.3030958436
  155      C      -7.1569191352     1.2180006600     2.1617744143
  156      C      -7.0794417982    -0.9552547384     0.3360462758
  157      C      -7.4470414439     3.3266547188     1.4881386771
  158      C      -4.0197974488    -0.4026256865     2.1683902899
  159      C      -1.9316982206     2.5456827456    -1.9804255656
  160      C      -6.5263217083    -1.2187946803    -0.9514329920
  161      C      -4.5110225412     0.8761694704    -3.7641557787
  162      C      -5.4700920475     2.9302652582     2.7821431128
  163      C      -3.7937511603     3.5419996330    -3.1388428089
  164      C      -3.4578126914     3.7406127981     2.2066132199
  165      C      -5.2249845143     4.8995261579    -2.0701338585
  166      C      -1.8020026645     1.2596553083    -1.5019838313
  167      C      -2.8369709678     2.5359628742    -3.0612367319
  168      C      -2.7358673306     0.1460243621     1.7034036494
  169      C      -4.9117769757     0.5429327410     2.7331254347
  170      C      -6.9417405924     4.7935772281    -0.3421545784
  171      C      -2.0029482286     3.6169074933    -1.0233346732
  172      C      -6.6535254630     1.4213670261    -3.4252887617
  173      C      -8.2054410103     2.5032403043     0.7209888875
  174      C      -7.2003106681     3.6097548699    -2.4587166824
  175      C      -4.5709469138     1.8764970472     2.9923610613
  176      C      -5.4993185358     4.8432424071     1.4074525148
 ----------------------------------------------------------------

    9   -5804.2352671714      9.46E-06 Convergence criterion met
 Total energy in the final basis set = -5804.2352671714

                    Orbital Energies (a.u.)
 --------------------------------------------------------------

 Alpha MOs
 -- Occupied --
-19.196 -19.180 -19.135 -19.134 -10.320 -10.315 -10.249 -10.245
-10.244 -10.243 -10.243 -10.239 -10.238 -10.236 -10.236 -10.232
-10.231 -10.231 -10.231 -10.231 -10.230 -10.228 -10.227 -10.227
-10.226 -10.223 -10.223 -10.223 -10.222 -10.222 -10.222 -10.222
-10.222 -10.221 -10.221 -10.220 -10.220 -10.220 -10.220 -10.219
-10.219 -10.219 -10.219 -10.219 -10.219 -10.219 -10.219 -10.218
-10.218 -10.218 -10.218 -10.218 -10.218 -10.218 -10.217 -10.217
-10.217 -10.216 -10.216 -10.216 -10.216 -10.216 -10.216 -10.216
-10.216 -10.216 -10.215 -10.215 -10.215 -10.215 -10.215 -10.215
-10.215 -10.215 -10.215 -10.215 -10.215 -10.215 -10.215 -10.214
-10.214 -10.214 -10.214 -10.214 -10.214 -10.214 -10.213 -10.213
-10.213 -10.213 -10.213 -10.213 -10.213 -10.213 -10.213 -10.213
-10.212 -10.212 -10.212 -10.212 -10.212 -10.212 -10.211 -10.211
-10.211 -10.211 -10.211 -10.211 -10.211 -10.211 -10.211 -10.210
-10.210 -10.210 -10.210 -10.210 -10.210 -10.209 -10.209 -10.209
-10.208 -10.207 -10.207 -10.207 -10.207 -10.206 -10.206 -10.206
-10.205 -10.205 -10.205 -10.205 -10.205 -10.205 -10.204 -10.203
-10.203 -10.202 -10.202 -10.201 -10.200 -10.200 -10.198 -10.198
-10.197 -10.194 -10.193 -10.189  -1.096  -1.070  -1.007  -0.998
 -0.985  -0.984  -0.970  -0.967  -0.965  -0.964  -0.961  -0.959
 -0.939  -0.934  -0.932  -0.928  -0.926  -0.924  -0.923  -0.922
 -0.921  -0.919  -0.901  -0.897  -0.894  -0.890  -0.885  -0.883
 -0.875  -0.873  -0.858  -0.854  -0.842  -0.840  -0.837  -0.837
 -0.835  -0.835  -0.823  -0.822  -0.813  -0.808  -0.802  -0.798
 -0.797  -0.795  -0.793  -0.792  -0.791  -0.789  -0.786  -0.783
 -0.772  -0.769  -0.768  -0.768  -0.765  -0.765  -0.765  -0.763
 -0.754  -0.753  -0.746  -0.741  -0.735  -0.732  -0.720  -0.717
 -0.715  -0.713  -0.712  -0.712  -0.711  -0.709  -0.709  -0.709
 -0.708  -0.707  -0.706  -0.705  -0.704  -0.700  -0.674  -0.670
 -0.659  -0.658  -0.656  -0.656  -0.648  -0.647  -0.633  -0.633
 -0.631  -0.628  -0.626  -0.626  -0.624  -0.622  -0.622  -0.617
 -0.616  -0.615  -0.614  -0.612  -0.610  -0.609  -0.608  -0.608
 -0.605  -0.604  -0.603  -0.601  -0.568  -0.566  -0.566  -0.563
 -0.562  -0.561  -0.561  -0.558  -0.557  -0.555  -0.554  -0.553
 -0.538  -0.538  -0.534  -0.533  -0.531  -0.526  -0.526  -0.525
 -0.522  -0.522  -0.520  -0.519  -0.517  -0.516  -0.515  -0.511
 -0.508  -0.507  -0.499  -0.498  -0.492  -0.489  -0.487  -0.487
 -0.485  -0.484  -0.481  -0.480  -0.477  -0.477  -0.475  -0.474
 -0.473  -0.473  -0.472  -0.470  -0.469  -0.469  -0.467  -0.467
 -0.466  -0.465  -0.464  -0.463  -0.463  -0.460  -0.458  -0.457
 -0.457  -0.455  -0.454  -0.452  -0.452  -0.446  -0.445  -0.443
 -0.443  -0.443  -0.441  -0.438  -0.438  -0.437  -0.437  -0.433
 -0.432  -0.431  -0.430  -0.430  -0.429  -0.427  -0.426  -0.425
 -0.425  -0.424  -0.422  -0.421  -0.421  -0.419  -0.419  -0.417
 -0.417  -0.416  -0.416  -0.415  -0.415  -0.414  -0.414  -0.413
 -0.413  -0.412  -0.410  -0.408  -0.402  -0.399  -0.398  -0.397
 -0.395  -0.394  -0.394  -0.391  -0.388  -0.386  -0.385  -0.383
 -0.383  -0.378  -0.374  -0.372  -0.371  -0.369  -0.366  -0.365
 -0.365  -0.364  -0.363  -0.361  -0.360  -0.359  -0.359  -0.359
 -0.358  -0.356  -0.355  -0.355  -0.353  -0.353  -0.352  -0.350
 -0.350  -0.348  -0.348  -0.347  -0.346  -0.346  -0.345  -0.344
 -0.343  -0.341  -0.340  -0.340  -0.339  -0.338  -0.336  -0.335
 -0.333  -0.332  -0.331  -0.330  -0.328  -0.328  -0.327  -0.323
 -0.310  -0.308  -0.299  -0.292  -0.288  -0.287  -0.275  -0.272
 -0.269  -0.268  -0.267  -0.266  -0.266  -0.265  -0.265  -0.264
 -0.263  -0.262  -0.261  -0.260  -0.258  -0.256  -0.255  -0.254
 -0.251  -0.245  -0.245  -0.243  -0.222  -0.221  -0.214  -0.211
 -0.210  -0.208  -0.207  -0.204  -0.199  -0.195

          Ground-State Mulliken Net Atomic Charges

     Atom                 Charge (a.u.)
  ----------------------------------------
      1 O                    -0.453230
      2 C                    -0.093354
      3 H                     0.123761
      4 H                     0.143906
      5 H                     0.123992
      6 O                    -0.478117
      7 C                     0.593569
      8 C                    -0.255697
      9 H                     0.130029
     10 H                     0.121311
     11 C                    -0.195124
     12 H                     0.126237
     13 H                     0.107778
     14 C                    -0.179215
     15 H                     0.114764
     16 H                     0.121600
     17 C                     0.014820
     18 C                     0.100628
     19 C                    -0.102271
     20 H                     0.085144
     21 C                    -0.080507
     22 H                     0.096085
     23 C                    -0.096557
     24 H                     0.092945
     25 C                    -0.093967
     26 H                     0.096144
     27 C                    -0.128807
     28 H                     0.094911
     29 C                     0.027501
     30 C                     0.002964
     31 C                     0.015910
     32 C                    -0.003708
     33 C                     0.008390
     34 C                    -0.037523
     35 C                    -0.011055
     36 C                    -0.003829
     37 C                     0.017744
     38 C                    -0.015464
     39 C                    -0.081114
     40 C                    -0.021333
     41 C                     0.002395
     42 C                    -0.029433
     43 C                    -0.002932
     44 C                    -0.015947
     45 C                    -0.098659
     46 C                     0.041846
     47 C                    -0.015466
     48 C                     0.005570
     49 C                    -0.000231
     50 C                    -0.004062
     51 C                    -0.028007
     52 C                     0.017709
     53 C                     0.007242
     54 C                    -0.010385
     55 C                    -0.005261
     56 C                     0.052525
     57 C                    -0.030873
     58 C                     0.025129
     59 C                     0.014667
     60 C                     0.028337
     61 C                     0.025019
     62 C                     0.006175
     63 C                    -0.034114
     64 C                    -0.005601
     65 C                    -0.003017
     66 C                     0.031283
     67 C                    -0.029723
     68 C                    -0.007452
     69 C                    -0.002607
     70 C                     0.014063
     71 C                    -0.001083
     72 C                     0.016006
     73 C                     0.020155
     74 C                    -0.006203
     75 C                     0.023327
     76 C                    -0.016448
     77 C                    -0.021913
     78 C                    -0.000855
     79 C                    -0.025032
     80 C                     0.013381
     81 C                    -0.002373
     82 C                    -0.010026
     83 C                    -0.006012
     84 C                     0.000066
     85 C                     0.006858
     86 C                     0.034534
     87 C                    -0.014002
     88 C                     0.022421
     89 O                    -0.496722
     90 C                    -0.083908
     91 H                     0.137743
     92 H                     0.127553
     93 H                     0.129192
     94 O                    -0.465863
     95 C                     0.580212
     96 C                    -0.240313
     97 H                     0.140042
     98 H                     0.130095
     99 C                    -0.184431
    100 H                     0.118761
    101 H                     0.119442
    102 C                    -0.182920
    103 H                     0.116529
    104 H                     0.112022
    105 C                    -0.018181
    106 C                     0.113214
    107 C                    -0.133888
    108 H                     0.086491
    109 C                    -0.076061
    110 H                     0.097386
    111 C                    -0.101877
    112 H                     0.084750
    113 C                    -0.076125
    114 H                     0.095962
    115 C                    -0.105496
    116 H                     0.081261
    117 C                    -0.027674
    118 C                    -0.007189
    119 C                     0.007790
    120 C                    -0.000205
    121 C                     0.005544
    122 C                    -0.012045
    123 C                     0.033026
    124 C                    -0.022316
    125 C                    -0.000809
    126 C                    -0.005690
    127 C                    -0.092554
    128 C                    -0.001496
    129 C                     0.000673
    130 C                    -0.003387
    131 C                     0.011360
    132 C                     0.026602
    133 C                    -0.067937
    134 C                     0.035777
    135 C                     0.008330
    136 C                    -0.002629
    137 C                    -0.019663
    138 C                    -0.007269
    139 C                     0.029268
    140 C                    -0.011035
    141 C                     0.055165
    142 C                    -0.001093
    143 C                    -0.011100
    144 C                     0.003999
    145 C                     0.011183
    146 C                     0.005599
    147 C                     0.004049
    148 C                     0.013992
    149 C                    -0.005498
    150 C                     0.027688
    151 C                    -0.002714
    152 C                    -0.002388
    153 C                    -0.017044
    154 C                    -0.003575
    155 C                    -0.011750
    156 C                    -0.024823
    157 C                     0.025725
    158 C                     0.015311
    159 C                    -0.021510
    160 C                     0.003862
    161 C                    -0.041178
    162 C                     0.008709
    163 C                    -0.010774
    164 C                    -0.020937
    165 C                     0.004619
    166 C                     0.002864
    167 C                     0.000118
    168 C                    -0.023776
    169 C                     0.027069
    170 C                    -0.000245
    171 C                     0.006251
    172 C                    -0.012553
    173 C                    -0.021844
    174 C                    -0.015647
    175 C                     0.026398
    176 C                     0.014253
  ----------------------------------------
  Sum of atomic charges =     0.000000

                    Cartesian Multipole Moments
 -----------------------------------------------------------------
    Charge (ESU x 10^10)
                 0.0000
    Dipole Moment (Debye)
         X       4.3404      Y       0.7332      Z       1.0317
       Tot       4.5212
    Quadrupole Moments (Debye-Ang)
        XX    -799.9931     XY      25.7815     YY    -777.6988
        XZ     -16.4301     YZ     -11.4272     ZZ    -816.5154

 Total job time:  849.38s(wall), 7303.10s(cpu)
        *  Thank you very much for using Q-Chem.  Have a nice day.  *
