 Q-Chem 4.4, Q-Chem, Inc., Pleasanton, CA (2016)
 Q-Chem 4.4.2 for Intel X86 Linux

User input:
--------------------------------------------------------------
$comment
SP
$end

$rem
MEM_STATIC 5000
MEM_TOTAL 20000
JOBTYPE SP
EXCHANGE B3LYP
BASIS 6-31g(d,p)
$end

$molecule
0 1
O         -10.615000     18.145000      9.372000
C         -11.911000     18.522000      8.803000
H         -12.738000     18.590000      9.521000
H         -12.262000     17.723000      8.138000
H         -11.911000     19.412000      8.162000
O          -9.293000     18.763000      7.633000
C          -9.435000     18.195000      8.713000
C          -8.310000     17.700000      9.613000
H          -8.408000     18.239000     10.563000
H          -7.348000     18.027000      9.199000
C          -8.251000     16.200000      9.823000
H          -7.440000     16.016000     10.538000
H          -9.231000     15.861000     10.183000
C          -7.839000     15.453000      8.500000
H          -8.350000     15.868000      7.623000
H          -6.768000     15.676000      8.422000
C          -8.166000     13.893000      8.348000
C          -9.585000     13.572000      8.699000
C         -10.592000     13.799000      7.717000
H         -10.270000     14.203000      6.762000
C         -11.906000     13.557000      8.018000
H         -12.671000     13.600000      7.249000
C         -12.231000     13.016000      9.260000
H         -13.208000     12.706000      9.620000
C         -11.301000     12.932000     10.280000
H         -11.737000     12.600000     11.217000
C          -9.980000     13.238000     10.007000
H          -9.251000     13.046000     10.788000
C          -6.056000      8.983000      9.297000
C          -7.413000      8.618000      7.372000
C          -4.059000      7.966000      4.437000
C          -2.798000     12.761000      8.482000
C          -4.252000     11.221000      3.279000
C          -7.231000      9.207000      8.633000
C          -2.145000     12.731000      5.761000
C          -4.295000      7.191000      6.760000
C          -7.674000     11.854000      5.178000
C          -3.368000     13.700000      7.652000
C          -7.553000     13.123000      7.172000
C          -6.847000     12.946000      4.962000
C          -4.306000     13.869000      5.562000
C          -2.349000     12.051000      4.511000
C          -8.203000     10.690000      7.200000
C          -2.668000      9.698000      4.086000
C          -6.993000     12.928000      8.520000
C          -5.579000     13.283000      8.751000
C          -3.749000      9.911000      3.311000
C          -1.901000      9.374000      7.968000
C          -2.326000      8.333000      6.063000
C          -3.037000      7.713000      7.029000
C          -5.355000      7.307000      7.673000
C          -4.907000     12.313000      9.545000
C          -8.062000     11.878000      6.513000
C          -6.542000      7.575000      6.900000
C          -3.096000     13.673000      6.265000
C          -8.046000      9.477000      6.489000
C          -5.795000     12.710000      4.043000
C          -3.085000     10.730000      9.547000
C          -4.820000      7.353000      5.433000
C          -6.642000     13.680000      6.161000
C          -3.850000      8.505000      9.197000
C          -4.529000     13.214000      4.302000
C          -7.560000     10.641000      4.466000
C          -1.352000     10.573000      5.921000
C          -1.494000     11.802000      6.635000
C          -6.525000     10.485000      3.528000
C          -3.545000     12.061000      9.488000
C          -4.802000     13.951000      7.761000
C          -2.049000     10.586000      8.640000
C          -7.078000     11.581000      9.213000
C          -6.834000      8.514000      4.658000
C          -5.314000     14.112000      6.456000
C          -5.619000     11.516000      3.327000
C          -4.029000      9.763000      9.755000
C          -4.664000      8.860000      3.569000
C          -5.115000      8.029000      8.825000
C          -2.830000      8.513000      4.760000
C          -7.742000      9.447000      5.114000
C          -6.072000      9.157000      3.682000
C          -7.736000     10.535000      8.525000
C          -5.830000     11.349000      9.839000
C          -1.556000      9.371000      6.623000
C          -6.178000      7.600000      5.506000
C          -3.539000     12.334000      3.809000
C          -1.892000     11.783000      7.985000
C          -1.865000     10.730000      4.649000
C          -5.393000     10.025000      9.882000
C          -2.792000      8.327000      8.269000
O         -11.098000      8.472000     10.304000
C         -10.966000      9.543000      9.399000
H         -11.983000      9.900000      9.194000
H         -10.508000      9.367000      8.418000
H         -10.364000     10.387000      9.757000
O          -8.917000      8.180000     11.046000
C         -10.109000      7.885000     11.085000
C         -10.644000      6.788000     11.959000
H          -9.921000      6.675000     12.776000
H         -10.496000      5.837000     11.432000
C         -12.161000      6.895000     12.417000
H         -12.300000      6.386000     13.379000
H         -12.254000      7.911000     12.821000
C         -13.260000      6.507000     11.431000
H         -14.286000      6.681000     11.776000
H         -13.148000      7.215000     10.600000
C         -13.142000      5.091000     10.831000
C         -13.430000      4.021000     11.840000
C         -14.711000      3.768000     12.324000
H         -15.579000      4.181000     11.819000
C         -14.927000      2.980000     13.439000
H         -15.939000      2.918000     13.827000
C         -13.853000      2.248000     13.999000
H         -14.094000      1.624000     14.854000
C         -12.574000      2.352000     13.437000
H         -11.746000      1.761000     13.818000
C         -12.343000      3.301000     12.369000
H         -11.358000      3.499000     11.957000
C         -10.160000      1.695000      7.632000
C         -12.464000      0.934000      7.395000
C         -13.138000      2.222000      3.133000
C          -9.941000      6.713000      6.498000
C         -14.938000      5.163000      4.053000
C         -11.445000      1.524000      8.175000
C         -11.935000      7.223000      4.521000
C         -11.152000      1.240000      4.237000
C         -15.137000      3.905000      7.937000
C         -11.193000      7.248000      6.857000
C         -13.628000      4.927000      9.403000
C         -15.079000      5.290000      7.620000
C         -13.430000      7.249000      6.474000
C         -12.933000      6.585000      3.818000
C         -13.468000      2.385000      8.842000
C         -12.975000      4.481000      2.694000
C         -12.155000      4.923000      9.655000
C         -11.286000      5.901000      8.962000
C         -14.297000      4.183000      3.188000
C          -9.268000      4.264000      4.125000
C         -10.881000      3.225000      2.958000
C         -10.302000      2.265000      3.691000
C         -10.951000      0.810000      5.550000
C         -10.092000      5.233000      8.442000
C         -14.212000      3.633000      8.936000
C         -12.239000      0.526000      6.082000
C         -12.182000      7.431000      5.937000
C         -13.721000      1.460000      7.801000
C         -15.315000      5.715000      6.255000
C          -8.715000      4.782000      6.433000
C         -12.577000      1.192000      3.984000
C         -14.135000      5.924000      8.406000
C          -9.038000      2.433000      5.760000
C         -14.509000      6.695000      5.709000
C         -15.389000      2.927000      6.888000
C         -10.924000      5.736000      3.233000
C         -10.629000      6.754000      4.128000
C         -15.608000      3.362000      5.567000
C          -9.392000      5.705000      7.286000
C         -11.875000      6.759000      7.990000
C          -8.971000      5.186000      5.148000
C         -11.387000      3.624000      9.364000
C         -14.507000      1.353000      5.460000
C         -13.234000      6.832000      7.773000
C         -15.554000      4.746000      5.280000
C          -8.791000      3.387000      6.778000
C         -14.372000      2.806000      3.502000
C          -9.907000      1.397000      6.268000
C         -12.261000      3.245000      2.648000
C         -14.726000      1.691000      6.836000
C         -15.086000      2.354000      4.705000
C         -12.030000      2.387000      9.068000
C         -10.123000      3.858000      8.752000
C         -10.262000      4.463000      3.178000
C         -13.247000      0.748000      5.132000
C         -14.270000      6.352000      4.350000
C          -9.735000      6.383000      5.188000
C         -12.307000      5.664000      3.019000
C          -9.443000      2.893000      7.933000
C          -9.246000      2.879000      4.476000
$end

--------------------------------------------------------------

             Standard Nuclear Orientation (Angstroms)
    I     Atom           X                Y                Z
 ----------------------------------------------------------------
    1      O      -6.8999699309    -7.3710146071    -2.5214962627
    2      C      -6.3860073347    -8.0635453635    -3.7054513299
    3      H      -5.9220819819    -9.0395497231    -3.5150156264
    4      H      -5.5434133004    -7.4965922537    -4.1206939875
    5      H      -7.0819497855    -8.1493605523    -4.5488260144
    6      O      -8.2098990392    -5.8418374051    -3.5700342049
    7      C      -7.6763870008    -6.2639001042    -2.5470894444
    8      C      -7.9910646859    -5.8107669602    -1.1271252518
    9      H      -8.3499411776    -6.6955648384    -0.5877131845
   10      H      -8.8475182679    -5.1253917232    -1.1498639002
   11      C      -6.8558835576    -5.1275064607    -0.3908509171
   12      H      -7.2176826474    -4.9272696760     0.6249289058
   13      H      -5.9788757224    -5.7871596117    -0.4160695097
   14      C      -6.5309402126    -3.7212615606    -1.0193165910
   15      H      -6.5370548640    -3.7547592780    -2.1153619888
   16      H      -7.3738406833    -3.1065553061    -0.6809247809
   17      C      -5.1082963749    -3.0454111559    -0.7313170394
   18      C      -3.9712975532    -3.9893521890    -0.9679855953
   19      C      -3.5210126002    -4.1830096626    -2.3057607050
   20      H      -4.0386479339    -3.6341783894    -3.0866338668
   21      C      -2.5113312757    -5.0715031916    -2.5643798687
   22      H      -2.0681582413    -5.1392421543    -3.5530375924
   23      C      -1.8844952119    -5.7174411673    -1.5010310639
   24      H      -1.0320148725    -6.3899974086    -1.5353001929
   25      C      -2.3983805606    -5.6678852878    -0.2181350964
   26      H      -1.8658415718    -6.3159273070     0.4708734425
   27      C      -3.4623986465    -4.8237420137     0.0435778102
   28      H      -3.7666866750    -4.7097578356     1.0792816302
   29      C      -2.5888720663     0.2643415783     2.7556356404
   30      C      -1.4586192947     0.6925182100     0.7014953228
   31      C      -3.0462508653     4.8563377008     0.0452345178
   32      C      -7.5750153830     0.8829773436     2.2008946058
   33      C      -5.4697784947     3.7364233168    -2.1560250311
   34      C      -2.0310261886    -0.2180780351     1.6033438833
   35      C      -7.9621235601     2.8813925623     0.2805733116
   36      C      -2.2910309115     3.7645718290     2.1165481354
   37      C      -3.8259509812     0.1352145988    -2.3707361742
   38      C      -7.9535930830     0.5170065748     0.9287840282
   39      C      -4.8907114271    -1.5837017093    -1.1408378376
   40      C      -5.1955295436     0.2295355945    -2.5667134969
   41      C      -7.5022492660     1.0347956692    -1.2631758739
   42      C      -7.3048820086     3.8181108733    -0.5895464208
   43      C      -2.5842494260    -0.7715866878    -0.5379487685
   44      C      -5.2680348000     5.0614119061    -0.2367703008
   45      C      -5.0865502775    -1.9024410094     0.2835151395
   46      C      -6.2463712884    -1.3140611110     0.9816600513
   47      C      -4.7603964416     4.7085163790    -1.4335672944
   48      C      -5.4896407023     3.4821885575     3.3991798418
   49      C      -4.4131149363     4.8392912672     2.0234271349
   50      C      -3.4838823024     4.1461507051     2.7156408832
   51      C      -1.7189372765     2.5030455577     2.3443316724
   52      C      -5.9072920104    -0.8464087978     2.2813702333
   53      C      -3.6010610190    -0.8931775937    -1.4623425353
   54      C      -1.1880880544     2.0532214776     1.0817234986
   55      C      -8.1037772874     1.5028047531    -0.0732781737
   56      C      -1.7354275511     0.3577111439    -0.6136246024
   57      C      -5.6688919273     1.5507254241    -2.7599658914
   58      C      -5.8081103663     1.1245379411     3.6710136961
   59      C      -2.0912404347     4.1104309861     0.7369600777
   60      C      -5.8956339396    -0.7047818364    -1.7572156446
   61      C      -3.5927444854     1.9745245419     3.8384257389
   62      C      -6.8526867185     1.9523652922    -2.1589930896
   63      C      -2.9502858222     1.2376355499    -2.4665880184
   64      C      -6.7711963019     4.3982640365     1.5423998435
   65      C      -7.6418784113     3.2686402098     1.6215432234
   66      C      -3.4755510113     2.5180300741    -2.7117233759
   67      C      -6.5607704666     0.1847078415     2.9383035507
   68      C      -7.2543296378    -0.5894969087     0.2823177298
   69      C      -6.3433413107     2.3815957375     3.4473744047
   70      C      -3.9804825070    -1.6673060109     1.2950528894
   71      C      -1.7417144299     2.6774728931    -1.2198752950
   72      C      -7.0618503763    -0.2474902560    -1.0730689985
   73      C      -4.8467794989     2.6853227958    -2.8379912663
   74      C      -4.4631479842     0.8962531048     3.7629442357
   75      C      -3.3678650585     4.5128885038    -1.2575670633
   76      C      -2.4315672134     1.6242578260     3.1354566280
   77      C      -4.2404705428     5.1755455758     0.6664628932
   78      C      -1.9032326377     1.3585648784    -1.5903918496
   79      C      -2.7207637743     3.3971767995    -1.9055557368
   80      C      -2.7533017329    -1.1569004264     0.8113820435
   81      C      -4.5776920706    -1.1123206323     2.4520040408
   82      C      -5.7041020016     4.4781536649     2.4557187372
   83      C      -1.4363361936     3.0752134542     0.0967045845
   84      C      -6.7838025723     3.3178396506    -1.8008258785
   85      C      -7.3771383221     2.2472018903     2.5531233029
   86      C      -6.5749329926     4.7226815716     0.2149828117
   87      C      -3.8161586894    -0.1815417605     3.1587653874
   88      C      -4.1151714015     3.2750885369     3.6197126572
   89      O       0.9590411644    -3.2731337918     1.4924991817
   90      C       0.0390167846    -3.2152065745     0.4277505831
   91      H       0.3948130520    -3.9289121083    -0.3257720954
   92      H      -0.1104564623    -2.2682158403    -0.1051352375
   93      H      -0.9957525006    -3.4682005192     0.6888072635
   94      O      -0.1736336078    -2.1586037452     3.1858566855
   95      C       0.8010102438    -2.7913213613     2.7869233818
   96      C       1.9929005022    -3.0754068673     3.6542197771
   97      H       1.6306820106    -3.0263419605     4.6883268312
   98      H       2.6428631148    -2.1916405922     3.6309867543
   99      C       2.8568417299    -4.3622014034     3.3074239049
  100      H       3.3422653511    -4.7445764573     4.2140656346
  101      H       2.1216353061    -5.1732695933     3.2315232751
  102      C       3.8449913449    -4.2980401921     2.1455354949
  103      H       4.3499478102    -5.2405592158     1.9033499090
  104      H       3.2211046836    -4.1099902944     1.2624886842
  105      C       4.8768605293    -3.1538033968     2.2158785291
  106      C       5.8936027491    -3.3716983943     3.2950828788
  107      C       6.8914697369    -4.3388366845     3.2049108076
  108      H       7.1101823183    -4.8133527996     2.2530614166
  109      C       7.6430788673    -4.7158736766     4.3020670507
  110      H       8.3237027519    -5.5536142794     4.1859903078
  111      C       7.5450224351    -3.9784965538     5.5060437592
  112      H       8.1838472504    -4.3056403338     6.3205140181
  113      C       6.6647192833    -2.8916029793     5.5849723267
  114      H       6.6098993163    -2.2802962027     6.4812562081
  115      C       5.7780233901    -2.6143100149     4.4752583973
  116      H       5.0079873897    -1.8494858452     4.5107766686
  117      C       5.6647810288     2.3266023506     2.1604246745
  118      C       7.6973760575     1.3809309431     1.2023176667
  119      C       7.1074491209     2.7456706070    -3.0482512199
  120      C       1.6068270250     0.5550514602    -0.4680459352
  121      C       5.9346487254    -0.4358372901    -4.1610978999
  122      C       6.6011497788     1.2810500504     2.0872881482
  123      C       2.4511505276     0.1593730267    -3.1653077690
  124      C       6.6359181500     3.8799170718    -0.8991864231
  125      C       7.0457417273    -2.1556808546    -0.6234105967
  126      C       1.9708760695    -0.7242742520    -0.9300026596
  127      C       5.3068660800    -2.5583314665     0.8881796149
  128      C       5.9272429243    -2.6438939882    -1.3532642559
  129      C       3.3662190357    -1.9324998373    -2.2506343046
  130      C       3.5718457321     0.2528671757    -3.9606429830
  131      C       7.1921813284    -0.8343668945     1.4131725373
  132      C       5.2405070281     1.9481197631    -4.1440663837
  133      C       4.3906831462    -1.7609303778     1.7588169305
  134      C       3.0834350059    -1.3069854340     1.2325752676
  135      C       6.2991341301     0.9720439542    -4.2283793367
  136      C       3.0973110241     3.6019857778    -1.2271952701
  137      C       4.9147098015     3.7748237337    -2.5350055486
  138      C       5.3039711678     4.2131035388    -1.3306316859
  139      C       6.8477419144     3.4722072898     0.4192116300
  140      C       2.8593227759     0.0959421478     1.5844671667
  141      C       6.6818200793    -2.0011656732     0.7074898852
  142      C       7.8742468199     2.4888118161     0.3762579202
  143      C       2.4443621307    -0.9196437625    -2.1931937395
  144      C       8.0716271110     0.0759589716     0.7797714534
  145      C       5.7411200534    -2.2260434622    -2.7281479655
  146      C       2.3498683520     2.3618794814     0.7233079536
  147      C       7.5627563477     3.1403070869    -1.7303819631
  148      C       4.8434719876    -2.8175937264    -0.5129327988
  149      C       4.3858250254     3.7433301959     0.8700504055
  150      C       4.4717954457    -1.8979538628    -3.1632620367
  151      C       7.9659580397    -1.2130299413    -1.2438944355
  152      C       2.9802667986     2.3060156535    -3.2300797116
  153      C       2.0017951140     1.4590195487    -2.7305151402
  154      C       7.7614569903    -0.8147620338    -2.5787311276
  155      C       2.0523726354     0.9670476780     0.7850132117
  156      C       2.7798449632    -1.5619627502    -0.1351559393
  157      C       2.1927211112     2.7316444441    -0.5876289698
  158      C       4.9256935737    -0.4393573591     2.3325020348
  159      C       8.6434228320     0.9762935608    -1.4500207524
  160      C       3.5709938681    -2.3419861731    -0.9505980709
  161      C       6.6462683330    -1.3222857277    -3.2854948497
  162      C       3.4874459482     2.8275940350     1.4715413176
  163      C       7.4219930787     1.4470427371    -3.5115014267
  164      C       5.7381863153     3.4255069026     1.2658133346
  165      C       5.7602734428     3.0620053969    -3.4169421378
  166      C       8.5175567344    -0.1282506553    -0.5446364140
  167      C       8.2221091772     0.5297267015    -2.6870898064
  168      C       6.2931337135    -0.0474112705     2.2446400546
  169      C       3.9531464643     0.6003122539     2.3171652865
  170      C       3.5613907891     3.4107894998    -2.5204547007
  171      C       8.3290959548     2.2786517974    -0.9340065688
  172      C       4.5890997950    -0.7878712590    -4.0439477368
  173      C       1.7346292670     1.6092190574    -1.3281815430
  174      C       3.8996749464     1.5830350334    -4.0018676882
  175      C       4.2816155236     1.9989502508     2.2996772754
  176      C       4.1659029049     4.1217030865    -0.4335232274
 ----------------------------------------------------------------

    9   -5804.2818959683      9.97E-06 Convergence criterion met
 Total energy in the final basis set = -5804.2818959683

                    Orbital Energies (a.u.)
 --------------------------------------------------------------

 Alpha MOs
 -- Occupied --
-19.196 -19.195 -19.142 -19.134 -10.326 -10.320 -10.253 -10.247
-10.243 -10.242 -10.240 -10.239 -10.235 -10.235 -10.234 -10.232
-10.230 -10.230 -10.229 -10.226 -10.226 -10.225 -10.225 -10.225
-10.224 -10.224 -10.224 -10.224 -10.223 -10.222 -10.222 -10.221
-10.221 -10.220 -10.220 -10.219 -10.219 -10.219 -10.219 -10.219
-10.219 -10.219 -10.218 -10.218 -10.218 -10.218 -10.218 -10.218
-10.218 -10.218 -10.217 -10.217 -10.217 -10.217 -10.217 -10.217
-10.217 -10.217 -10.216 -10.216 -10.216 -10.216 -10.216 -10.216
-10.216 -10.215 -10.215 -10.215 -10.215 -10.215 -10.215 -10.215
-10.214 -10.214 -10.214 -10.214 -10.214 -10.214 -10.214 -10.214
-10.213 -10.213 -10.213 -10.213 -10.213 -10.213 -10.212 -10.212
-10.212 -10.212 -10.212 -10.212 -10.212 -10.212 -10.212 -10.212
-10.211 -10.211 -10.211 -10.211 -10.211 -10.210 -10.210 -10.210
-10.210 -10.210 -10.209 -10.209 -10.209 -10.209 -10.208 -10.208
-10.208 -10.208 -10.208 -10.208 -10.208 -10.208 -10.207 -10.207
-10.207 -10.207 -10.206 -10.206 -10.206 -10.206 -10.206 -10.205
-10.205 -10.205 -10.205 -10.205 -10.204 -10.204 -10.204 -10.204
-10.204 -10.204 -10.203 -10.203 -10.203 -10.203 -10.203 -10.202
-10.201 -10.200 -10.200 -10.200  -1.091  -1.089  -1.014  -1.003
 -0.982  -0.979  -0.965  -0.963  -0.962  -0.960  -0.956  -0.954
 -0.935  -0.933  -0.926  -0.924  -0.922  -0.922  -0.920  -0.919
 -0.918  -0.912  -0.896  -0.892  -0.888  -0.888  -0.886  -0.881
 -0.876  -0.872  -0.862  -0.853  -0.839  -0.838  -0.838  -0.834
 -0.833  -0.830  -0.819  -0.817  -0.809  -0.804  -0.796  -0.794
 -0.793  -0.793  -0.793  -0.792  -0.790  -0.786  -0.782  -0.780
 -0.769  -0.768  -0.768  -0.767  -0.766  -0.765  -0.764  -0.763
 -0.760  -0.751  -0.747  -0.744  -0.733  -0.730  -0.716  -0.713
 -0.713  -0.712  -0.711  -0.710  -0.709  -0.709  -0.708  -0.707
 -0.706  -0.706  -0.704  -0.704  -0.701  -0.701  -0.674  -0.671
 -0.657  -0.655  -0.654  -0.653  -0.648  -0.648  -0.634  -0.630
 -0.629  -0.627  -0.625  -0.622  -0.620  -0.620  -0.617  -0.617
 -0.616  -0.615  -0.614  -0.612  -0.611  -0.610  -0.609  -0.608
 -0.605  -0.604  -0.600  -0.599  -0.577  -0.572  -0.565  -0.564
 -0.563  -0.560  -0.556  -0.556  -0.554  -0.554  -0.551  -0.551
 -0.538  -0.537  -0.533  -0.530  -0.529  -0.525  -0.524  -0.524
 -0.522  -0.521  -0.519  -0.515  -0.514  -0.514  -0.511  -0.510
 -0.507  -0.506  -0.502  -0.498  -0.495  -0.489  -0.486  -0.485
 -0.483  -0.481  -0.480  -0.479  -0.478  -0.476  -0.474  -0.473
 -0.471  -0.470  -0.468  -0.467  -0.467  -0.467  -0.466  -0.465
 -0.464  -0.463  -0.462  -0.461  -0.461  -0.460  -0.458  -0.457
 -0.455  -0.452  -0.452  -0.450  -0.449  -0.449  -0.444  -0.442
 -0.440  -0.439  -0.439  -0.437  -0.437  -0.435  -0.434  -0.433
 -0.433  -0.432  -0.428  -0.428  -0.427  -0.425  -0.425  -0.424
 -0.422  -0.421  -0.419  -0.419  -0.419  -0.417  -0.417  -0.417
 -0.416  -0.416  -0.415  -0.415  -0.413  -0.413  -0.413  -0.412
 -0.410  -0.410  -0.408  -0.407  -0.401  -0.396  -0.396  -0.395
 -0.395  -0.392  -0.391  -0.391  -0.390  -0.386  -0.384  -0.383
 -0.381  -0.380  -0.377  -0.374  -0.370  -0.369  -0.368  -0.366
 -0.365  -0.364  -0.363  -0.361  -0.360  -0.360  -0.358  -0.357
 -0.356  -0.356  -0.355  -0.354  -0.353  -0.352  -0.352  -0.350
 -0.350  -0.347  -0.347  -0.346  -0.346  -0.345  -0.343  -0.342
 -0.342  -0.341  -0.341  -0.339  -0.337  -0.337  -0.334  -0.333
 -0.332  -0.330  -0.329  -0.327  -0.326  -0.325  -0.323  -0.322
 -0.311  -0.305  -0.300  -0.298  -0.286  -0.285  -0.274  -0.272
 -0.269  -0.269  -0.267  -0.266  -0.266  -0.265  -0.263  -0.263
 -0.261  -0.259  -0.258  -0.258  -0.258  -0.256  -0.256  -0.253
 -0.252  -0.249  -0.244  -0.242  -0.218  -0.217  -0.214  -0.210
 -0.208  -0.206  -0.204  -0.202  -0.199  -0.198

          Ground-State Mulliken Net Atomic Charges

     Atom                 Charge (a.u.)
  ----------------------------------------
      1 O                    -0.460397
      2 C                    -0.092435
      3 H                     0.129408
      4 H                     0.123563
      5 H                     0.140185
      6 O                    -0.478306
      7 C                     0.592518
      8 C                    -0.241243
      9 H                     0.131002
     10 H                     0.127200
     11 C                    -0.199627
     12 H                     0.108689
     13 H                     0.124312
     14 C                    -0.179318
     15 H                     0.119778
     16 H                     0.112347
     17 C                    -0.007634
     18 C                     0.084811
     19 C                    -0.099540
     20 H                     0.100877
     21 C                    -0.093860
     22 H                     0.095046
     23 C                    -0.080910
     24 H                     0.084828
     25 C                    -0.087328
     26 H                     0.094983
     27 C                    -0.116893
     28 H                     0.097537
     29 C                     0.019836
     30 C                     0.008527
     31 C                    -0.013194
     32 C                     0.008779
     33 C                     0.003938
     34 C                     0.025313
     35 C                    -0.007643
     36 C                    -0.005759
     37 C                     0.022136
     38 C                    -0.017247
     39 C                    -0.089206
     40 C                    -0.008650
     41 C                     0.007605
     42 C                    -0.015652
     43 C                    -0.024313
     44 C                     0.034993
     45 C                    -0.085730
     46 C                     0.042354
     47 C                    -0.017307
     48 C                    -0.005252
     49 C                    -0.001478
     50 C                     0.030237
     51 C                    -0.021004
     52 C                     0.048760
     53 C                     0.037418
     54 C                    -0.030864
     55 C                     0.004216
     56 C                     0.004962
     57 C                    -0.000890
     58 C                    -0.004585
     59 C                     0.013393
     60 C                     0.034052
     61 C                    -0.032429
     62 C                    -0.009664
     63 C                     0.011835
     64 C                     0.001826
     65 C                    -0.021130
     66 C                    -0.026492
     67 C                    -0.034421
     68 C                    -0.054529
     69 C                     0.017965
     70 C                     0.001241
     71 C                     0.011837
     72 C                     0.012350
     73 C                     0.009759
     74 C                     0.014434
     75 C                    -0.012781
     76 C                     0.026178
     77 C                    -0.000426
     78 C                     0.000428
     79 C                    -0.010177
     80 C                    -0.000943
     81 C                    -0.017174
     82 C                    -0.009039
     83 C                     0.003962
     84 C                    -0.008164
     85 C                     0.010127
     86 C                     0.008644
     87 C                     0.014708
     88 C                    -0.016269
     89 O                    -0.468676
     90 C                    -0.094858
     91 H                     0.116312
     92 H                     0.123395
     93 H                     0.128825
     94 O                    -0.468162
     95 C                     0.613898
     96 C                    -0.274198
     97 H                     0.139913
     98 H                     0.145092
     99 C                    -0.189996
    100 H                     0.110734
    101 H                     0.105376
    102 C                    -0.177592
    103 H                     0.107568
    104 H                     0.124022
    105 C                    -0.004519
    106 C                     0.113135
    107 C                    -0.105776
    108 H                     0.088034
    109 C                    -0.088076
    110 H                     0.093201
    111 C                    -0.083173
    112 H                     0.093093
    113 C                    -0.098434
    114 H                     0.095710
    115 C                    -0.115909
    116 H                     0.093889
    117 C                    -0.021314
    118 C                    -0.002613
    119 C                    -0.019793
    120 C                    -0.008459
    121 C                    -0.023159
    122 C                     0.044973
    123 C                    -0.023589
    124 C                    -0.010078
    125 C                     0.000013
    126 C                    -0.017584
    127 C                    -0.106938
    128 C                    -0.001744
    129 C                    -0.010360
    130 C                     0.018386
    131 C                    -0.014869
    132 C                     0.001061
    133 C                    -0.057187
    134 C                    -0.004652
    135 C                    -0.003081
    136 C                    -0.008174
    137 C                     0.037187
    138 C                     0.001848
    139 C                     0.005224
    140 C                    -0.001241
    141 C                     0.050511
    142 C                    -0.008890
    143 C                     0.013011
    144 C                    -0.000029
    145 C                     0.006358
    146 C                    -0.005020
    147 C                    -0.012430
    148 C                     0.021537
    149 C                     0.002582
    150 C                    -0.019661
    151 C                    -0.003152
    152 C                     0.015581
    153 C                    -0.043738
    154 C                     0.006540
    155 C                     0.002093
    156 C                     0.029191
    157 C                     0.018509
    158 C                     0.008899
    159 C                     0.009952
    160 C                     0.003928
    161 C                     0.006832
    162 C                     0.007966
    163 C                     0.001563
    164 C                     0.011661
    165 C                    -0.016982
    166 C                    -0.021544
    167 C                    -0.008191
    168 C                    -0.018417
    169 C                     0.020580
    170 C                    -0.002554
    171 C                     0.015857
    172 C                     0.001356
    173 C                     0.026888
    174 C                     0.017982
    175 C                    -0.030934
    176 C                    -0.023515
  ----------------------------------------
  Sum of atomic charges =     0.000000

                    Cartesian Multipole Moments
 -----------------------------------------------------------------
    Charge (ESU x 10^10)
                 0.0000
    Dipole Moment (Debye)
         X       2.6725      Y      -7.0715      Z       1.9619
       Tot       7.8101
    Quadrupole Moments (Debye-Ang)
        XX    -831.1853     XY      -6.2215     YY    -767.4664
        XZ       5.8851     YZ      -4.0484     ZZ    -806.5833

 Total job time:  876.46s(wall), 7515.99s(cpu)
        *  Thank you very much for using Q-Chem.  Have a nice day.  *
