 Q-Chem 4.4, Q-Chem, Inc., Pleasanton, CA (2016)
 Q-Chem 4.4.2 for Intel X86 Linux

User input:
--------------------------------------------------------------
$comment
SP
$end

$rem
MEM_STATIC 5000
MEM_TOTAL 20000
JOBTYPE SP
EXCHANGE B3LYP
BASIS 6-31g(d,p)
$end

$molecule
0 1
C         -22.081000    -13.277000     -4.137000
C         -21.760000    -12.009000     -3.679000
N         -23.203000    -13.909000     -3.685000
C         -22.510000    -11.375000     -2.639000
C         -23.937000    -13.377000     -2.705000
C         -23.648000    -12.062000     -2.140000
C         -24.536000    -11.325000     -1.195000
C         -25.982000    -11.570000     -1.212000
C         -24.132000    -10.260000     -0.341000
N         -26.897000    -11.012000     -0.334000
N         -22.877000     -9.871000     -0.170000
C         -25.087000     -9.663000      0.498000
C         -26.479000    -10.016000      0.469000
S         -23.027000     -8.707000      0.981000
N         -24.589000     -8.756000      1.387000
C         -27.563000     -9.363000      1.264000
S         -27.610000     -7.642000      1.755000
C         -28.806000     -9.938000      1.493000
C         -29.141000     -7.862000      2.551000
S         -29.359000    -11.538000      1.132000
C         -29.650000     -9.152000      2.274000
C         -29.773000     -6.841000      3.363000
C         -30.934000    -11.000000      1.895000
C         -30.918000     -9.804000      2.559000
N         -30.911000     -7.154000      3.926000
S         -29.277000     -5.160000      3.339000
C         -31.350000     -6.140000      4.679000
C         -30.510000     -5.013000      4.554000
C         -21.418000    -13.952000     -5.383000
H         -20.960000    -11.489000     -4.198000
H         -22.338000    -10.330000     -2.398000
H         -24.776000    -13.977000     -2.356000
H         -26.377000    -12.347000     -1.865000
H         -31.768000    -11.688000      1.857000
H         -31.719000     -9.236000      3.017000
H         -32.205000     -6.219000      5.337000
H         -30.508000     -4.028000      5.000000
H         -20.360000    -13.665000     -5.424000
C         -22.051000    -13.458000     -6.693000
H         -21.389000    -15.048000     -5.415000
H         -21.928000    -12.372000     -6.782000
H         -23.120000    -13.644000     -6.858000
C         -21.288000    -14.071000     -7.914000
H         -20.260000    -13.902000     -7.567000
C         -21.509000    -13.261000     -9.195000
H         -21.349000    -15.164000     -7.991000
H         -21.385000    -12.189000     -8.997000
H         -22.550000    -13.314000     -9.538000
C         -20.514000    -13.521000    -10.374000
H         -20.614000    -12.812000    -11.206000
C         -20.546000    -15.006000    -10.810000
H         -19.508000    -13.295000    -10.001000
H         -21.365000    -15.189000    -11.518000
H         -20.586000    -15.668000     -9.936000
H         -19.572000    -15.224000    -11.265000
C         -20.399000    -11.952000      2.243000
C         -20.260000    -13.031000      3.157000
N         -21.192000    -12.072000      1.156000
C         -20.993000    -14.211000      2.944000
C         -21.832000    -13.228000      0.941000
C         -21.792000    -14.349000      1.837000
C         -22.635000    -15.568000      1.554000
C         -23.507000    -16.132000      2.522000
C         -22.690000    -16.157000      0.301000
N         -24.248000    -17.199000      2.319000
N         -21.871000    -15.691000     -0.692000
C         -23.526000    -17.249000      0.032000
C         -24.282000    -17.797000      1.102000
S         -22.297000    -16.614000     -1.944000
N         -23.313000    -17.646000     -1.215000
C         -24.888000    -19.142000      0.941000
S         -24.757000    -20.232000     -0.491000
C         -25.652000    -19.836000      1.857000
C         -25.767000    -21.466000      0.229000
S         -25.962000    -19.431000      3.507000
C         -26.062000    -21.118000      1.505000
C         -25.902000    -22.782000     -0.382000
C         -26.807000    -20.987000      3.682000
C         -26.851000    -21.748000      2.520000
N         -26.319000    -23.793000      0.326000
S         -25.301000    -23.189000     -2.027000
C         -26.409000    -24.908000     -0.470000
C         -26.033000    -24.781000     -1.748000
C         -19.584000    -10.673000      2.329000
H         -19.645000    -12.927000      4.044000
H         -20.973000    -14.954000      3.734000
H         -22.501000    -13.165000      0.083000
H         -23.615000    -15.643000      3.487000
H         -27.244000    -21.268000      4.631000
H         -27.208000    -22.771000      2.490000
H         -26.749000    -25.793000      0.052000
H         -26.051000    -25.573000     -2.486000
H         -20.260000     -9.887000      2.688000
C         -18.858000    -10.258000      0.987000
H         -18.827000    -10.783000      3.115000
H         -19.484000    -10.599000      0.153000
H         -17.950000    -10.873000      0.967000
C         -18.573000     -8.702000      0.859000
H         -18.392000     -8.376000     -0.172000
C         -17.519000     -8.085000      1.789000
H         -19.409000     -8.174000      1.334000
H         -17.752000     -8.103000      2.861000
H         -17.397000     -7.038000      1.484000
C         -16.061000     -8.740000      1.637000
H         -15.430000     -8.213000      2.362000
C         -15.593000     -8.558000      0.201000
H         -16.101000     -9.834000      1.707000
H         -14.610000     -9.018000      0.043000
H         -15.435000     -7.505000     -0.060000
H         -16.198000     -9.003000     -0.599000
$end

--------------------------------------------------------------

             Standard Nuclear Orientation (Angstroms)
    I     Atom           X                Y                Z
 ----------------------------------------------------------------
    1      C       1.0223573810    -4.1684674630     1.9156442653
    2      C      -0.2612703417    -4.4908235496     1.5045294118
    3      N       1.3606923021    -2.8695563165     2.1625679673
    4      C      -1.2293294138    -3.4807725932     1.2066792843
    5      C       0.5074243727    -1.8794520950     1.8908926628
    6      C      -0.8519820785    -2.1286711081     1.4198565876
    7      C      -1.9149382304    -1.0901679877     1.2918976565
    8      C      -1.8784491165     0.0998302430     2.1485205346
    9      C      -3.0891529007    -1.2027780961     0.4948431593
   10      N      -2.7570572172     1.1681296589     2.0694183002
   11      N      -3.3282790767    -2.1933365436    -0.3520332391
   12      C      -4.0012334285    -0.1350358137     0.4750813514
   13      C      -3.8506240742     1.0336790396     1.2963830098
   14      S      -4.7478675113    -1.7292762661    -1.0387746280
   15      N      -5.0192614970    -0.2610354256    -0.4242055603
   16      C      -4.8237389027     2.1636003551     1.3954554646
   17      S      -6.6016301946     2.0319669254     1.2314243871
   18      C      -4.5024420353     3.4175541363     1.8979325662
   19      C      -6.8001314588     3.7391790319     1.4997545413
   20      S      -2.9565838727     4.0624748392     2.3344297922
   21      C      -5.5660777164     4.3166641513     1.8786111074
   22      C      -8.0670881956     4.4284246730     1.3549440676
   23      C      -3.8803700206     5.5899452347     2.7414818085
   24      C      -5.1881281147     5.6416202459     2.3431522208
   25      N      -8.0642153438     5.7198971212     1.5600602841
   26      S      -9.6043657740     3.5910181952     1.2661688570
   27      C      -9.2829513329     6.2261343669     1.3448105690
   28      C     -10.2157821877     5.2047367123     1.0656557239
   29      C       2.0679995502    -5.2153288301     2.4239982091
   30      H      -0.5208912776    -5.5454302822     1.4917775737
   31      H      -2.2667680786    -3.7503947656     1.0314226129
   32      H       0.8799570199    -0.8690709753     2.0523591290
   33      H      -1.0284909176     0.2439398658     2.8140778024
   34      H      -3.3279426655     6.4016451708     3.1956967698
   35      H      -5.9574970399     6.3817299462     2.5283496519
   36      H      -9.4881590423     7.2881742887     1.3309902745
   37      H     -11.2696927521     5.1994006749     0.8240174632
   38      H       1.9510258005    -6.1438761424     1.8516949410
   39      C       1.8261291202    -5.5816756634     3.8964498018
   40      H       3.1313638292    -4.9730308622     2.3072544519
   41      H       0.8232985494    -6.0088310012     4.0160957951
   42      H       1.8951109532    -4.7863349787     4.6496142606
   43      C       2.8201878955    -6.7090814698     4.3318602965
   44      H       2.7171986395    -7.3655358938     3.4576664951
   45      C       2.3258161752    -7.4644979037     5.5691333519
   46      H       3.8790765220    -6.4221242711     4.3052249275
   47      H       1.2662754403    -7.7275393291     5.4598326678
   48      H       2.3147172287    -6.8255400311     6.4611808004
   49      C       3.0034591272    -8.8417790033     5.8717268123
   50      H       2.5129938790    -9.4138699570     6.6698876863
   51      C       4.5303968664    -8.6781117595     6.0667118736
   52      H       2.8363349597    -9.4810562948     4.9967210654
   53      H       4.7645201829    -8.3851440310     7.0986373470
   54      H       4.9458600259    -7.9845444776     5.3250416041
   55      H       4.9875071576    -9.6428760459     5.8147097837
   56      C      -1.5753500779    -2.2470710950    -3.9876853846
   57      C      -0.7445332340    -1.5639837591    -4.9161750525
   58      N      -1.3052109767    -2.2037902373    -2.6648212066
   59      C       0.3369149409    -0.8029227651    -4.4404503334
   60      C      -0.2332598831    -1.5231316507    -2.2408097193
   61      C       0.6283790943    -0.7615174238    -3.1002159341
   62      C       1.7489631181     0.0567173291    -2.5073564780
   63      C       1.9307497032     1.4315882791    -2.8109804368
   64      C       2.6131561816    -0.4520812988    -1.5511926295
   65      N       2.9002194289     2.1753703084    -2.3254953763
   66      N       2.5240791128    -1.7740427603    -1.2070281772
   67      C       3.6094540176     0.3357194231    -0.9591777271
   68      C       3.7671750099     1.6726249742    -1.4114471558
   69      S       3.6564433993    -1.9044819128    -0.0661312712
   70      N       4.3255514999    -0.4298919702    -0.1473707364
   71      C       5.0119886628     2.4057262170    -1.0720601534
   72      S       6.4267326900     1.7795718204    -0.1434509735
   73      C       5.3463671903     3.7000837670    -1.4144306154
   74      C       7.2926773280     3.2965607606    -0.2441507210
   75      S       4.5103082690     4.7663238411    -2.4853006283
   76      C       6.6049912868     4.1555606214    -1.0350439805
   77      C       8.6858973683     3.3991736731     0.1703495918
   78      C       5.8417609692     5.9305486492    -2.2913926517
   79      C       6.8502223160     5.5086682191    -1.4332996412
   80      N       9.4239765262     4.3858412780    -0.2527345538
   81      S       9.5634465408     2.1075906623     1.0617506105
   82      C      10.6759765155     4.2972162503     0.3036669480
   83      C      10.9198102097     3.2507617064     1.1013304215
   84      C      -2.7091793288    -3.1695068379    -4.4012135337
   85      H      -0.9753001184    -1.5756518371    -5.9756185389
   86      H       0.8590682609    -0.1827885703    -5.1611017686
   87      H      -0.1773787008    -1.4958650088    -1.1527711981
   88      H       1.2101679896     1.9324547986    -3.4527784764
   89      H       5.8176840705     6.8798252422    -2.8098762608
   90      H       7.7889490886     6.0365568583    -1.3108103313
   91      H      11.3495189228     5.0863087948    -0.0045254949
   92      H      11.8578263956     3.0547298952     1.6052442674
   93      H      -3.6459220522    -2.6395611999    -4.1883199197
   94      C      -2.6769025369    -4.6013420835    -3.7310859056
   95      H      -2.6900019258    -3.2942468791    -5.4907167000
   96      H      -2.2332874105    -4.4900348897    -2.7338249928
   97      H      -1.9547017484    -5.1672534825    -4.3321344141
   98      C      -4.0983723920    -5.2991036448    -3.6247973611
   99      H      -4.1332756510    -6.1049175816    -2.8822048337
  100      C      -4.7702783580    -5.7640706946    -4.9243561383
  101      H      -4.8384365160    -4.5116063706    -3.4364940538
  102      H      -5.0481892736    -4.9739029758    -5.6330150825
  103      H      -5.6829391960    -6.3017518859    -4.6378825245
  104      C      -3.9002727328    -6.8260232961    -5.7569664219
  105      H      -4.4949362609    -7.0505527829    -6.6499819860
  106      C      -3.6576148205    -8.0477674552    -4.8836381059
  107      H      -2.8734785197    -6.4727009199    -5.9125072285
  108      H      -3.0398070981    -8.7901979676    -5.4032182752
  109      H      -4.5817597752    -8.5905608351    -4.6529316921
  110      H      -3.1196078735    -7.9069947903    -3.9377091542
 ----------------------------------------------------------------

    9   -5663.5137791624      7.28E-06 Convergence criterion met
 Total energy in the final basis set = -5663.5137791624

                    Orbital Energies (a.u.)
 --------------------------------------------------------------

 Alpha MOs
 -- Occupied --
-88.983 -88.981 -88.928 -88.921 -88.921 -88.917 -88.906 -88.904
-14.390 -14.380 -14.374 -14.374 -14.351 -14.347 -14.340 -14.338
-14.334 -14.325 -10.269 -10.266 -10.264 -10.263 -10.255 -10.254
-10.247 -10.245 -10.243 -10.241 -10.239 -10.237 -10.236 -10.236
-10.234 -10.234 -10.233 -10.229 -10.229 -10.229 -10.225 -10.224
-10.223 -10.223 -10.223 -10.221 -10.221 -10.220 -10.216 -10.215
-10.212 -10.206 -10.206 -10.204 -10.202 -10.198 -10.195 -10.194
-10.193 -10.188 -10.184 -10.182 -10.182 -10.181 -10.180 -10.179
-10.179 -10.178 -10.171 -10.168  -8.038  -8.037  -7.989  -7.981
 -7.981  -7.977  -7.965  -7.964  -6.003  -6.002  -5.997  -5.996
 -5.996  -5.995  -5.953  -5.950  -5.947  -5.945  -5.945  -5.942
 -5.941  -5.941  -5.938  -5.937  -5.937  -5.933  -5.930  -5.928
 -5.926  -5.925  -5.921  -5.920  -1.043  -1.038  -0.981  -0.970
 -0.958  -0.947  -0.937  -0.935  -0.914  -0.912  -0.903  -0.901
 -0.839  -0.837  -0.830  -0.827  -0.812  -0.808  -0.806  -0.799
 -0.798  -0.796  -0.793  -0.790  -0.782  -0.778  -0.763  -0.762
 -0.745  -0.744  -0.736  -0.735  -0.718  -0.717  -0.708  -0.706
 -0.691  -0.688  -0.672  -0.664  -0.652  -0.651  -0.647  -0.639
 -0.633  -0.630  -0.625  -0.624  -0.613  -0.610  -0.598  -0.597
 -0.591  -0.587  -0.586  -0.583  -0.577  -0.574  -0.566  -0.551
 -0.549  -0.544  -0.538  -0.531  -0.521  -0.520  -0.512  -0.508
 -0.505  -0.504  -0.499  -0.494  -0.489  -0.483  -0.473  -0.472
 -0.471  -0.468  -0.468  -0.467  -0.461  -0.458  -0.451  -0.447
 -0.444  -0.442  -0.434  -0.432  -0.432  -0.429  -0.427  -0.426
 -0.425  -0.424  -0.422  -0.419  -0.417  -0.414  -0.411  -0.410
 -0.409  -0.408  -0.404  -0.399  -0.397  -0.396  -0.394  -0.393
 -0.392  -0.390  -0.389  -0.389  -0.388  -0.385  -0.385  -0.380
 -0.377  -0.374  -0.372  -0.370  -0.366  -0.364  -0.352  -0.351
 -0.350  -0.349  -0.348  -0.347  -0.346  -0.342  -0.341  -0.340
 -0.338  -0.338  -0.334  -0.332  -0.331  -0.330  -0.322  -0.321
 -0.318  -0.313  -0.312  -0.305  -0.304  -0.301  -0.301  -0.297
 -0.294  -0.292  -0.286  -0.285  -0.285  -0.283  -0.283  -0.280
 -0.272  -0.271  -0.266  -0.259  -0.253  -0.251  -0.247  -0.246
 -0.241  -0.240  -0.230  -0.229  -0.191  -0.189

          Ground-State Mulliken Net Atomic Charges

     Atom                 Charge (a.u.)
  ----------------------------------------
      1 C                     0.257279
      2 C                    -0.123597
      3 N                    -0.475320
      4 C                    -0.046146
      5 C                     0.077501
      6 C                     0.008487
      7 C                     0.028347
      8 C                     0.044014
      9 C                     0.246701
     10 N                    -0.516680
     11 N                    -0.533059
     12 C                     0.166371
     13 C                     0.291524
     14 S                     0.590566
     15 N                    -0.522083
     16 C                    -0.214896
     17 S                     0.297542
     18 C                    -0.097397
     19 C                    -0.239525
     20 S                     0.276568
     21 C                     0.145966
     22 C                     0.089383
     23 C                    -0.315452
     24 C                    -0.026991
     25 N                    -0.437832
     26 S                     0.271490
     27 C                     0.136903
     28 C                    -0.321214
     29 C                    -0.223789
     30 H                     0.090355
     31 H                     0.126783
     32 H                     0.109528
     33 H                     0.113657
     34 H                     0.119679
     35 H                     0.130387
     36 H                     0.119155
     37 H                     0.126358
     38 H                     0.098636
     39 C                    -0.172594
     40 H                     0.115793
     41 H                     0.094412
     42 H                     0.110366
     43 C                    -0.179890
     44 H                     0.087822
     45 C                    -0.177235
     46 H                     0.099033
     47 H                     0.086833
     48 H                     0.091939
     49 C                    -0.182647
     50 H                     0.091401
     51 C                    -0.314724
     52 H                     0.090877
     53 H                     0.106322
     54 H                     0.105236
     55 H                     0.097981
     56 C                     0.265586
     57 C                    -0.127902
     58 N                    -0.473766
     59 C                    -0.075585
     60 C                     0.106240
     61 C                     0.033511
     62 C                     0.006117
     63 C                     0.067938
     64 C                     0.174850
     65 N                    -0.510563
     66 N                    -0.538221
     67 C                     0.245651
     68 C                     0.309155
     69 S                     0.633261
     70 N                    -0.579540
     71 C                    -0.218664
     72 S                     0.316969
     73 C                    -0.121764
     74 C                    -0.252107
     75 S                     0.282913
     76 C                     0.164480
     77 C                     0.077122
     78 C                    -0.308521
     79 C                    -0.052267
     80 N                    -0.433830
     81 S                     0.248496
     82 C                     0.131459
     83 C                    -0.305738
     84 C                    -0.230561
     85 H                     0.088284
     86 H                     0.098726
     87 H                     0.105013
     88 H                     0.110337
     89 H                     0.124246
     90 H                     0.129446
     91 H                     0.109498
     92 H                     0.131626
     93 H                     0.112250
     94 C                    -0.180890
     95 H                     0.098144
     96 H                     0.132993
     97 H                     0.094548
     98 C                    -0.188030
     99 H                     0.098349
    100 C                    -0.184102
    101 H                     0.095686
    102 H                     0.087533
    103 H                     0.091543
    104 C                    -0.172808
    105 H                     0.092365
    106 C                    -0.321792
    107 H                     0.097491
    108 H                     0.093617
    109 H                     0.095564
    110 H                     0.105524
  ----------------------------------------
  Sum of atomic charges =     0.000000

                    Cartesian Multipole Moments
 -----------------------------------------------------------------
    Charge (ESU x 10^10)
                 0.0000
    Dipole Moment (Debye)
         X      -1.8777      Y      -1.4936      Z      -0.5894
       Tot       2.4706
    Quadrupole Moments (Debye-Ang)
        XX    -386.2779     XY      -2.7420     YY    -417.9118
        XZ       8.7828     YZ      -2.8370     ZZ    -439.2409

 Total job time:  85.39s(wall), 1015.02s(cpu)
        *  Thank you very much for using Q-Chem.  Have a nice day.  *
