 Q-Chem 4.4, Q-Chem, Inc., Pleasanton, CA (2016)
 Q-Chem 4.4.2 for Intel X86 Linux

User input:
--------------------------------------------------------------
$comment
SP
$end

$rem
MEM_STATIC 5000
MEM_TOTAL 20000
JOBTYPE SP
EXCHANGE B3LYP
BASIS 6-31g(d,p)
$end

$molecule
0 1
C           6.711000      5.447000     -7.713000
C           5.399000      4.968000     -7.911000
N           7.365000      6.345000     -8.486000
C           4.702000      5.571000     -8.991000
C           6.624000      6.988000     -9.354000
C           5.269000      6.634000     -9.733000
C           4.505000      7.352000    -10.833000
C           4.499000      8.760000    -10.838000
C           3.483000      6.782000    -11.626000
N           3.774000      9.528000    -11.723000
N           3.298000      5.440000    -11.727000
C           2.691000      7.550000    -12.454000
C           2.761000      8.969000    -12.449000
S           2.191000      5.292000    -12.857000
N           1.910000      6.857000    -13.258000
C           1.905000      9.803000    -13.263000
S           0.285000      9.366000    -13.888000
C           2.053000     11.144000    -13.522000
C          -0.050000     10.902000    -14.647000
S           3.374000     12.210000    -13.138000
C           0.983000     11.709000    -14.322000
C          -1.273000     11.389000    -15.175000
C           2.449000     13.480000    -13.994000
C           1.197000     13.089000    -14.438000
N          -1.213000     12.330000    -16.089000
S          -2.852000     10.928000    -14.619000
C          -2.527000     12.585000    -16.551000
C          -3.487000     11.844000    -15.933000
C           7.545000      4.776000     -6.597000
H           4.856000      4.227000     -7.331000
H           3.677000      5.256000     -9.163000
H           7.057000      7.812000     -9.920000
H           5.213000      9.238000    -10.170000
H           2.814000     14.498000    -14.030000
H           0.426000     13.725000    -14.859000
H          -2.582000     13.263000    -17.393000
H          -4.556000     11.702000    -16.027000
H           7.169000      3.746000     -6.547000
C           7.539000      5.649000     -5.330000
H           8.596000      4.719000     -6.907000
H           8.018000      6.607000     -5.570000
H           8.242000      5.309000     -4.560000
C           6.124000      5.902000     -4.765000
H           6.260000      6.614000     -3.942000
C           5.430000      4.623000     -4.331000
H           5.480000      6.412000     -5.493000
H           5.902000      4.248000     -3.414000
H           5.502000      3.798000     -5.050000
C           4.036000      4.967000     -3.963000
H           3.931000      5.880000     -3.362000
C           3.455000      3.729000     -3.203000
H           3.477000      5.199000     -4.877000
H           3.965000      3.445000     -2.275000
H           3.530000      2.852000     -3.858000
H           2.370000      3.859000     -3.106000
C           6.160000     14.959000      6.899000
C           5.638000     13.727000      6.543000
N           6.822000     15.726000      5.996000
C           5.763000     13.193000      5.233000
C           7.007000     15.172000      4.734000
C           6.529000     13.889000      4.315000
C           6.761000     13.356000      2.994000
C           7.199000     12.010000      2.845000
C           6.387000     13.988000      1.860000
N           7.371000     11.414000      1.648000
N           5.822000     15.200000      1.839000
C           6.506000     13.374000      0.612000
C           7.003000     12.019000      0.489000
S           5.511000     15.578000      0.259000
N           6.084000     14.149000     -0.463000
C           7.053000     11.321000     -0.794000
S           6.816000     12.010000     -2.418000
C           7.308000      9.969000     -0.929000
C           7.216000     10.487000     -3.174000
S           7.415000      8.764000      0.287000
C           7.450000      9.519000     -2.224000
C           7.230000     10.294000     -4.587000
C           7.936000      7.581000     -0.988000
C           7.876000      8.194000     -2.250000
N           7.765000      9.216000     -5.027000
S           6.274000     11.211000     -5.706000
C           7.584000      9.103000     -6.365000
C           6.987000     10.190000     -6.965000
C           5.837000     15.593000      8.297000
H           5.040000     13.241000      7.306000
H           5.229000     12.307000      4.903000
H           7.446000     15.844000      4.000000
H           7.399000     11.445000      3.756000
H           8.324000      6.580000     -0.850000
H           8.216000      7.629000     -3.109000
H           8.007000      8.285000     -6.933000
H           6.737000     10.224000     -8.017000
H           5.463000     16.615000      8.160000
C           7.094000     15.619000      9.111000
H           5.101000     15.017000      8.872000
H           7.867000     16.105000      8.503000
H           7.306000     14.560000      9.307000
C           6.992000     16.469000     10.451000
H           8.007000     16.561000     10.856000
C           6.000000     15.801000     11.401000
H           6.605000     17.428000     10.085000
H           6.405000     14.831000     11.715000
H           5.038000     15.570000     10.927000
C           5.691000     16.641000     12.705000
H           5.055000     17.515000     12.514000
C           6.842000     17.045000     13.609000
H           5.005000     16.011000     13.283000
H           7.629000     16.302000     13.795000
H           6.362000     17.197000     14.585000
H           7.345000     17.920000     13.179000
$end

--------------------------------------------------------------

             Standard Nuclear Orientation (Angstroms)
    I     Atom           X                Y                Z
 ----------------------------------------------------------------
    1      C       3.5905267199     5.0988557331    -0.4162201248
    2      C       4.2144383511     4.8443310755     0.8231105313
    3      N       3.9365782974     4.5730993055    -1.6143342614
    4      C       5.2513207487     3.8754195175     0.7794838604
    5      C       4.7755411313     3.5681152961    -1.5684811886
    6      C       5.5493121263     3.1670601780    -0.4085608294
    7      C       6.5932968362     2.0637562518    -0.4536870087
    8      C       6.2558091601     0.8442461118    -1.0712807967
    9      C       7.7267346626     1.9745134874     0.3863055046
   10      N       7.0762981025    -0.2624034422    -1.0995413688
   11      N       8.1943399849     3.0323686209     1.0988206126
   12      C       8.5101412250     0.8401500691     0.4328435877
   13      C       8.1419786379    -0.3502926082    -0.2496434390
   14      S       9.5618133195     2.5043947182     1.7116119614
   15      N       9.6249184105     0.9753613273     1.1224925872
   16      C       8.9118086617    -1.5719955669    -0.1742006455
   17      S      10.0015488521    -2.0560131582     1.1615340919
   18      C       8.7913101227    -2.6816862825    -0.9750330985
   19      C      10.4208799794    -3.6209213906     0.5112836557
   20      S       7.8473947336    -2.9119213098    -2.4189404953
   21      C       9.6660502997    -3.7756312549    -0.5978872114
   22      C      11.0968859075    -4.6972377216     1.1407605344
   23      C       8.5671143425    -4.5483495818    -2.4922016387
   24      C       9.3856913051    -4.8726822445    -1.4234354901
   25      N      11.7101753000    -5.5675742452     0.3720815008
   26      S      11.0742605128    -5.0274247993     2.8452729530
   27      C      12.4031534222    -6.4822484183     1.2016702417
   28      C      12.2391430548    -6.2583365595     2.5341750555
   29      C       2.5029195163     6.1977383027    -0.4448674478
   30      H       3.9839930194     5.2709882722     1.7953186292
   31      H       5.7405433803     3.6237722900     1.7158432410
   32      H       4.9995227164     3.0166703736    -2.4809294046
   33      H       5.3375248847     0.8485767628    -1.6554376548
   34      H       8.2630719309    -5.2503756765    -3.2574222437
   35      H       9.8142671743    -5.8437694368    -1.2009711350
   36      H      13.0412268633    -7.1754732445     0.6687775469
   37      H      12.6237232460    -6.6737257383     3.4568401663
   38      H       2.7994469959     6.9060219258     0.3394677887
   39      C       1.1024336620     5.5618011488    -0.4039124958
   40      H       2.5504071590     6.7375010053    -1.3989906834
   41      H       0.9765476651     4.9485286148    -1.3054969427
   42      H       0.2907792539     6.2769222674    -0.5842674440
   43      C       0.8569469838     4.6969697336     0.8519783889
   44      H      -0.1223838571     4.2279500661     0.6980282168
   45      C       0.9317774246     5.4996106700     2.1388353865
   46      H       1.5732545885     3.8682340870     0.9221256871
   47      H       0.0472833040     6.1446793835     2.2153501267
   48      H       1.7901764986     6.1791006923     2.2037533310
   49      C       0.8437931489     4.5477594937     3.2716346209
   50      H       0.0827199870     3.7646621241     3.1562173259
   51      C       0.5750510891     5.4020537676     4.5545079580
   52      H       1.7816738053     3.9834270661     3.3317161104
   53      H      -0.3512784078     5.9883846012     4.5628635991
   54      H       1.3853531687     6.1340533110     4.6611203783
   55      H       0.7179379814     4.7620694730     5.4340177298
   56      C     -12.3072501177    -1.9934095156     0.7030449313
   57      C     -11.5447082944    -1.2217001398     1.5632998977
   58      N     -11.8091993317    -2.4144822886    -0.4871588892
   59      C     -10.2157469938    -0.8237647071     1.2593422481
   60      C     -10.5350867274    -1.9649939248    -0.8163735338
   61      C      -9.7117539867    -1.1334788770     0.0087567125
   62      C      -8.3989112472    -0.6845030862    -0.3885072811
   63      C      -8.0378151396     0.6805472125    -0.2095986925
   64      C      -7.3975147183    -1.5237654268    -0.7321636731
   65      N      -6.8112613571     1.1660853360    -0.4878567546
   66      N      -7.5352942233    -2.8521739963    -0.8025730510
   67      C      -6.1057363800    -1.0537825832    -0.9752394870
   68      C      -5.7812853072     0.3507237726    -0.8329145147
   69      S      -6.0688264429    -3.4834849963    -1.2349197525
   70      N      -5.1828523839    -2.0346709690    -1.3223376064
   71      C      -4.4192702141     0.8557641694    -0.9930459724
   72      S      -3.0055375962    -0.0117317013    -1.6388609608
   73      C      -4.0250435294     2.1367663418    -0.6542646929
   74      C      -2.0223626312     1.4294021486    -1.5518827174
   75      S      -4.8981648281     3.3466112847     0.1919411994
   76      C      -2.7348211783     2.4719987560    -1.0044568020
   77      C      -0.6528035470     1.4680491716    -1.9478982760
   78      C      -3.5405959345     4.5044012302    -0.1443386558
   79      C      -2.4913290365     3.8247220607    -0.7839386899
   80      N      -0.1078074319     2.6218418428    -2.0647345133
   81      S       0.4074465212     0.0960361217    -1.9270180545
   82      C       1.2195912031     2.5020521256    -2.3085321496
   83      C       1.6634563876     1.2104597191    -2.4895038421
   84      C     -13.6947172452    -2.5672982440     1.1572207754
   85      H     -11.9956428226    -1.0250209261     2.5297078541
   86      H      -9.5591119154    -0.3543443108     1.9856526951
   87      H     -10.1178337380    -2.3982375198    -1.7226080124
   88      H      -8.8037137573     1.3545282068     0.1754921107
   89      H      -3.5207671835     5.5741510147     0.0194637228
   90      H      -1.6306325911     4.3989163389    -1.1036394245
   91      H       1.8486580938     3.3636316168    -2.4891771807
   92      H       2.7035032375     0.9568796553    -2.6455797890
   93      H     -13.7240373298    -3.6481611492     0.9728171072
   94      C     -14.7726209911    -1.8899044126     0.3681820489
   95      H     -13.9134908963    -2.3791426120     2.2159145686
   96      H     -14.5099743268    -1.9851694879    -0.6926338141
   97      H     -14.7499710587    -0.8516240486     0.7235717875
   98      C     -16.2124892426    -2.5465146465     0.5235732302
   99      H     -16.8634707385    -2.0849590128    -0.2286923405
  100      C     -16.6980127285    -2.3697752652     1.9608686541
  101      H     -16.0083692936    -3.6012738557     0.3017082779
  102      H     -16.8550608389    -1.3015744090     2.1553007040
  103      H     -15.9613356495    -2.6916402727     2.7073207947
  104      C     -18.0509810784    -3.1236326908     2.2812943493
  105      H     -17.9293642272    -4.2114939199     2.3626594996
  106      C     -19.2796422756    -2.8165732700     1.4438343953
  107      H     -18.2716313247    -2.8638064869     3.3231119018
  108      H     -19.4655089588    -1.7676013102     1.1771409315
  109      H     -20.1150493030    -3.0921778102     2.1012667005
  110      H     -19.2128608530    -3.3644316744     0.4957176249
 ----------------------------------------------------------------

   10   -5663.5108935496      4.85E-06 Convergence criterion met
 Total energy in the final basis set = -5663.5108935496

                    Orbital Energies (a.u.)
 --------------------------------------------------------------

 Alpha MOs
 -- Occupied --
-88.990 -88.985 -88.929 -88.927 -88.926 -88.924 -88.915 -88.910
-14.391 -14.387 -14.387 -14.379 -14.357 -14.349 -14.348 -14.343
-14.337 -14.332 -10.271 -10.270 -10.268 -10.263 -10.259 -10.255
-10.255 -10.248 -10.247 -10.245 -10.242 -10.242 -10.239 -10.239
-10.239 -10.239 -10.236 -10.235 -10.234 -10.231 -10.229 -10.228
-10.227 -10.227 -10.227 -10.227 -10.225 -10.223 -10.217 -10.212
-10.211 -10.209 -10.209 -10.208 -10.204 -10.196 -10.195 -10.195
-10.185 -10.183 -10.178 -10.178 -10.177 -10.176 -10.176 -10.173
-10.172 -10.171 -10.171 -10.170  -8.047  -8.040  -7.991  -7.987
 -7.986  -7.983  -7.974  -7.970  -6.012  -6.006  -6.005  -6.005
 -6.000  -5.998  -5.955  -5.952  -5.951  -5.950  -5.948  -5.948
 -5.948  -5.947  -5.944  -5.944  -5.943  -5.940  -5.938  -5.935
 -5.934  -5.931  -5.930  -5.926  -1.056  -1.020  -0.985  -0.975
 -0.956  -0.954  -0.953  -0.926  -0.920  -0.919  -0.914  -0.894
 -0.845  -0.845  -0.838  -0.837  -0.818  -0.815  -0.811  -0.807
 -0.805  -0.804  -0.803  -0.797  -0.791  -0.776  -0.772  -0.766
 -0.752  -0.750  -0.743  -0.740  -0.725  -0.719  -0.711  -0.709
 -0.697  -0.695  -0.677  -0.673  -0.656  -0.653  -0.652  -0.643
 -0.643  -0.638  -0.632  -0.627  -0.615  -0.615  -0.603  -0.599
 -0.594  -0.593  -0.587  -0.583  -0.581  -0.576  -0.566  -0.560
 -0.554  -0.552  -0.543  -0.539  -0.533  -0.523  -0.522  -0.508
 -0.506  -0.504  -0.504  -0.497  -0.495  -0.487  -0.484  -0.479
 -0.476  -0.474  -0.473  -0.471  -0.463  -0.449  -0.448  -0.447
 -0.446  -0.443  -0.442  -0.441  -0.440  -0.436  -0.435  -0.433
 -0.432  -0.429  -0.429  -0.424  -0.423  -0.418  -0.416  -0.414
 -0.411  -0.410  -0.406  -0.404  -0.404  -0.403  -0.401  -0.397
 -0.395  -0.393  -0.390  -0.390  -0.390  -0.388  -0.388  -0.385
 -0.385  -0.381  -0.374  -0.373  -0.364  -0.361  -0.361  -0.358
 -0.357  -0.354  -0.354  -0.351  -0.349  -0.347  -0.342  -0.340
 -0.338  -0.337  -0.336  -0.333  -0.329  -0.329  -0.323  -0.319
 -0.319  -0.316  -0.313  -0.311  -0.308  -0.302  -0.300  -0.299
 -0.297  -0.295  -0.291  -0.290  -0.288  -0.287  -0.283  -0.279
 -0.275  -0.271  -0.270  -0.266  -0.262  -0.257  -0.254  -0.250
 -0.247  -0.247  -0.234  -0.234  -0.202  -0.194

          Ground-State Mulliken Net Atomic Charges

     Atom                 Charge (a.u.)
  ----------------------------------------
      1 C                     0.247853
      2 C                    -0.101459
      3 N                    -0.466112
      4 C                    -0.072706
      5 C                     0.075626
      6 C                     0.036053
      7 C                     0.038590
      8 C                     0.061498
      9 C                     0.182206
     10 N                    -0.528419
     11 N                    -0.523646
     12 C                     0.223231
     13 C                     0.313256
     14 S                     0.597088
     15 N                    -0.559356
     16 C                    -0.219678
     17 S                     0.306890
     18 C                    -0.108361
     19 C                    -0.203065
     20 S                     0.290776
     21 C                     0.150564
     22 C                     0.038318
     23 C                    -0.314452
     24 C                    -0.046462
     25 N                    -0.425207
     26 S                     0.278664
     27 C                     0.110609
     28 C                    -0.304002
     29 C                    -0.224711
     30 H                     0.110065
     31 H                     0.106190
     32 H                     0.095028
     33 H                     0.105859
     34 H                     0.123522
     35 H                     0.119054
     36 H                     0.119103
     37 H                     0.141895
     38 H                     0.097068
     39 C                    -0.196300
     40 H                     0.110924
     41 H                     0.116168
     42 H                     0.086385
     43 C                    -0.192931
     44 H                     0.102518
     45 C                    -0.148109
     46 H                     0.092568
     47 H                     0.088167
     48 H                     0.085436
     49 C                    -0.175125
     50 H                     0.101893
     51 C                    -0.326743
     52 H                     0.087753
     53 H                     0.108236
     54 H                     0.096075
     55 H                     0.094207
     56 C                     0.279478
     57 C                    -0.128156
     58 N                    -0.489358
     59 C                    -0.073224
     60 C                     0.075563
     61 C                     0.038674
     62 C                    -0.011622
     63 C                     0.071811
     64 C                     0.288172
     65 N                    -0.543885
     66 N                    -0.563456
     67 C                     0.183775
     68 C                     0.323863
     69 S                     0.593249
     70 N                    -0.578732
     71 C                    -0.203702
     72 S                     0.334057
     73 C                    -0.130855
     74 C                    -0.255211
     75 S                     0.281613
     76 C                     0.205909
     77 C                     0.082518
     78 C                    -0.318167
     79 C                    -0.069074
     80 N                    -0.436817
     81 S                     0.258625
     82 C                     0.116869
     83 C                    -0.309689
     84 C                    -0.212585
     85 H                     0.083530
     86 H                     0.105449
     87 H                     0.113455
     88 H                     0.117668
     89 H                     0.128218
     90 H                     0.135476
     91 H                     0.140824
     92 H                     0.124545
     93 H                     0.113202
     94 C                    -0.183434
     95 H                     0.095732
     96 H                     0.111701
     97 H                     0.085820
     98 C                    -0.173828
     99 H                     0.097245
    100 C                    -0.173414
    101 H                     0.093794
    102 H                     0.091108
    103 H                     0.090613
    104 C                    -0.186867
    105 H                     0.092978
    106 C                    -0.311415
    107 H                     0.084696
    108 H                     0.100077
    109 H                     0.102934
    110 H                     0.107756
  ----------------------------------------
  Sum of atomic charges =     0.000000

                    Cartesian Multipole Moments
 -----------------------------------------------------------------
    Charge (ESU x 10^10)
                 0.0000
    Dipole Moment (Debye)
         X       3.3955      Y      -0.6643      Z       4.6376
       Tot       5.7860
    Quadrupole Moments (Debye-Ang)
        XX    -434.3695     XY     -27.5552     YY    -421.4102
        XZ       5.4368     YZ       2.2196     ZZ    -439.3363

 Total job time:  92.28s(wall), 1091.81s(cpu)
        *  Thank you very much for using Q-Chem.  Have a nice day.  *
