 Q-Chem 4.4, Q-Chem, Inc., Pleasanton, CA (2016)
 Q-Chem 4.4.2 for Intel X86 Linux

User input:
--------------------------------------------------------------
$comment
SP
$end

$rem
MEM_STATIC 5000
MEM_TOTAL 20000
JOBTYPE SP
EXCHANGE B3LYP
BASIS 6-31g(d,p)
$end

$molecule
0 1
C          10.230000     23.031000      2.655000
C          11.228000     23.503000      3.530000
N           9.172000     22.341000      3.059000
C          11.269000     23.032000      4.861000
C           9.116000     21.984000      4.372000
C          10.116000     22.285000      5.302000
C           9.930000     21.922000      6.780000
C          10.647000     22.581000      7.799000
C           9.126000     20.841000      7.247000
N          10.545000     22.195000      9.090000
N           8.507000     19.978000      6.394000
C           8.953000     20.552000      8.608000
C           9.716000     21.209000      9.479000
S           7.613000     19.008000      7.273000
N           8.060000     19.576000      8.852000
C           9.503000     21.146000     10.939000
S           8.035000     20.408000     11.710000
C          10.475000     21.500000     11.877000
C           8.654000     20.828000     13.330000
S          12.123000     22.096000     11.790000
C           9.960000     21.354000     13.196000
C           7.907000     20.746000     14.580000
C          12.049000     22.251000     13.566000
C          10.917000     21.716000     14.125000
N           8.518000     21.065000     15.684000
S           6.212000     20.499000     14.604000
C           7.610000     21.004000     16.728000
C           6.328000     20.832000     16.299000
C          10.252000     23.642000      1.252000
H          11.925000     24.252000      3.165000
H          12.090000     23.323000      5.509000
H           8.163000     21.536000      4.650000
H          11.147000     23.504000      7.509000
H          12.988000     22.458000     14.062000
H          10.777000     21.515000     15.182000
H           7.970000     21.273000     17.712000
H           5.406000     20.859000     16.864000
H          10.639000     24.667000      1.306000
C           8.854000     23.752000      0.522000
H          10.987000     23.149000      0.603000
H           8.182000     24.362000      1.140000
H           8.417000     22.751000      0.415000
C           9.093000     24.413000     -0.892000
H           9.408000     25.446000     -0.696000
C           7.871000     24.546000     -1.773000
H           9.972000     23.957000     -1.365000
H           7.402000     25.533000     -1.683000
H           7.191000     23.770000     -1.401000
C           8.119000     24.448000     -3.270000
H           8.519000     25.395000     -3.651000
C           6.782000     24.166000     -4.019000
H           8.851000     23.697000     -3.591000
H           7.014000     23.962000     -5.073000
H           6.123000     25.042000     -3.970000
H           6.264000     23.283000     -3.625000
C          11.736000     29.585000      6.208000
C          11.782000     28.474000      5.328000
N          10.977000     29.637000      7.323000
C          11.080000     27.314000      5.670000
C          10.237000     28.527000      7.630000
C          10.266000     27.284000      6.872000
C           9.385000     26.226000      7.195000
C           8.666000     25.573000      6.177000
C           9.141000     25.773000      8.526000
N           7.688000     24.703000      6.398000
N           9.726000     26.218000      9.661000
C           8.123000     24.856000      8.759000
C           7.410000     24.247000      7.656000
S           8.956000     25.444000     10.880000
N           7.888000     24.573000     10.047000
C           6.406000     23.182000      7.780000
S           5.850000     22.393000      9.290000
C           5.675000     22.579000      6.736000
C           4.928000     21.214000      8.380000
S           5.647000     23.100000      5.050000
C           4.860000     21.546000      7.077000
C           4.198000     20.092000      8.894000
C           4.439000     21.808000      4.779000
C           4.185000     21.075000      5.911000
N           3.149000     19.653000      8.314000
S           4.409000     19.555000     10.580000
C           2.498000     18.724000      9.078000
C           3.000000     18.594000     10.356000
C          12.327000     30.886000      5.760000
H          12.340000     28.479000      4.398000
H          11.008000     26.493000      4.964000
H           9.672000     28.612000      8.557000
H           8.923000     25.788000      5.141000
H           4.004000     21.594000      3.810000
H           3.468000     20.264000      5.860000
H           1.585000     18.241000      8.755000
H           2.577000     18.078000     11.208000
H          12.856000     31.191000      6.673000
C          11.311000     31.953000      5.364000
H          13.141000     30.862000      5.025000
H          10.514000     32.031000      6.114000
H          10.814000     31.511000      4.491000
C          11.879000     33.399000      5.088000
H          12.227000     33.841000      6.030000
C          10.894000     34.369000      4.457000
H          12.784000     33.420000      4.469000
H           9.914000     33.926000      4.674000
H          10.934000     34.250000      3.368000
C          11.225000     35.793000      4.807000
H          11.106000     35.965000      5.884000
C          10.393000     36.914000      4.091000
H          12.269000     36.024000      4.562000
H          10.646000     37.913000      4.470000
H           9.324000     36.761000      4.285000
H          10.645000     36.840000      3.026000
$end

--------------------------------------------------------------

             Standard Nuclear Orientation (Angstroms)
    I     Atom           X                Y                Z
 ----------------------------------------------------------------
    1      C       3.5032152998     3.2156134960    -2.4910585075
    2      C       3.4397084632     1.9290128953    -3.0611802279
    3      N       2.5065253450     3.7606495158    -1.8067889180
    4      C       2.1972522225     1.2620748535    -3.1422921163
    5      C       1.3302037427     3.0765568102    -1.7535098575
    6      C       1.1138794753     1.8525900761    -2.3942986254
    7      C      -0.2132837417     1.1077801872    -2.2078984512
    8      C      -0.3192090967    -0.2804149296    -2.4279555726
    9      C      -1.4562906160     1.7417520836    -1.9145052936
   10      N      -1.5103560463    -0.9137165715    -2.3493491174
   11      N      -1.5807103695     3.0967684586    -1.8513440041
   12      C      -2.6484688519     1.0296039249    -1.7213031875
   13      C      -2.6407272788    -0.2719317841    -2.0013100916
   14      S      -3.0604951984     3.4116809407    -1.3782224670
   15      N      -3.6852394246     1.7921051383    -1.3298192425
   16      C      -3.7605695389    -1.1723091657    -1.6604114512
   17      S      -5.1445513773    -0.6940897757    -0.5880264988
   18      C      -3.9536236438    -2.4224379023    -2.2518945485
   19      C      -5.8566725296    -2.3218725274    -0.7528530068
   20      S      -3.1035349294    -3.3655952084    -3.4628827704
   21      C      -5.1012489484    -3.0557682084    -1.6967811515
   22      C      -6.9676899861    -2.8537146295     0.0281829652
   23      C      -4.2667837039    -4.6717765518    -3.1101511631
   24      C      -5.2861545207    -4.2984604504    -2.2725067121
   25      N      -7.3863163415    -4.0570292802    -0.2376813347
   26      S      -7.5506855337    -2.0559603850     1.4275808204
   27      C      -8.3763654950    -4.3938296372     0.6703325381
   28      C      -8.4927555221    -3.4863441152     1.6803188691
   29      C       4.9050384965     3.8246993458    -2.4128271026
   30      H       4.3631774457     1.4636498108    -3.3938621149
   31      H       2.1303435299     0.3119009967    -3.6631748945
   32      H       0.6091548323     3.5242064357    -1.0709446360
   33      H       0.6215317109    -0.8244067524    -2.4994302514
   34      H      -4.2551449199    -5.5119682368    -3.7917144186
   35      H      -6.1976624223    -4.8632924225    -2.1070733765
   36      H      -8.8033837597    -5.3845409204     0.5905606452
   37      H      -9.0901086119    -3.5348495521     2.5807934710
   38      H       5.6453806877     3.0236573416    -2.2964864498
   39      C       5.1619978149     4.8204438451    -1.2120486882
   40      H       5.2050237183     4.2833450264    -3.3636835620
   41      H       4.9771183067     4.2889596298    -0.2692061264
   42      H       4.4632136635     5.6639600695    -1.2798726433
   43      C       6.6563517322     5.3219932737    -1.3058172364
   44      H       7.2851247341     4.4451516030    -1.1045134942
   45      C       7.0765654981     6.3404145186    -0.2697802878
   46      H       6.8913266734     5.5787188578    -2.3465788573
   47      H       7.5638096897     5.8738431272     0.5945889820
   48      H       6.1340955595     6.8102770775     0.0367153738
   49      C       8.1228236545     7.3488598764    -0.7175512455
   50      H       9.1200432944     6.8936223082    -0.7007659460
   51      C       8.1448800527     8.5675106883     0.2532719690
   52      H       8.0184208402     7.7328987395    -1.7395493884
   53      H       8.8046201930     9.3353949088    -0.1727007661
   54      H       8.5416853202     8.2705928262     1.2322731758
   55      H       7.1535136502     9.0219652990     0.3712239197
   56      C       5.7511597048    -3.7699712343    -0.4922806488
   57      C       5.6367101985    -2.5100737400    -1.1329027014
   58      N       4.8220913758    -4.2824704583     0.3420973145
   59      C       4.4528223120    -1.7816962153    -0.9804440059
   60      C       3.6873555876    -3.5444361885     0.5461294383
   61      C       3.3945905349    -2.2845577891    -0.1227868813
   62      C       2.2501199384    -1.5331988434     0.2314740232
   63      C       2.3588897399    -0.1484920559     0.4560853385
   64      C       0.9523703491    -2.0986565153     0.4115007573
   65      N       1.3892469461     0.6003970762     0.9671459222
   66      N       0.5902225355    -3.3885240118     0.2282910348
   67      C      -0.0666650691    -1.3144058857     0.9387765547
   68      C       0.1328158434     0.1012028377     1.1670708992
   69      S      -0.9681434180    -3.4771946318     0.7197888234
   70      N      -1.2181111012    -1.9546305124     1.1807320516
   71      C      -0.9053944877     1.0444310231     1.6030260558
   72      S      -2.6279899309     0.6767885017     1.9335724453
   73      C      -0.7476604496     2.4222593542     1.8572209878
   74      C      -2.9956717596     2.3793222081     2.1190826912
   75      S       0.7811593682     3.3027277045     1.9052464888
   76      C      -1.8724450044     3.1201363310     2.1661262006
   77      C      -4.2817349951     2.9757016215     2.3343800424
   78      C      -0.1794513736     4.7380033925     2.3734128076
   79      C      -1.5271783433     4.4826289678     2.4139704007
   80      N      -4.4157350855     4.0562575202     3.0006869728
   81      S      -5.7780274190     2.0327196134     2.1167107639
   82      C      -5.7296991085     4.3315456009     3.2619397601
   83      C      -6.5974010334     3.3169678660     2.9156546328
   84      C       7.0778854062    -4.4644959561    -0.4967888582
   85      H       6.4263024467    -2.0818821325    -1.7407555033
   86      H       4.3823909948    -0.7699502780    -1.3665406104
   87      H       2.9585309074    -4.0214107743     1.1996497747
   88      H       3.2926545724     0.3472348688     0.1954936010
   89      H       0.2561442008     5.7149662258     2.5459877709
   90      H      -2.2042157553     5.2839560609     2.6858274084
   91      H      -6.0418733263     5.2049176971     3.8195735462
   92      H      -7.6426384313     3.1947612086     3.1679110796
   93      H       6.7648892441    -5.4935105187    -0.7194936685
   94      C       7.8314233050    -4.4232568032     0.8291225142
   95      H       7.7713400411    -4.2562825355    -1.3209034380
   96      H       7.1676187043    -4.6808442441     1.6638710766
   97      H       8.0320305706    -3.3531854007     0.9677079341
   98      C       9.1288584773    -5.3155184450     0.9303506532
   99      H       8.8444874770    -6.3752165232     0.9326127782
  100      C       9.9900715396    -5.0642085577     2.1569073792
  101      H       9.7923552396    -5.2511350556     0.0595729402
  102      H       9.3089130062    -4.5662175895     2.8581677075
  103      H      10.6860224416    -4.2468952867     1.9347962385
  104      C      10.7762864656    -6.2881565542     2.5359250464
  105      H      10.1056250246    -7.0975554316     2.8501871802
  106      C      11.8346550710    -6.1275907209     3.6829191651
  107      H      11.3502057747    -6.6654007214     1.6805739694
  108      H      12.2972286602    -7.0878318377     3.9467631951
  109      H      11.3429815773    -5.7512979675     4.5887154663
  110      H      12.5939777053    -5.4373602391     3.2953420514
 ----------------------------------------------------------------

   10   -5663.5242592282      4.09E-06 Convergence criterion met
 Total energy in the final basis set = -5663.5242592282

                    Orbital Energies (a.u.)
 --------------------------------------------------------------

 Alpha MOs
 -- Occupied --
-88.986 -88.983 -88.927 -88.926 -88.923 -88.922 -88.909 -88.907
-14.383 -14.383 -14.381 -14.376 -14.347 -14.345 -14.345 -14.338
-14.333 -14.328 -10.267 -10.265 -10.265 -10.254 -10.251 -10.251
-10.250 -10.244 -10.243 -10.239 -10.238 -10.238 -10.237 -10.236
-10.233 -10.231 -10.230 -10.230 -10.229 -10.229 -10.228 -10.227
-10.227 -10.225 -10.221 -10.220 -10.220 -10.219 -10.219 -10.217
-10.216 -10.214 -10.202 -10.202 -10.201 -10.201 -10.193 -10.188
-10.186 -10.181 -10.180 -10.180 -10.178 -10.176 -10.176 -10.174
-10.172 -10.172 -10.171 -10.170  -8.041  -8.039  -7.989  -7.985
 -7.984  -7.980  -7.969  -7.965  -6.006  -6.004  -6.001  -5.999
 -5.998  -5.996  -5.953  -5.950  -5.949  -5.947  -5.946  -5.946
 -5.945  -5.944  -5.942  -5.941  -5.941  -5.937  -5.933  -5.930
 -5.930  -5.926  -5.925  -5.922  -1.038  -1.030  -0.985  -0.976
 -0.958  -0.953  -0.938  -0.931  -0.917  -0.902  -0.902  -0.897
 -0.842  -0.836  -0.834  -0.827  -0.813  -0.812  -0.806  -0.804
 -0.803  -0.801  -0.794  -0.793  -0.785  -0.782  -0.767  -0.764
 -0.748  -0.746  -0.740  -0.736  -0.725  -0.718  -0.713  -0.706
 -0.693  -0.690  -0.674  -0.674  -0.655  -0.651  -0.644  -0.639
 -0.635  -0.632  -0.623  -0.621  -0.610  -0.607  -0.597  -0.595
 -0.592  -0.591  -0.582  -0.578  -0.576  -0.574  -0.572  -0.568
 -0.552  -0.549  -0.538  -0.535  -0.525  -0.523  -0.513  -0.512
 -0.506  -0.506  -0.498  -0.496  -0.483  -0.481  -0.478  -0.473
 -0.472  -0.471  -0.468  -0.466  -0.465  -0.462  -0.451  -0.446
 -0.443  -0.440  -0.437  -0.435  -0.433  -0.432  -0.431  -0.428
 -0.427  -0.427  -0.424  -0.420  -0.419  -0.416  -0.414  -0.411
 -0.411  -0.407  -0.405  -0.404  -0.401  -0.399  -0.396  -0.394
 -0.392  -0.391  -0.390  -0.388  -0.387  -0.385  -0.384  -0.382
 -0.377  -0.374  -0.373  -0.371  -0.365  -0.363  -0.353  -0.352
 -0.350  -0.348  -0.346  -0.345  -0.344  -0.344  -0.340  -0.338
 -0.336  -0.332  -0.331  -0.330  -0.328  -0.327  -0.323  -0.317
 -0.312  -0.309  -0.309  -0.307  -0.305  -0.303  -0.301  -0.299
 -0.296  -0.293  -0.292  -0.288  -0.285  -0.283  -0.283  -0.280
 -0.272  -0.270  -0.268  -0.265  -0.254  -0.252  -0.251  -0.248
 -0.248  -0.242  -0.230  -0.227  -0.192  -0.188

          Ground-State Mulliken Net Atomic Charges

     Atom                 Charge (a.u.)
  ----------------------------------------
      1 C                     0.292507
      2 C                    -0.130744
      3 N                    -0.489718
      4 C                    -0.090128
      5 C                     0.094129
      6 C                     0.039558
      7 C                     0.051395
      8 C                     0.047669
      9 C                     0.185617
     10 N                    -0.522725
     11 N                    -0.525406
     12 C                     0.282939
     13 C                     0.282649
     14 S                     0.608290
     15 N                    -0.622000
     16 C                    -0.218321
     17 S                     0.337629
     18 C                    -0.115036
     19 C                    -0.246362
     20 S                     0.272644
     21 C                     0.150051
     22 C                     0.090079
     23 C                    -0.316480
     24 C                    -0.047984
     25 N                    -0.444114
     26 S                     0.272990
     27 C                     0.126620
     28 C                    -0.316018
     29 C                    -0.254406
     30 H                     0.089671
     31 H                     0.107195
     32 H                     0.140288
     33 H                     0.116103
     34 H                     0.125289
     35 H                     0.129018
     36 H                     0.115296
     37 H                     0.129334
     38 H                     0.102607
     39 C                    -0.175001
     40 H                     0.114045
     41 H                     0.103517
     42 H                     0.115108
     43 C                    -0.183382
     44 H                     0.086297
     45 C                    -0.167742
     46 H                     0.088976
     47 H                     0.095269
     48 H                     0.093852
     49 C                    -0.184409
     50 H                     0.093256
     51 C                    -0.316843
     52 H                     0.091161
     53 H                     0.095103
     54 H                     0.101601
     55 H                     0.104667
     56 C                     0.258217
     57 C                    -0.109629
     58 N                    -0.473317
     59 C                    -0.090648
     60 C                     0.082281
     61 C                     0.021832
     62 C                     0.012784
     63 C                     0.080273
     64 C                     0.249734
     65 N                    -0.539088
     66 N                    -0.560312
     67 C                     0.190157
     68 C                     0.318368
     69 S                     0.619878
     70 N                    -0.557612
     71 C                    -0.230310
     72 S                     0.340310
     73 C                    -0.146226
     74 C                    -0.260931
     75 S                     0.295433
     76 C                     0.211802
     77 C                     0.057557
     78 C                    -0.306783
     79 C                    -0.066728
     80 N                    -0.416298
     81 S                     0.271690
     82 C                     0.115713
     83 C                    -0.313906
     84 C                    -0.223220
     85 H                     0.092329
     86 H                     0.095341
     87 H                     0.118253
     88 H                     0.112410
     89 H                     0.125993
     90 H                     0.120853
     91 H                     0.114742
     92 H                     0.137819
     93 H                     0.113854
     94 C                    -0.180220
     95 H                     0.092448
     96 H                     0.119656
     97 H                     0.088072
     98 C                    -0.181137
     99 H                     0.097584
    100 C                    -0.165200
    101 H                     0.086979
    102 H                     0.093657
    103 H                     0.087787
    104 C                    -0.184959
    105 H                     0.096053
    106 C                    -0.321820
    107 H                     0.095749
    108 H                     0.100335
    109 H                     0.104895
    110 H                     0.101905
  ----------------------------------------
  Sum of atomic charges =     0.000000

                    Cartesian Multipole Moments
 -----------------------------------------------------------------
    Charge (ESU x 10^10)
                 0.0000
    Dipole Moment (Debye)
         X      -1.8213      Y       0.8557      Z       0.3392
       Tot       2.0406
    Quadrupole Moments (Debye-Ang)
        XX    -391.2643     XY       2.7554     YY    -441.9106
        XZ     -31.8737     YZ       4.8517     ZZ    -441.1265

 Total job time:  108.65s(wall), 1277.72s(cpu)
        *  Thank you very much for using Q-Chem.  Have a nice day.  *
