 Q-Chem 4.4, Q-Chem, Inc., Pleasanton, CA (2016)
 Q-Chem 4.4.2 for Intel X86 Linux

User input:
--------------------------------------------------------------
$comment
SP
$end

$rem
MEM_STATIC 5000
MEM_TOTAL 20000
JOBTYPE SP
EXCHANGE B3LYP
BASIS 6-31g(d,p)
$end

$molecule
0 1
C          12.019000     -0.800000     -9.545000
C          10.913000      0.020000     -9.608000
N          13.236000     -0.230000     -9.656000
C          11.005000      1.440000     -9.758000
C          13.356000      1.108000     -9.945000
C          12.291000      2.064000     -9.969000
C          12.403000      3.612000    -10.112000
C          11.325000      4.519000    -10.101000
C          13.649000      4.335000    -10.220000
N          11.433000      5.877000    -10.133000
N          14.855000      3.750000    -10.018000
C          13.717000      5.674000    -10.272000
C          12.601000      6.573000    -10.249000
S          16.002000      4.826000    -10.303000
N          15.013000      6.145000    -10.305000
C          12.620000      8.071000    -10.165000
S          14.065000      9.047000    -10.157000
C          11.534000      8.940000    -10.050000
C          13.231000     10.515000     -9.959000
S           9.860000      8.515000     -9.976000
C          11.928000     10.258000     -9.868000
C          13.837000     11.813000     -9.650000
C           9.647000     10.250000     -9.431000
C          10.798000     11.065000     -9.508000
N          13.131000     12.934000     -9.901000
S          15.445000     12.041000     -8.991000
C          13.974000     13.997000     -9.845000
C          15.227000     13.698000     -9.507000
C          11.994000     -2.310000     -9.203000
H          10.034000     -0.454000     -9.179000
H          10.097000      2.030000     -9.681000
H          14.330000      1.452000    -10.291000
H          10.293000      4.184000    -10.185000
H           8.595000     10.448000     -9.269000
H          10.811000     12.128000     -9.293000
H          13.560000     14.947000    -10.157000
H          16.121000     14.304000     -9.567000
H          10.965000     -2.659000     -9.053000
C          12.910000     -2.588000     -7.945000
H          12.369000     -2.907000    -10.045000
H          12.698000     -1.968000     -7.067000
H          13.937000     -2.396000     -8.281000
C          12.808000     -4.129000     -7.559000
H          11.804000     -4.402000     -7.209000
C          13.911000     -4.747000     -6.590000
H          12.809000     -4.696000     -8.497000
H          13.516000     -4.492000     -5.598000
H          14.862000     -4.216000     -6.715000
C          14.068000     -6.294000     -6.634000
H          13.077000     -6.761000     -6.581000
C          14.960000     -6.649000     -5.459000
H          14.580000     -6.598000     -7.556000
H          14.610000     -6.284000     -4.486000
H          15.899000     -6.112000     -5.641000
H          15.220000     -7.702000     -5.296000
C           6.160000     14.959000      6.899000
C           5.638000     13.727000      6.543000
N           6.822000     15.726000      5.996000
C           5.763000     13.193000      5.233000
C           7.007000     15.172000      4.734000
C           6.529000     13.889000      4.315000
C           6.761000     13.356000      2.994000
C           7.199000     12.010000      2.845000
C           6.387000     13.988000      1.860000
N           7.371000     11.414000      1.648000
N           5.822000     15.200000      1.839000
C           6.506000     13.374000      0.612000
C           7.003000     12.019000      0.489000
S           5.511000     15.578000      0.259000
N           6.084000     14.149000     -0.463000
C           7.053000     11.321000     -0.794000
S           6.816000     12.010000     -2.418000
C           7.308000      9.969000     -0.929000
C           7.216000     10.487000     -3.174000
S           7.415000      8.764000      0.287000
C           7.450000      9.519000     -2.224000
C           7.230000     10.294000     -4.587000
C           7.936000      7.581000     -0.988000
C           7.876000      8.194000     -2.250000
N           7.765000      9.216000     -5.027000
S           6.274000     11.211000     -5.706000
C           7.584000      9.103000     -6.365000
C           6.987000     10.190000     -6.965000
C           5.837000     15.593000      8.297000
H           5.040000     13.241000      7.306000
H           5.229000     12.307000      4.903000
H           7.446000     15.844000      4.000000
H           7.399000     11.445000      3.756000
H           8.324000      6.580000     -0.850000
H           8.216000      7.629000     -3.109000
H           8.007000      8.285000     -6.933000
H           6.737000     10.224000     -8.017000
H           5.463000     16.615000      8.160000
C           7.094000     15.619000      9.111000
H           5.101000     15.017000      8.872000
H           7.867000     16.105000      8.503000
H           7.306000     14.560000      9.307000
C           6.992000     16.469000     10.451000
H           8.007000     16.561000     10.856000
C           6.000000     15.801000     11.401000
H           6.605000     17.428000     10.085000
H           6.405000     14.831000     11.715000
H           5.038000     15.570000     10.927000
C           5.691000     16.641000     12.705000
H           5.055000     17.515000     12.514000
C           6.842000     17.045000     13.609000
H           5.005000     16.011000     13.283000
H           7.629000     16.302000     13.795000
H           6.362000     17.197000     14.585000
H           7.345000     17.920000     13.179000
$end

--------------------------------------------------------------

             Standard Nuclear Orientation (Angstroms)
    I     Atom           X                Y                Z
 ----------------------------------------------------------------
    1      C     -10.6120676298     4.1638818498    -1.0789702254
    2      C      -9.8141808727     3.5702930746    -2.0332417218
    3      N     -10.7659962298     3.5289613126     0.1006449226
    4      C      -9.1286340929     2.3335918584    -1.8142446566
    5      C     -10.2406459084     2.2736041524     0.2910404066
    6      C      -9.3481827845     1.5900539426    -0.5949650579
    7      C      -8.5894976919     0.2528898942    -0.3386717925
    8      C      -7.6953036261    -0.3695084149    -1.2319194163
    9      C      -8.6616749697    -0.5057462542     0.8885896446
   10      N      -6.9636372428    -1.4883849049    -0.9680412180
   11      N      -9.2526781563    -0.0280933032     2.0110992846
   12      C      -7.9426499588    -1.6174754999     1.1060985362
   13      C      -7.0316089667    -2.2228852147     0.1799941210
   14      S      -9.2176694703    -1.1652716526     3.1336899462
   15      N      -8.1225922149    -2.1342362311     2.3722443142
   16      C      -6.1027839515    -3.3776030196     0.4152214201
   17      S      -6.0074933738    -4.2892844940     1.8986032304
   18      C      -5.1509133664    -3.9074827598    -0.4571041213
   19      C      -4.7286242576    -5.2742690764     1.3656087122
   20      S      -4.7883664524    -3.3687107722    -2.0591844815
   21      C      -4.3786404953    -4.8944699104     0.1386600745
   22      C      -3.9440963474    -6.1898753886     2.1984964832
   23      C      -3.3024581360    -4.4206936959    -1.8641783184
   24      C      -3.2665198427    -5.2261730310    -0.7044945341
   25      N      -3.2430012223    -7.1726571731     1.5979270953
   26      S      -3.8556783000    -6.1325384417     3.9480174815
   27      C      -2.8617229323    -8.0705049737     2.5425170553
   28      C      -3.2007733728    -7.7466176467     3.7890305122
   29      C     -11.2298208428     5.5797941840    -1.1850938773
   30      H      -9.4804909689     4.2844291017    -2.7815857489
   31      H      -8.4265586210     1.9889017254    -2.5670870996
   32      H     -10.6200089053     1.7039860941     1.1385939354
   33      H      -7.6104993658    -0.0551453355    -2.2703264135
   34      H      -2.7179485728    -4.3873873443    -2.7748875242
   35      H      -2.4919591661    -5.9539699876    -0.4883225000
   36      H      -2.4023760442    -8.9788309292     2.1748427499
   37      H      -3.1887477312    -8.3506678091     4.6862767355
   38      H     -10.9805509678     6.0429979353    -2.1476159884
   39      C     -10.7622529712     6.4599173626     0.0419625501
   40      H     -12.3267750108     5.5283846160    -1.1782667439
   41      H      -9.6792547011     6.4990798382     0.2026144948
   42      H     -11.2403386486     6.0133277311     0.9231440218
   43      C     -11.3398811900     7.9337240950    -0.1263239806
   44      H     -10.9062315231     8.4514665507    -0.9917347016
   45      C     -11.3468661217     8.8992788247     1.1406208780
   46      H     -12.3665278311     7.8360773240    -0.4975325237
   47      H     -10.3312492843     9.3154402446     1.1194995065
   48      H     -11.4456729724     8.3118882493     2.0610536665
   49      C     -12.3329417933    10.1007057374     1.0772005099
   50      H     -12.2369984592    10.5979786363     0.1043215141
   51      C     -11.9638591828    10.9959402698     2.2453816426
   52      H     -13.3639802760     9.7543584686     1.2243304413
   53      H     -10.9131750243    11.3084677210     2.2744228421
   54      H     -12.0974812594    10.3712516355     3.1370784806
   55      H     -12.5426881711    11.9133198949     2.4077073205
   56      C      12.7140039521     1.7421976836     0.6842451206
   57      C      11.9051958695     2.5694029200    -0.0764157646
   58      N      12.2713209353     0.5335389438     1.1144982989
   59      C      10.5806379681     2.2146662265    -0.4459955858
   60      C      10.9508219962     0.2176190361     0.8140616767
   61      C      10.0509609319     1.0445932523     0.0680739351
   62      C       8.6833322127     0.6727278478    -0.2044362620
   63      C       7.6432550719     1.6250873596    -0.0120514872
   64      C       8.3342418004    -0.4683585733    -0.8379294849
   65      N       6.3508242799     1.3823771154    -0.3092439925
   66      N       9.2122378379    -1.4016381616    -1.2209727829
   67      C       7.0110637444    -0.7217942049    -1.2034855172
   68      C       5.9654633305     0.2476812958    -0.9485344865
   69      S       8.3633458647    -2.6074261367    -1.9702809818
   70      N       6.8049886793    -1.9384881173    -1.8449860948
   71      C       4.5902619117     0.0473990405    -1.4007524384
   72      S       3.8653807935    -1.4407670621    -2.0551032734
   73      C       3.6177774617     1.0296608752    -1.3764690594
   74      C       2.2844125899    -0.7004908018    -2.1150665771
   75      S       3.7824164078     2.7035838236    -1.0403054379
   76      C       2.3476522207     0.6147705540    -1.7146064481
   77      C       1.1189340706    -1.3794304119    -2.5784398898
   78      C       1.9743366594     2.8539970650    -1.1094319903
   79      C       1.4150516550     1.6238518442    -1.4914738986
   80      N      -0.0130782668    -0.8225870916    -2.3539792374
   81      S       1.1400766218    -2.6869049360    -3.7173206393
   82      C      -1.0116168460    -1.5036109325    -2.9662710257
   83      C      -0.6254297323    -2.6747685908    -3.5804593133
   84      C      14.2277952362     2.0867318212     0.9087917224
   85      H      12.3864995833     3.4641193617    -0.4556231273
   86      H       9.9966965049     2.7805565503    -1.1656013868
   87      H      10.6521474477    -0.7946857885     1.0769180179
   88      H       7.9236423727     2.5970036089     0.3952662830
   89      H       1.3647986796     3.7031283422    -0.8283118646
   90      H       0.3357384031     1.5399587899    -1.5188757178
   91      H      -2.0499612940    -1.2205893712    -2.8548412134
   92      H      -1.3032326134    -3.2989245516    -4.1473566507
   93      H      14.8456669225     1.2200447203     0.6438067258
   94      C      14.4299489472     2.4298404834     2.3526515920
   95      H      14.5629477428     2.9556147977     0.3284365118
   96      H      14.0056008725     1.6103530984     2.9457436063
   97      H      13.8880302609     3.3758970541     2.4797031661
   98      C      15.9532524122     2.5464803960     2.7936115497
   99      H      15.9706721395     2.6178820412     3.8878292421
  100      C      16.5979504171     3.7337257014     2.0811502754
  101      H      16.3688215633     1.5966277275     2.4351590582
  102      H      16.1314198346     4.6601124186     2.4384706722
  103      H      16.4307678604     3.7283684177     0.9969444406
  104      C      18.1573789902     3.8562256467     2.3149734750
  105      H      18.7358590131     3.1006272373     1.7679040948
  106      C      18.6817090146     3.9586914389     3.7361743007
  107      H      18.4467094859     4.7656225778     1.7756543803
  108      H      18.1257590113     4.5922955364     4.4400773065
  109      H      19.6536365988     4.4559251459     3.6170298022
  110      H      18.7056373695     2.9566719527     4.1821769726
 ----------------------------------------------------------------

   10   -5663.4802603983      3.96E-06 Convergence criterion met
 Total energy in the final basis set = -5663.4802603983

                    Orbital Energies (a.u.)
 --------------------------------------------------------------

 Alpha MOs
 -- Occupied --
-88.991 -88.986 -88.930 -88.928 -88.928 -88.925 -88.912 -88.910
-14.391 -14.381 -14.379 -14.375 -14.351 -14.350 -14.344 -14.339
-14.333 -14.328 -10.275 -10.275 -10.269 -10.265 -10.256 -10.255
-10.253 -10.248 -10.248 -10.246 -10.243 -10.242 -10.240 -10.239
-10.236 -10.232 -10.231 -10.231 -10.231 -10.230 -10.230 -10.229
-10.229 -10.228 -10.227 -10.226 -10.225 -10.224 -10.221 -10.213
-10.211 -10.210 -10.206 -10.205 -10.204 -10.199 -10.196 -10.195
-10.194 -10.186 -10.184 -10.181 -10.179 -10.179 -10.178 -10.177
-10.176 -10.173 -10.171 -10.169  -8.047  -8.041  -7.992  -7.989
 -7.987  -7.986  -7.972  -7.969  -6.012  -6.006  -6.006  -6.005
 -6.000  -5.998  -5.955  -5.953  -5.952  -5.951  -5.950  -5.950
 -5.949  -5.947  -5.946  -5.946  -5.943  -5.942  -5.936  -5.934
 -5.933  -5.930  -5.928  -5.925  -1.040  -1.021  -0.988  -0.973
 -0.953  -0.952  -0.929  -0.926  -0.925  -0.919  -0.895  -0.891
 -0.846  -0.845  -0.839  -0.827  -0.809  -0.809  -0.807  -0.806
 -0.803  -0.798  -0.798  -0.792  -0.780  -0.776  -0.768  -0.767
 -0.751  -0.750  -0.744  -0.740  -0.725  -0.723  -0.709  -0.708
 -0.696  -0.695  -0.675  -0.674  -0.653  -0.650  -0.644  -0.641
 -0.639  -0.634  -0.627  -0.624  -0.615  -0.611  -0.596  -0.594
 -0.593  -0.589  -0.587  -0.582  -0.581  -0.576  -0.572  -0.561
 -0.554  -0.552  -0.539  -0.538  -0.526  -0.523  -0.517  -0.509
 -0.505  -0.505  -0.502  -0.498  -0.487  -0.485  -0.477  -0.476
 -0.473  -0.471  -0.469  -0.463  -0.459  -0.449  -0.448  -0.446
 -0.444  -0.443  -0.441  -0.441  -0.440  -0.439  -0.434  -0.432
 -0.430  -0.428  -0.424  -0.422  -0.418  -0.418  -0.415  -0.413
 -0.410  -0.407  -0.404  -0.403  -0.403  -0.402  -0.400  -0.395
 -0.393  -0.393  -0.391  -0.388  -0.388  -0.387  -0.385  -0.384
 -0.381  -0.378  -0.373  -0.369  -0.368  -0.361  -0.360  -0.357
 -0.354  -0.351  -0.349  -0.348  -0.347  -0.344  -0.342  -0.340
 -0.338  -0.336  -0.334  -0.333  -0.331  -0.330  -0.324  -0.319
 -0.311  -0.310  -0.308  -0.306  -0.304  -0.302  -0.299  -0.298
 -0.297  -0.294  -0.291  -0.290  -0.285  -0.285  -0.284  -0.279
 -0.270  -0.270  -0.266  -0.263  -0.256  -0.252  -0.250  -0.247
 -0.247  -0.241  -0.234  -0.232  -0.201  -0.195

          Ground-State Mulliken Net Atomic Charges

     Atom                 Charge (a.u.)
  ----------------------------------------
      1 C                     0.275293
      2 C                    -0.128553
      3 N                    -0.490313
      4 C                    -0.094158
      5 C                     0.071796
      6 C                     0.048361
      7 C                     0.062138
      8 C                     0.047704
      9 C                     0.220225
     10 N                    -0.551224
     11 N                    -0.535884
     12 C                     0.162680
     13 C                     0.346845
     14 S                     0.610826
     15 N                    -0.568507
     16 C                    -0.224990
     17 S                     0.327068
     18 C                    -0.100002
     19 C                    -0.215712
     20 S                     0.261239
     21 C                     0.160472
     22 C                     0.030873
     23 C                    -0.301102
     24 C                    -0.048680
     25 N                    -0.427028
     26 S                     0.274849
     27 C                     0.145245
     28 C                    -0.314903
     29 C                    -0.225648
     30 H                     0.087623
     31 H                     0.099303
     32 H                     0.127215
     33 H                     0.111836
     34 H                     0.109128
     35 H                     0.132002
     36 H                     0.116047
     37 H                     0.131504
     38 H                     0.095471
     39 C                    -0.174316
     40 H                     0.124041
     41 H                     0.099306
     42 H                     0.128742
     43 C                    -0.200732
     44 H                     0.086118
     45 C                    -0.176553
     46 H                     0.085187
     47 H                     0.095536
     48 H                     0.094763
     49 C                    -0.173435
     50 H                     0.094844
     51 C                    -0.313926
     52 H                     0.099352
     53 H                     0.101645
     54 H                     0.102082
     55 H                     0.094044
     56 C                     0.279233
     57 C                    -0.127793
     58 N                    -0.489310
     59 C                    -0.073144
     60 C                     0.075781
     61 C                     0.038154
     62 C                    -0.010657
     63 C                     0.071549
     64 C                     0.287220
     65 N                    -0.542928
     66 N                    -0.563408
     67 C                     0.184459
     68 C                     0.323689
     69 S                     0.592935
     70 N                    -0.578485
     71 C                    -0.203636
     72 S                     0.333045
     73 C                    -0.130082
     74 C                    -0.255488
     75 S                     0.280988
     76 C                     0.208151
     77 C                     0.082324
     78 C                    -0.313077
     79 C                    -0.067678
     80 N                    -0.424131
     81 S                     0.260822
     82 C                     0.116326
     83 C                    -0.303550
     84 C                    -0.212839
     85 H                     0.083709
     86 H                     0.105713
     87 H                     0.113309
     88 H                     0.117984
     89 H                     0.128612
     90 H                     0.127559
     91 H                     0.125227
     92 H                     0.124513
     93 H                     0.113341
     94 C                    -0.183551
     95 H                     0.095878
     96 H                     0.111658
     97 H                     0.086002
     98 C                    -0.173775
     99 H                     0.097239
    100 C                    -0.173618
    101 H                     0.093785
    102 H                     0.091167
    103 H                     0.090638
    104 C                    -0.186497
    105 H                     0.092925
    106 C                    -0.311301
    107 H                     0.084687
    108 H                     0.100012
    109 H                     0.102901
    110 H                     0.107675
  ----------------------------------------
  Sum of atomic charges =     0.000000

                    Cartesian Multipole Moments
 -----------------------------------------------------------------
    Charge (ESU x 10^10)
                 0.0000
    Dipole Moment (Debye)
         X      -1.2142      Y      -0.1771      Z      -1.3214
       Tot       1.8033
    Quadrupole Moments (Debye-Ang)
        XX    -457.2289     XY      12.8901     YY    -413.8932
        XZ      -7.8965     YZ     -15.9273     ZZ    -427.7319

 Total job time:  84.98s(wall), 979.75s(cpu)
        *  Thank you very much for using Q-Chem.  Have a nice day.  *
