 Q-Chem 4.4, Q-Chem, Inc., Pleasanton, CA (2016)
 Q-Chem 4.4.2 for Intel X86 Linux

User input:
--------------------------------------------------------------
$comment
SP
$end

$rem
MEM_STATIC 5000
MEM_TOTAL 20000
JOBTYPE SP
EXCHANGE B3LYP
BASIS 6-31g(d,p)
$end

$molecule
0 1
C           7.501000     20.103000     -3.327000
C           8.021000     20.633000     -2.132000
N           6.509000     19.157000     -3.275000
C           7.357000     20.350000     -0.900000
C           5.914000     18.845000     -2.091000
C           6.289000     19.460000     -0.884000
C           5.498000     19.334000      0.391000
C           4.098000     19.450000      0.388000
C           6.082000     18.940000      1.620000
N           3.353000     19.229000      1.482000
N           7.407000     18.828000      1.825000
C           5.291000     18.588000      2.662000
C           3.927000     18.758000      2.590000
S           7.532000     18.356000      3.367000
N           5.931000     18.227000      3.735000
C           2.999000     18.187000      3.540000
S           3.339000     17.099000      4.860000
C           1.613000     18.417000      3.551000
C           1.704000     16.975000      5.363000
S           0.555000     19.439000      2.537000
C           0.923000     17.719000      4.555000
C           1.217000     16.200000      6.457000
C          -0.825000     18.907000      3.477000
C          -0.464000     18.025000      4.484000
N           0.014000     16.250000      6.927000
S           2.417000     15.105000      7.267000
C          -0.048000     15.395000      8.005000
C           1.120000     14.715000      8.388000
C           8.122000     20.291000     -4.647000
H           8.829000     21.357000     -2.181000
H           7.676000     20.769000      0.048000
H           5.144000     18.087000     -1.953000
H           3.565000     19.748000     -0.512000
H          -1.819000     19.229000      3.197000
H          -1.180000     17.593000      5.173000
H          -0.983000     15.381000      8.548000
H           1.292000     13.935000      9.118000
H           7.360000     20.250000     -5.435000
C           9.177000     19.177000     -4.945000
H           8.633000     21.261000     -4.672000
H           8.915000     18.197000     -4.529000
H          10.155000     19.515000     -4.581000
C           9.303000     18.951000     -6.486000
H           8.283000     18.822000     -6.869000
C          10.263000     17.831000     -6.775000
H           9.667000     19.879000     -6.945000
H           9.687000     16.900000     -6.715000
H          11.033000     17.826000     -5.993000
C          11.000000     17.995000     -8.095000
H          11.244000     19.058000     -8.215000
C          10.160000     17.498000     -9.286000
H          11.925000     17.406000     -8.063000
H          10.733000     17.223000    -10.181000
H           9.380000     18.233000     -9.522000
H           9.674000     16.575000     -8.948000
C           6.160000     14.959000      6.899000
C           5.638000     13.727000      6.543000
N           6.822000     15.726000      5.996000
C           5.763000     13.193000      5.233000
C           7.007000     15.172000      4.734000
C           6.529000     13.889000      4.315000
C           6.761000     13.356000      2.994000
C           7.199000     12.010000      2.845000
C           6.387000     13.988000      1.860000
N           7.371000     11.414000      1.648000
N           5.822000     15.200000      1.839000
C           6.506000     13.374000      0.612000
C           7.003000     12.019000      0.489000
S           5.511000     15.578000      0.259000
N           6.084000     14.149000     -0.463000
C           7.053000     11.321000     -0.794000
S           6.816000     12.010000     -2.418000
C           7.308000      9.969000     -0.929000
C           7.216000     10.487000     -3.174000
S           7.415000      8.764000      0.287000
C           7.450000      9.519000     -2.224000
C           7.230000     10.294000     -4.587000
C           7.936000      7.581000     -0.988000
C           7.876000      8.194000     -2.250000
N           7.765000      9.216000     -5.027000
S           6.274000     11.211000     -5.706000
C           7.584000      9.103000     -6.365000
C           6.987000     10.190000     -6.965000
C           5.837000     15.593000      8.297000
H           5.040000     13.241000      7.306000
H           5.229000     12.307000      4.903000
H           7.446000     15.844000      4.000000
H           7.399000     11.445000      3.756000
H           8.324000      6.580000     -0.850000
H           8.216000      7.629000     -3.109000
H           8.007000      8.285000     -6.933000
H           6.737000     10.224000     -8.017000
H           5.463000     16.615000      8.160000
C           7.094000     15.619000      9.111000
H           5.101000     15.017000      8.872000
H           7.867000     16.105000      8.503000
H           7.306000     14.560000      9.307000
C           6.992000     16.469000     10.451000
H           8.007000     16.561000     10.856000
C           6.000000     15.801000     11.401000
H           6.605000     17.428000     10.085000
H           6.405000     14.831000     11.715000
H           5.038000     15.570000     10.927000
C           5.691000     16.641000     12.705000
H           5.055000     17.515000     12.514000
C           6.842000     17.045000     13.609000
H           5.005000     16.011000     13.283000
H           7.629000     16.302000     13.795000
H           6.362000     17.197000     14.585000
H           7.345000     17.920000     13.179000
$end

--------------------------------------------------------------

             Standard Nuclear Orientation (Angstroms)
    I     Atom           X                Y                Z
 ----------------------------------------------------------------
    1      C       4.1419861609    -5.4804257522    -1.0105456624
    2      C       3.0903592051    -5.6625107570    -1.9271976120
    3      N       3.9697648443    -4.6437376472     0.0627561745
    4      C       1.7939302235    -5.1576459135    -1.6059618955
    5      C       2.7452872756    -4.1158874849     0.3370805991
    6      C       1.6202357296    -4.3905939106    -0.4594709676
    7      C       0.2129933415    -4.0390046286    -0.0554464164
    8      C      -0.2461501351    -4.2798297823     1.2501781519
    9      C      -0.6673699097    -3.3134598479    -0.8952549166
   10      N      -1.4520757387    -3.8750204352     1.6774659133
   11      N      -0.4201395784    -3.0355117012    -2.1882421521
   12      C      -1.8135123340    -2.7984614678    -0.3888132008
   13      C      -2.2079663148    -3.1045712447     0.8938725992
   14      S      -1.7196927816    -2.2023246979    -2.6710815556
   15      N      -2.5379608217    -2.1366682357    -1.2423084303
   16      C      -3.2683030987    -2.4120553917     1.5908895989
   17      S      -4.1724126063    -1.0159864649     1.0661786787
   18      C      -3.7586089602    -2.7585507319     2.8611486833
   19      C      -5.1277102416    -0.9262973977     2.4877877315
   20      S      -3.3507739900    -4.0839065295     3.9877127724
   21      C      -4.7693488568    -1.9086598329     3.3380242656
   22      C      -6.1431527036     0.0379354545     2.7593786246
   23      C      -4.5512670184    -3.4727797678     5.1085894694
   24      C      -5.1988450997    -2.3481787727     4.6205226394
   25      N      -6.9667623167    -0.0090204618     3.7544019143
   26      S      -6.3025598986     1.3985557077     1.5684013483
   27      C      -7.8182574368     1.0676331618     3.6415921840
   28      C      -7.6732173468     1.9227885892     2.5366100271
   29      C       5.5254525178    -5.9181748261    -1.2509236721
   30      H       3.2460122224    -6.3005728136    -2.7921195450
   31      H       0.9306322555    -5.3092352229    -2.2445253612
   32      H       2.5256173438    -3.4203872990     1.1461124975
   33      H       0.3636395424    -4.8299348238     1.9632237272
   34      H      -4.6665929607    -3.9413695297     6.0767028729
   35      H      -5.9778017930    -1.8325581613     5.1694878980
   36      H      -8.6129711557     1.1243574688     4.3726752560
   37      H      -8.1429743222     2.8658540756     2.2899526281
   38      H       6.0264746618    -6.1347812585    -0.2994366965
   39      C       6.3533782250    -4.8148596987    -1.9858112505
   40      H       5.5170281635    -6.8156294934    -1.8811221729
   41      H       6.0787208718    -3.7923721159    -1.7008858544
   42      H       6.2551211952    -4.9662140832    -3.0677823251
   43      C       7.8687750034    -4.9497434426    -1.6294238491
   44      H       7.9301670205    -5.0088797666    -0.5355939193
   45      C       8.6597407015    -3.8471731259    -2.2761331820
   46      H       8.2256371100    -5.9227997946    -1.9902171037
   47      H       8.6075634050    -2.9850898040    -1.6006874952
   48      H       8.1758985465    -3.5867638637    -3.2261504372
   49      C      10.0843273811    -4.2511097976    -2.6223310410
   50      H      10.0620165312    -5.2854140537    -2.9878743788
   51      C      11.0253725450    -4.1292339499    -1.4096190895
   52      H      10.4611587504    -3.5893113068    -3.4120087452
   53      H      12.0906589789    -4.0228738331    -1.6521708148
   54      H      10.8545900753    -4.9673193118    -0.7220383493
   55      H      10.7416442722    -3.2008200051    -0.8998006765
   56      C      -4.7582493757     1.7945997573    -1.8411503993
   57      C      -4.3476000926     2.8542246881    -1.0501977001
   58      N      -3.8637402455     0.8993333079    -2.3313477070
   59      C      -2.9861308572     3.0718726129    -0.7097393295
   60      C      -2.5240806640     1.1531770819    -2.0581068901
   61      C      -2.0310361769     2.2512295935    -1.2826574619
   62      C      -0.6259977058     2.4750812308    -1.0403532336
   63      C      -0.0840293977     3.7817132742    -1.1976556689
   64      C       0.1849052646     1.5610218348    -0.4639958850
   65      N       1.1994938452     4.0903888399    -0.9239834561
   66      N      -0.2124938276     0.3321309716    -0.1168486428
   67      C       1.5027359290     1.8701856606    -0.1228198765
   68      C       2.0408373731     3.1970717616    -0.3418703523
   69      S       1.0826229881    -0.4361303814     0.5675868380
   70      N       2.2155062341     0.8273997711     0.4593227871
   71      C       3.3861539107     3.5728894304     0.0878708411
   72      S       4.6838208860     2.5001562532     0.6654259919
   73      C       3.8589252332     4.8719205734     0.1004948708
   74      C       5.8126290773     3.8307472531     0.7453300485
   75      S       3.0014882090     6.3352350025    -0.1557133089
   76      C       5.1951782126     5.0134264512     0.4072407940
   77      C       7.1675011579     3.6840287492     1.1658170588
   78      C       4.5829976694     7.2250928164    -0.0962498929
   79      C       5.6149951953     6.3277831099     0.2228572947
   80      N       7.9571352595     4.6713787555     0.9571859233
   81      S       7.7256063151     2.4446829161     2.2426301992
   82      C       9.1653833321     4.4472284503     1.5278585402
   83      C       9.3204149208     3.1991802158     2.0902808112
   84      C      -6.2833130066     1.4829802432    -2.0354779580
   85      H      -5.1476017089     3.4503848236    -0.6252747580
   86      H      -2.6718324047     3.8018945033     0.0300826236
   87      H      -1.8376604370     0.3694517172    -2.3706174095
   88      H      -0.7556364515     4.5622511786    -1.5566132500
   89      H       4.7744972629     8.2614360078    -0.3430487893
   90      H       6.6311513778     6.7018807216     0.2364068232
   91      H       9.9873474500     5.1425456993     1.4202206654
   92      H      10.2123309996     2.8942816201     2.6212069403
   93      H      -6.4755054256     0.4278410265    -1.8055381669
   94      C      -6.6503029645     1.7654804992    -3.4598490390
   95      H      -6.9341807715     2.1090546060    -1.4121810425
   96      H      -5.9393825907     1.2220221033    -4.0943836670
   97      H      -6.5563839501     2.8555803943    -3.5476125701
   98      C      -8.0949291892     1.2513920031    -3.8808859601
   99      H      -8.1710023959     1.3510701370    -4.9703771886
  100      C      -9.1561466202     2.0318825439    -3.1079434786
  101      H      -8.0660552840     0.2017614973    -3.5633200630
  102      H      -9.1289062414     3.0814808885    -3.4259407691
  103      H      -8.9718768005     2.0551502435    -2.0267477296
  104      C     -10.6302671895     1.5000265740    -3.3214728083
  105      H     -10.8251852358     0.5513103226    -2.8049484338
  106      C     -11.1888516074     1.4285422252    -4.7314750906
  107      H     -11.2575616255     2.1836108135    -2.7376969283
  108      H     -10.9678549079     2.2631623709    -5.4101382406
  109      H     -12.2758745004     1.4688349370    -4.5803535254
  110      H     -10.8048542942     0.5263184451    -5.2234835398
 ----------------------------------------------------------------

   10   -5663.5333829875      3.72E-06 Convergence criterion met
 Total energy in the final basis set = -5663.5333829875

                    Orbital Energies (a.u.)
 --------------------------------------------------------------

 Alpha MOs
 -- Occupied --
-88.987 -88.985 -88.928 -88.928 -88.921 -88.918 -88.910 -88.904
-14.392 -14.381 -14.379 -14.378 -14.350 -14.347 -14.344 -14.340
-14.336 -14.329 -10.269 -10.268 -10.265 -10.256 -10.254 -10.249
-10.248 -10.243 -10.243 -10.240 -10.240 -10.237 -10.236 -10.233
-10.232 -10.231 -10.231 -10.230 -10.230 -10.230 -10.228 -10.228
-10.227 -10.226 -10.226 -10.219 -10.218 -10.213 -10.213 -10.211
-10.207 -10.207 -10.204 -10.200 -10.199 -10.198 -10.194 -10.189
-10.184 -10.184 -10.181 -10.179 -10.178 -10.177 -10.175 -10.174
-10.172 -10.172 -10.171 -10.169  -8.041  -8.041  -7.989  -7.987
 -7.981  -7.979  -7.969  -7.963  -6.006  -6.006  -6.001  -6.000
 -5.999  -5.998  -5.953  -5.951  -5.950  -5.947  -5.946  -5.945
 -5.943  -5.942  -5.941  -5.939  -5.938  -5.936  -5.934  -5.930
 -5.928  -5.926  -5.924  -5.920  -1.049  -1.022  -0.988  -0.974
 -0.964  -0.954  -0.928  -0.928  -0.919  -0.915  -0.909  -0.895
 -0.845  -0.843  -0.840  -0.834  -0.811  -0.809  -0.807  -0.806
 -0.804  -0.802  -0.799  -0.794  -0.785  -0.778  -0.767  -0.765
 -0.752  -0.746  -0.741  -0.736  -0.726  -0.719  -0.710  -0.709
 -0.696  -0.691  -0.675  -0.675  -0.654  -0.653  -0.648  -0.645
 -0.640  -0.639  -0.629  -0.628  -0.616  -0.607  -0.596  -0.596
 -0.594  -0.591  -0.582  -0.581  -0.577  -0.576  -0.565  -0.556
 -0.553  -0.551  -0.540  -0.538  -0.523  -0.521  -0.511  -0.509
 -0.507  -0.504  -0.498  -0.497  -0.494  -0.489  -0.483  -0.477
 -0.474  -0.471  -0.469  -0.464  -0.462  -0.451  -0.449  -0.448
 -0.446  -0.445  -0.444  -0.442  -0.438  -0.437  -0.437  -0.434
 -0.433  -0.427  -0.425  -0.421  -0.419  -0.416  -0.415  -0.412
 -0.411  -0.410  -0.405  -0.404  -0.401  -0.400  -0.397  -0.395
 -0.395  -0.393  -0.392  -0.389  -0.388  -0.387  -0.379  -0.378
 -0.377  -0.374  -0.371  -0.367  -0.363  -0.362  -0.357  -0.356
 -0.352  -0.350  -0.348  -0.348  -0.345  -0.343  -0.341  -0.338
 -0.337  -0.335  -0.334  -0.333  -0.332  -0.331  -0.321  -0.320
 -0.313  -0.312  -0.311  -0.310  -0.306  -0.302  -0.301  -0.299
 -0.296  -0.293  -0.291  -0.290  -0.288  -0.285  -0.281  -0.276
 -0.271  -0.270  -0.264  -0.259  -0.257  -0.252  -0.249  -0.248
 -0.248  -0.242  -0.235  -0.230  -0.195  -0.191

          Ground-State Mulliken Net Atomic Charges

     Atom                 Charge (a.u.)
  ----------------------------------------
      1 C                     0.267243
      2 C                    -0.118075
      3 N                    -0.497573
      4 C                    -0.063566
      5 C                     0.083172
      6 C                     0.049324
      7 C                    -0.034102
      8 C                     0.058380
      9 C                     0.232845
     10 N                    -0.515831
     11 N                    -0.547199
     12 C                     0.244894
     13 C                     0.319964
     14 S                     0.604188
     15 N                    -0.566938
     16 C                    -0.231616
     17 S                     0.361283
     18 C                    -0.132903
     19 C                    -0.250596
     20 S                     0.277260
     21 C                     0.180405
     22 C                     0.086041
     23 C                    -0.312069
     24 C                    -0.063334
     25 N                    -0.437824
     26 S                     0.250820
     27 C                     0.116072
     28 C                    -0.316429
     29 C                    -0.224595
     30 H                     0.087197
     31 H                     0.111219
     32 H                     0.101167
     33 H                     0.119459
     34 H                     0.131799
     35 H                     0.119867
     36 H                     0.107628
     37 H                     0.136008
     38 H                     0.117501
     39 C                    -0.175039
     40 H                     0.095463
     41 H                     0.117505
     42 H                     0.094913
     43 C                    -0.179044
     44 H                     0.100266
     45 C                    -0.173456
     46 H                     0.085127
     47 H                     0.097058
     48 H                     0.090471
     49 C                    -0.179389
     50 H                     0.091987
     51 C                    -0.316505
     52 H                     0.088975
     53 H                     0.099526
     54 H                     0.105432
     55 H                     0.100531
     56 C                     0.282991
     57 C                    -0.124544
     58 N                    -0.498504
     59 C                    -0.073995
     60 C                     0.101416
     61 C                     0.041283
     62 C                    -0.014167
     63 C                     0.072940
     64 C                     0.293572
     65 N                    -0.544075
     66 N                    -0.582093
     67 C                     0.182418
     68 C                     0.324677
     69 S                     0.601438
     70 N                    -0.577451
     71 C                    -0.204748
     72 S                     0.336078
     73 C                    -0.130504
     74 C                    -0.254977
     75 S                     0.281246
     76 C                     0.209017
     77 C                     0.081486
     78 C                    -0.313237
     79 C                    -0.067814
     80 N                    -0.424189
     81 S                     0.263499
     82 C                     0.114549
     83 C                    -0.297877
     84 C                    -0.209405
     85 H                     0.082915
     86 H                     0.107779
     87 H                     0.090106
     88 H                     0.117519
     89 H                     0.128160
     90 H                     0.126050
     91 H                     0.113746
     92 H                     0.129542
     93 H                     0.121862
     94 C                    -0.188396
     95 H                     0.095114
     96 H                     0.109707
     97 H                     0.084925
     98 C                    -0.173743
     99 H                     0.097024
    100 C                    -0.172913
    101 H                     0.095335
    102 H                     0.090123
    103 H                     0.090089
    104 C                    -0.187075
    105 H                     0.094681
    106 C                    -0.311233
    107 H                     0.083894
    108 H                     0.099762
    109 H                     0.103169
    110 H                     0.107925
  ----------------------------------------
  Sum of atomic charges =     0.000000

                    Cartesian Multipole Moments
 -----------------------------------------------------------------
    Charge (ESU x 10^10)
                 0.0000
    Dipole Moment (Debye)
         X       0.8671      Y       2.1107      Z      -0.0533
       Tot       2.2825
    Quadrupole Moments (Debye-Ang)
        XX    -399.4443     XY     -10.7680     YY    -424.2801
        XZ       2.5653     YZ      12.6194     ZZ    -441.2620

 Total job time:  96.22s(wall), 1138.04s(cpu)
        *  Thank you very much for using Q-Chem.  Have a nice day.  *
