 Q-Chem 4.4, Q-Chem, Inc., Pleasanton, CA (2016)
 Q-Chem 4.4.2 for Intel X86 Linux

User input:
--------------------------------------------------------------
$comment
SP
$end

$rem
MEM_STATIC 5000
MEM_TOTAL 20000
JOBTYPE SP
EXCHANGE B3LYP
BASIS 6-31g(d,p)
$end

$molecule
0 1
C          14.666000     18.901000     15.731000
C          13.320000     19.055000     15.352000
N          15.639000     18.827000     14.780000
C          12.942000     19.038000     14.021000
C          15.276000     18.822000     13.444000
C          13.920000     18.907000     13.024000
C          13.593000     18.993000     11.559000
C          12.387000     18.435000     11.141000
C          14.382000     19.644000     10.615000
N          11.964000     18.495000      9.880000
N          15.558000     20.148000     10.892000
C          13.853000     19.784000      9.309000
C          12.666000     19.147000      8.944000
S          15.975000     20.878000      9.495000
N          14.684000     20.543000      8.517000
C          12.147000     19.163000      7.552000
S          12.737000     20.184000      6.272000
C          11.242000     18.263000      7.102000
C          11.860000     19.263000      5.075000
S          10.487000     16.872000      7.864000
C          11.120000     18.325000      5.716000
C          11.947000     19.465000      3.661000
C           9.978000     16.392000      6.244000
C          10.401000     17.245000      5.195000
N          10.921000     19.069000      2.945000
S          13.048000     20.539000      2.885000
C          10.987000     19.439000      1.666000
C          12.103000     20.225000      1.401000
C          14.963000     18.803000     17.183000
H          12.537000     19.185000     16.094000
H          11.892000     19.132000     13.759000
H          16.147000     18.804000     12.790000
H          11.691000     18.048000     11.884000
H           9.422000     15.477000      6.090000
H          10.187000     17.070000      4.148000
H          10.215000     19.063000      1.008000
H          12.439000     20.615000      0.449000
H          15.960000     19.237000     17.327000
C          15.102000     17.447000     17.774000
H          14.172000     19.351000     17.708000
H          15.892000     16.865000     17.285000
H          14.183000     16.907000     17.514000
C          15.383000     17.508000     19.257000
H          16.388000     17.912000     19.435000
C          15.391000     16.048000     19.847000
H          14.617000     18.102000     19.771000
H          15.734000     16.300000     20.858000
H          16.115000     15.419000     19.313000
C          13.994000     15.425000     19.959000
H          13.383000     16.086000     20.586000
C          14.094000     14.070000     20.610000
H          13.516000     15.360000     18.975000
H          14.469000     13.311000     19.910000
H          13.159000     13.750000     21.084000
H          14.807000     14.142000     21.440000
C           6.160000     14.959000      6.899000
C           5.638000     13.727000      6.543000
N           6.822000     15.726000      5.996000
C           5.763000     13.193000      5.233000
C           7.007000     15.172000      4.734000
C           6.529000     13.889000      4.315000
C           6.761000     13.356000      2.994000
C           7.199000     12.010000      2.845000
C           6.387000     13.988000      1.860000
N           7.371000     11.414000      1.648000
N           5.822000     15.200000      1.839000
C           6.506000     13.374000      0.612000
C           7.003000     12.019000      0.489000
S           5.511000     15.578000      0.259000
N           6.084000     14.149000     -0.463000
C           7.053000     11.321000     -0.794000
S           6.816000     12.010000     -2.418000
C           7.308000      9.969000     -0.929000
C           7.216000     10.487000     -3.174000
S           7.415000      8.764000      0.287000
C           7.450000      9.519000     -2.224000
C           7.230000     10.294000     -4.587000
C           7.936000      7.581000     -0.988000
C           7.876000      8.194000     -2.250000
N           7.765000      9.216000     -5.027000
S           6.274000     11.211000     -5.706000
C           7.584000      9.103000     -6.365000
C           6.987000     10.190000     -6.965000
C           5.837000     15.593000      8.297000
H           5.040000     13.241000      7.306000
H           5.229000     12.307000      4.903000
H           7.446000     15.844000      4.000000
H           7.399000     11.445000      3.756000
H           8.324000      6.580000     -0.850000
H           8.216000      7.629000     -3.109000
H           8.007000      8.285000     -6.933000
H           6.737000     10.224000     -8.017000
H           5.463000     16.615000      8.160000
C           7.094000     15.619000      9.111000
H           5.101000     15.017000      8.872000
H           7.867000     16.105000      8.503000
H           7.306000     14.560000      9.307000
C           6.992000     16.469000     10.451000
H           8.007000     16.561000     10.856000
C           6.000000     15.801000     11.401000
H           6.605000     17.428000     10.085000
H           6.405000     14.831000     11.715000
H           5.038000     15.570000     10.927000
C           5.691000     16.641000     12.705000
H           5.055000     17.515000     12.514000
C           6.842000     17.045000     13.609000
H           5.005000     16.011000     13.283000
H           7.629000     16.302000     13.795000
H           6.362000     17.197000     14.585000
H           7.345000     17.920000     13.179000
$end

--------------------------------------------------------------

             Standard Nuclear Orientation (Angstroms)
    I     Atom           X                Y                Z
 ----------------------------------------------------------------
    1      C     -11.1899833671    -0.1503554289     1.0966566823
    2      C     -10.4455450110    -0.5475590487    -0.0290048202
    3      N     -10.6800979362     0.7699203954     1.9625176726
    4      C      -9.1540476413    -0.0944324988    -0.2325849609
    5      C      -9.3937918875     1.2416409441     1.7635541754
    6      C      -8.5857497426     0.8113307797     0.6753161250
    7      C      -7.2326930338     1.4291751148     0.4560995187
    8      C      -6.2497863912     0.6251899900    -0.1166364160
    9      C      -6.9227877225     2.7585395051     0.7285091657
   10      N      -5.0306254607     1.0743419964    -0.4074268918
   11      N      -7.7537963571     3.5791740006     1.3198674954
   12      C      -5.6560527429     3.2314080219     0.3079680175
   13      C      -4.6975683189     2.3556642045    -0.2042266479
   14      S      -6.9493994211     4.9968320155     1.2800011924
   15      N      -5.5310127991     4.5826303073     0.5370299039
   16      C      -3.3156441847     2.7895376770    -0.5348631512
   17      S      -2.7768190007     4.4418604721    -0.6267206598
   18      C      -2.2884827582     1.9170434120    -0.6582250637
   19      C      -1.1047668650     3.9392569788    -0.6692692677
   20      S      -2.1889611786     0.1776133797    -0.4345542835
   21      C      -1.0670466893     2.5844577708    -0.7069693264
   22      C       0.0179269546     4.8260690158    -0.6394029267
   23      C      -0.4362872594     0.3825828594    -0.4361808187
   24      C       0.0206802287     1.7169382120    -0.5689042442
   25      N       1.1383297192     4.3757457780    -1.1532653856
   26      S      -0.0775862964     6.5287225490    -0.3950647087
   27      C       2.0915534185     5.3023949836    -1.2521735696
   28      C       1.6506628203     6.5580405691    -0.8491268678
   29      C     -12.5170052732    -0.7855941956     1.3006213118
   30      H     -10.8607790984    -1.2272945100    -0.7679861159
   31      H      -8.5931666624    -0.4392486557    -1.0965840034
   32      H      -9.1254925797     2.0014233493     2.4966484246
   33      H      -6.5121367853    -0.3719918116    -0.4673994775
   34      H       0.2176545411    -0.4674633356    -0.2952603161
   35      H       1.0650282198     2.0031903885    -0.5637114744
   36      H       3.0657103820     4.9680531177    -1.5831686256
   37      H       2.2189793136     7.4756042878    -0.7691694692
   38      H     -13.1452151400    -0.0401572561     1.8033907744
   39      C     -12.5945880275    -1.9556702832     2.2128936754
   40      H     -12.8903492458    -1.0694525439     0.3098394407
   41      H     -12.2399717742    -1.7139549714     3.2217375786
   42      H     -11.8554012697    -2.6776433807     1.8439508836
   43      C     -13.9995167671    -2.5032587186     2.3039603656
   44      H     -14.6492955017    -1.7915428993     2.8294821907
   45      C     -13.9933475035    -3.8130282852     3.1781626434
   46      H     -14.3884654364    -2.7366142497     1.3049347760
   47      H     -15.0790715366    -3.9611721906     3.2284687798
   48      H     -13.5599065400    -3.6158669310     4.1672174101
   49      C     -13.3796524390    -5.0234356434     2.4636177567
   50      H     -13.9446058855    -5.1861341171     1.5374818002
   51      C     -13.4959306272    -6.2426174717     3.3410578131
   52      H     -12.3367096261    -4.8273158875     2.1901724598
   53      H     -12.7502443407    -6.2337769694     4.1476430892
   54      H     -13.4654667300    -7.1826291395     2.7782514385
   55      H     -14.4901619209    -6.2365748360     3.8035733492
   56      C       0.8425779936    -2.9096860864    -2.5774670801
   57      C       1.7725743583    -3.8639275080    -2.2012037800
   58      N       1.1200682483    -1.5848424332    -2.4788240210
   59      C       3.0540782198    -3.5240497823    -1.6921733443
   60      C       2.3461172579    -1.2518632354    -1.9133917262
   61      C       3.3334721812    -2.1879222531    -1.4672328186
   62      C       4.5867133487    -1.7868226979    -0.8743924329
   63      C       5.0420953938    -2.4293078405     0.3111880302
   64      C       5.4749125744    -0.9751754846    -1.4888734631
   65      N       6.2313395517    -2.1646160527     0.8884623069
   66      N       5.2589937208    -0.4075678950    -2.6804315493
   67      C       6.7332997635    -0.7250831239    -0.9388039279
   68      C       7.1487188541    -1.3563831260     0.2969348336
   69      S       6.6020595119     0.4798021498    -3.0608966388
   70      N       7.5362291082     0.1326745758    -1.6830419248
   71      C       8.4914981573    -1.1832319418     0.8471669758
   72      S       9.7359962146    -0.0183745880     0.3347238761
   73      C       9.0009157016    -1.9310398536     1.8923612604
   74      C      10.7936414447    -0.5034626702     1.6374675653
   75      S       8.3392287869    -3.3216520495     2.6476745380
   76      C      10.2335492140    -1.5310735909     2.3617551386
   77      C      12.0817349345     0.0689131079     1.8547579929
   78      C       9.6830734420    -3.2493881033     3.8664503439
   79      C      10.5790802004    -2.2259940368     3.5173809047
   80      N      12.6598239133    -0.1919329249     2.9681678365
   81      S      13.0590310398     0.7729865439     0.6072970037
   82      C      13.9226617694     0.2988870257     2.9786714173
   83      C      14.2641216270     1.0494872260     1.8750489706
   84      C      -0.4815204713    -3.3251124282    -3.3088173448
   85      H       1.4938781508    -4.8898483359    -2.4151754575
   86      H       3.8424785579    -4.2552665210    -1.5411800067
   87      H       2.5890527597    -0.1920097257    -1.9408485993
   88      H       4.3841137155    -3.1731255810     0.7616780744
   89      H       9.7843789628    -3.8184436451     4.7816016876
   90      H      11.4056552681    -2.0206401326     4.1861928600
   91      H      14.5582079525     0.2257399087     3.8512581170
   92      H      15.2509376791     1.4659190978     1.7229352785
   93      H      -0.5960722677    -2.7346538350    -4.2260771421
   94      C      -1.6358344303    -3.0633378347    -2.3910187033
   95      H      -0.5169852137    -4.3918671218    -3.5635204577
   96      H      -1.5526598144    -2.0241569410    -2.0495892765
   97      H      -1.5025386172    -3.7923000995    -1.5812735319
   98      C      -3.0639576839    -3.1851491654    -3.0795896672
   99      H      -3.8027545350    -2.7990717565    -2.3669625226
  100      C      -3.3019797676    -4.6338619800    -3.5007365160
  101      H      -2.9531092212    -2.5319805656    -3.9539405113
  102      H      -3.3701539612    -5.2596942417    -2.6022893781
  103      H      -2.4724234212    -5.0557223280    -4.0815558639
  104      C      -4.6229250690    -4.8513698748    -4.3429305711
  105      H      -4.5462956402    -4.4725497912    -5.3702943212
  106      C      -5.9527970898    -4.4242764235    -3.7477292672
  107      H      -4.6592445534    -5.9316590832    -4.5252383366
  108      H      -6.1245968267    -4.6312450473    -2.6829932252
  109      H      -6.6846210650    -5.0486277210    -4.2775397300
  110      H      -6.0679633152    -3.3400964802    -3.8694855442
 ----------------------------------------------------------------

   10   -5663.5271581432      6.83E-06 Convergence criterion met
 Total energy in the final basis set = -5663.5271581432

                    Orbital Energies (a.u.)
 --------------------------------------------------------------

 Alpha MOs
 -- Occupied --
-88.987 -88.985 -88.929 -88.929 -88.925 -88.916 -88.911 -88.904
-14.393 -14.391 -14.382 -14.381 -14.351 -14.343 -14.341 -14.335
-14.330 -14.325 -10.270 -10.267 -10.260 -10.257 -10.257 -10.252
-10.250 -10.249 -10.244 -10.244 -10.241 -10.233 -10.232 -10.232
-10.231 -10.230 -10.229 -10.229 -10.229 -10.227 -10.227 -10.225
-10.223 -10.222 -10.216 -10.215 -10.214 -10.213 -10.212 -10.212
-10.211 -10.206 -10.206 -10.198 -10.195 -10.192 -10.192 -10.183
-10.182 -10.177 -10.177 -10.176 -10.176 -10.176 -10.175 -10.175
-10.172 -10.171 -10.170 -10.169  -8.042  -8.040  -7.991  -7.988
 -7.986  -7.976  -7.971  -7.963  -6.007  -6.005  -6.002  -6.000
 -6.000  -5.998  -5.955  -5.953  -5.951  -5.950  -5.949  -5.948
 -5.947  -5.945  -5.944  -5.940  -5.936  -5.935  -5.932  -5.932
 -5.928  -5.927  -5.924  -5.920  -1.040  -1.022  -0.989  -0.975
 -0.960  -0.955  -0.929  -0.922  -0.920  -0.914  -0.908  -0.896
 -0.846  -0.840  -0.837  -0.830  -0.813  -0.810  -0.807  -0.806
 -0.803  -0.799  -0.799  -0.794  -0.785  -0.777  -0.768  -0.768
 -0.753  -0.749  -0.742  -0.737  -0.727  -0.718  -0.710  -0.708
 -0.696  -0.689  -0.676  -0.672  -0.654  -0.654  -0.646  -0.642
 -0.639  -0.632  -0.629  -0.620  -0.616  -0.608  -0.597  -0.597
 -0.595  -0.590  -0.583  -0.579  -0.577  -0.572  -0.562  -0.554
 -0.553  -0.549  -0.541  -0.539  -0.524  -0.519  -0.510  -0.508
 -0.507  -0.500  -0.500  -0.496  -0.489  -0.486  -0.478  -0.477
 -0.472  -0.471  -0.467  -0.465  -0.465  -0.452  -0.450  -0.449
 -0.446  -0.446  -0.445  -0.441  -0.438  -0.435  -0.435  -0.429
 -0.427  -0.424  -0.420  -0.419  -0.418  -0.417  -0.415  -0.412
 -0.411  -0.410  -0.408  -0.406  -0.404  -0.396  -0.395  -0.393
 -0.393  -0.392  -0.390  -0.389  -0.387  -0.387  -0.384  -0.383
 -0.380  -0.379  -0.375  -0.374  -0.366  -0.361  -0.358  -0.355
 -0.354  -0.352  -0.350  -0.348  -0.346  -0.342  -0.341  -0.338
 -0.337  -0.334  -0.334  -0.331  -0.329  -0.328  -0.326  -0.318
 -0.315  -0.310  -0.309  -0.308  -0.303  -0.302  -0.299  -0.297
 -0.293  -0.292  -0.290  -0.289  -0.286  -0.281  -0.280  -0.273
 -0.272  -0.267  -0.264  -0.262  -0.257  -0.252  -0.249  -0.247
 -0.242  -0.240  -0.236  -0.223  -0.197  -0.185

          Ground-State Mulliken Net Atomic Charges

     Atom                 Charge (a.u.)
  ----------------------------------------
      1 C                     0.286848
      2 C                    -0.122018
      3 N                    -0.504542
      4 C                    -0.070611
      5 C                     0.070440
      6 C                     0.030072
      7 C                     0.023855
      8 C                     0.058254
      9 C                     0.256051
     10 N                    -0.531863
     11 N                    -0.556857
     12 C                     0.196674
     13 C                     0.316192
     14 S                     0.595463
     15 N                    -0.558410
     16 C                    -0.220522
     17 S                     0.310615
     18 C                    -0.101577
     19 C                    -0.219171
     20 S                     0.288414
     21 C                     0.157271
     22 C                     0.048939
     23 C                    -0.296210
     24 C                    -0.058423
     25 N                    -0.417863
     26 S                     0.264262
     27 C                     0.143730
     28 C                    -0.328140
     29 C                    -0.222025
     30 H                     0.083501
     31 H                     0.097788
     32 H                     0.127387
     33 H                     0.108286
     34 H                     0.123466
     35 H                     0.117261
     36 H                     0.115865
     37 H                     0.128082
     38 H                     0.112308
     39 C                    -0.162578
     40 H                     0.094078
     41 H                     0.105279
     42 H                     0.087977
     43 C                    -0.180625
     44 H                     0.094329
     45 C                    -0.177763
     46 H                     0.087973
     47 H                     0.088723
     48 H                     0.093739
     49 C                    -0.166811
     50 H                     0.090508
     51 C                    -0.314349
     52 H                     0.096743
     53 H                     0.103856
     54 H                     0.096380
     55 H                     0.101014
     56 C                     0.272695
     57 C                    -0.127312
     58 N                    -0.479093
     59 C                    -0.074755
     60 C                     0.061450
     61 C                     0.041335
     62 C                    -0.010516
     63 C                     0.071787
     64 C                     0.287584
     65 N                    -0.543470
     66 N                    -0.561971
     67 C                     0.184434
     68 C                     0.323566
     69 S                     0.593046
     70 N                    -0.579072
     71 C                    -0.204508
     72 S                     0.333290
     73 C                    -0.130144
     74 C                    -0.255323
     75 S                     0.281750
     76 C                     0.208709
     77 C                     0.081535
     78 C                    -0.312677
     79 C                    -0.067975
     80 N                    -0.424299
     81 S                     0.261441
     82 C                     0.114868
     83 C                    -0.297956
     84 C                    -0.210214
     85 H                     0.085694
     86 H                     0.106774
     87 H                     0.120512
     88 H                     0.118008
     89 H                     0.128768
     90 H                     0.126308
     91 H                     0.114189
     92 H                     0.129476
     93 H                     0.115235
     94 C                    -0.198728
     95 H                     0.095218
     96 H                     0.127778
     97 H                     0.081753
     98 C                    -0.173242
     99 H                     0.102315
    100 C                    -0.173503
    101 H                     0.095784
    102 H                     0.090292
    103 H                     0.089922
    104 C                    -0.186234
    105 H                     0.093357
    106 C                    -0.311771
    107 H                     0.084347
    108 H                     0.098990
    109 H                     0.102319
    110 H                     0.106969
  ----------------------------------------
  Sum of atomic charges =     0.000000

                    Cartesian Multipole Moments
 -----------------------------------------------------------------
    Charge (ESU x 10^10)
                 0.0000
    Dipole Moment (Debye)
         X       4.3226      Y      -1.1872      Z      -0.5454
       Tot       4.5157
    Quadrupole Moments (Debye-Ang)
        XX    -375.2665     XY      25.4271     YY    -416.4453
        XZ      18.1579     YZ       1.3373     ZZ    -446.6145

 Total job time:  91.41s(wall), 1079.26s(cpu)
        *  Thank you very much for using Q-Chem.  Have a nice day.  *
