 Q-Chem 4.4, Q-Chem, Inc., Pleasanton, CA (2016)
 Q-Chem 4.4.2 for Intel X86 Linux

User input:
--------------------------------------------------------------
$comment
SP
$end

$rem
MEM_STATIC 5000
MEM_TOTAL 20000
JOBTYPE SP
EXCHANGE B3LYP
BASIS 6-31g(d,p)
$end

$molecule
0 1
C           1.814000     11.158000     -2.459000
C           3.060000     11.032000     -1.745000
N           0.982000     10.064000     -2.636000
C           3.540000      9.740000     -1.334000
C           1.439000      8.889000     -2.181000
C           2.701000      8.629000     -1.605000
C           3.150000      7.289000     -1.063000
C           4.513000      6.986000     -0.983000
C           2.230000      6.357000     -0.553000
N           4.993000      5.855000     -0.553000
N           0.915000      6.511000     -0.563000
C           2.715000      5.153000     -0.081000
C           4.138000      4.944000     -0.094000
S           0.318000      5.155000      0.096000
N           1.747000      4.285000      0.267000
C           4.682000      3.600000      0.308000
S           3.772000      2.112000      0.597000
C           6.013000      3.341000      0.434000
C           5.166000      1.313000      1.250000
S           7.310000      4.479000      0.520000
C           6.224000      2.132000      1.125000
C           4.996000      0.085000      2.014000
C           8.222000      3.202000      1.333000
C           7.538000      2.027000      1.645000
N           3.776000     -0.325000      2.325000
S           6.242000     -0.956000      2.670000
C           3.729000     -1.369000      3.249000
C           4.974000     -1.657000      3.644000
C           1.403000     12.415000     -3.158000
H           3.749000     11.848000     -1.547000
H           4.534000      9.635000     -0.908000
H           0.605000      8.196000     -2.278000
H           5.254000      7.583000     -1.514000
H           9.258000      3.397000      1.579000
H           8.086000      1.174000      2.030000
H           2.832000     -1.769000      3.704000
H           5.285000     -2.421000      4.344000
H           0.411000     12.459000     -3.626000
C           2.415000     12.869000     -4.258000
H           1.398000     13.245000     -2.442000
H           3.427000     13.102000     -3.901000
H           2.048000     13.840000     -4.612000
C           2.576000     11.826000     -5.406000
H           3.175000     11.022000     -4.963000
C           3.234000     12.533000     -6.647000
H           1.598000     11.415000     -5.688000
H           4.050000     13.178000     -6.300000
H           2.489000     13.254000     -7.004000
C           3.576000     11.601000     -7.813000
H           4.023000     10.627000     -7.577000
C           4.278000     12.433000     -8.875000
H           2.616000     11.329000     -8.268000
H           4.365000     11.850000     -9.800000
H           5.279000     12.794000     -8.606000
H           3.692000     13.326000     -9.122000
C           6.160000     14.959000      6.899000
C           5.638000     13.727000      6.543000
N           6.822000     15.726000      5.996000
C           5.763000     13.193000      5.233000
C           7.007000     15.172000      4.734000
C           6.529000     13.889000      4.315000
C           6.761000     13.356000      2.994000
C           7.199000     12.010000      2.845000
C           6.387000     13.988000      1.860000
N           7.371000     11.414000      1.648000
N           5.822000     15.200000      1.839000
C           6.506000     13.374000      0.612000
C           7.003000     12.019000      0.489000
S           5.511000     15.578000      0.259000
N           6.084000     14.149000     -0.463000
C           7.053000     11.321000     -0.794000
S           6.816000     12.010000     -2.418000
C           7.308000      9.969000     -0.929000
C           7.216000     10.487000     -3.174000
S           7.415000      8.764000      0.287000
C           7.450000      9.519000     -2.224000
C           7.230000     10.294000     -4.587000
C           7.936000      7.581000     -0.988000
C           7.876000      8.194000     -2.250000
N           7.765000      9.216000     -5.027000
S           6.274000     11.211000     -5.706000
C           7.584000      9.103000     -6.365000
C           6.987000     10.190000     -6.965000
C           5.837000     15.593000      8.297000
H           5.040000     13.241000      7.306000
H           5.229000     12.307000      4.903000
H           7.446000     15.844000      4.000000
H           7.399000     11.445000      3.756000
H           8.324000      6.580000     -0.850000
H           8.216000      7.629000     -3.109000
H           8.007000      8.285000     -6.933000
H           6.737000     10.224000     -8.017000
H           5.463000     16.615000      8.160000
C           7.094000     15.619000      9.111000
H           5.101000     15.017000      8.872000
H           7.867000     16.105000      8.503000
H           7.306000     14.560000      9.307000
C           6.992000     16.469000     10.451000
H           8.007000     16.561000     10.856000
C           6.000000     15.801000     11.401000
H           6.605000     17.428000     10.085000
H           6.405000     14.831000     11.715000
H           5.038000     15.570000     10.927000
C           5.691000     16.641000     12.705000
H           5.055000     17.515000     12.514000
C           6.842000     17.045000     13.609000
H           5.005000     16.011000     13.283000
H           7.629000     16.302000     13.795000
H           6.362000     17.197000     14.585000
H           7.345000     17.920000     13.179000
$end

--------------------------------------------------------------

             Standard Nuclear Orientation (Angstroms)
    I     Atom           X                Y                Z
 ----------------------------------------------------------------
    1      C      -0.4112542762    -3.7251734914    -3.2299351554
    2      C       0.0164885900    -2.9882264967    -2.0671225447
    3      N      -1.5187887391    -3.3227824899    -3.9592073235
    4      C      -0.7832792077    -1.9109900782    -1.5489351573
    5      C      -2.1999992736    -2.2740737134    -3.4768577513
    6      C      -1.9563989401    -1.5782321611    -2.2733281872
    7      C      -2.7294608661    -0.3671038676    -1.7973990798
    8      C      -2.7764784502    -0.0562912494    -0.4346214518
    9      C      -3.3427798060     0.5155628901    -2.7028620955
   10      N      -3.4316710579     0.9488013146     0.0703266491
   11      N      -3.3767168696     0.3474402780    -4.0157307344
   12      C      -4.0357021592     1.5959359628    -2.1926879721
   13      C      -4.0471343147     1.7811200037    -0.7663797386
   14      S      -4.2251372038     1.6049341439    -4.5887212349
   15      N      -4.6884860491     2.3055270618    -3.1317862978
   16      C      -4.8874928515     2.8829440109    -0.1801567547
   17      S      -6.0824772414     3.8855249364    -1.0123879700
   18      C      -4.8768711566     3.2062902249     1.1426631141
   19      C      -6.2314892204     4.9479379425     0.3503739442
   20      S      -3.7260249757     2.7305529457     2.3401087743
   21      C      -5.4888941990     4.4565935243     1.3567949778
   22      C      -6.8656101125     6.2477118121     0.1799081638
   23      C      -4.2454387672     4.1602353425     3.2399196197
   24      C      -5.1398569873     5.0239076183     2.6075342566
   25      N      -7.1861940280     6.6615302866    -1.0363160027
   26      S      -7.2326363077     7.4364216175     1.4123016767
   27      C      -7.5660103979     8.0014425970    -1.1156603500
   28      C      -7.4451666208     8.5604130212     0.0934479356
   29      C       0.2126325227    -5.0198954960    -3.6447015871
   30      H       0.8862461316    -3.2293161938    -1.4628224730
   31      H      -0.5230273348    -1.4405924106    -0.6047254364
   32      H      -2.9301046650    -2.0241878988    -4.2447882151
   33      H      -2.4753949944    -0.7836502871     0.3188694791
   34      H      -3.8266410220     4.3186765987     4.2254863688
   35      H      -5.5791407277     5.8433394648     3.1658345740
   36      H      -7.7622106079     8.5486513758    -2.0287332003
   37      H      -7.6690498143     9.5807086546     0.3750329779
   38      H      -0.1208769756    -5.4919159612    -4.5779711596
   39      C       0.1206868433    -6.1288261576    -2.5483080538
   40      H       1.2898096291    -4.8758072562    -3.7879114358
   41      H       0.6280359031    -5.8998126583    -1.6017185184
   42      H       0.6967366589    -6.9764671309    -2.9388428031
   43      C      -1.3479786818    -6.5083828700    -2.1868771786
   44      H      -1.7090817999    -5.6643560078    -1.5879705131
   45      C      -1.3469227276    -7.8937568309    -1.4428127505
   46      H      -1.9594657424    -6.5754804120    -3.0960034045
   47      H      -0.5245485854    -7.9095951053    -0.7177335002
   48      H      -1.0262631616    -8.6289590458    -2.1904558111
   49      C      -2.7110207950    -8.3386288028    -0.9075843964
   50      H      -3.3434906130    -7.5833228867    -0.4241840423
   51      C      -2.5041121818    -9.6402786867    -0.1487903494
   52      H      -3.2974184843    -8.6251988060    -1.7888473442
   53      H      -3.4777933619   -10.0892757815     0.0823580195
   54      H      -1.9385957427    -9.5553848662     0.7880485889
   55      H      -1.9617570695   -10.3684814404    -0.7631401533
   56      C       8.3134736322     2.2640254741    -0.2439512847
   57      C       7.0315218847     2.6101454972    -0.6361816337
   58      N       8.5468877347     1.1284340140     0.4616632649
   59      C       5.8961789025     1.8149293505    -0.3271369885
   60      C       7.4278406372     0.3876975620     0.8261191635
   61      C       6.0746971412     0.7115992534     0.4881481980
   62      C       4.9470524981    -0.0872027449     0.9044256611
   63      C       3.7959808597     0.5493358944     1.4481292971
   64      C       4.8198075739    -1.4015058981     0.6186426127
   65      N       2.6752952970    -0.1148883392     1.7952302003
   66      N       5.7524430916    -2.1141006324    -0.0224577974
   67      C       3.6503374097    -2.1015396811     0.9202271579
   68      C       2.5127879542    -1.4349703637     1.5200851255
   69      S       5.1808560118    -3.6584986103    -0.1777900102
   70      N       3.6684291892    -3.4474906069     0.5703374714
   71      C       1.2461512050    -2.1222864424     1.7630274100
   72      S       0.9192661906    -3.8692054261     1.6646086527
   73      C       0.0757445043    -1.4812905630     2.1241734157
   74      C      -0.7105567494    -3.6451549578     2.2515869930
   75      S      -0.2629655075     0.1994154396     2.1754848249
   76      C      -0.9794010872    -2.3089204350     2.4425844330
   77      C      -1.6299961759    -4.7192120489     2.4387941138
   78      C      -1.8737742278    -0.1890061227     2.9177643925
   79      C      -2.0482198223    -1.5818018709     2.9590165246
   80      N      -2.7023634051    -4.4667004235     3.0931452464
   81      S      -1.5808566877    -6.2102396697     1.5548212949
   82      C      -3.5379920407    -5.5330473354     3.0730692168
   83      C      -3.0249357611    -6.6628226196     2.4744382278
   84      C       9.5559518385     3.0667054856    -0.7661023223
   85      H       6.9649418922     3.4788465762    -1.2818553438
   86      H       4.9155174720     1.9929272093    -0.7580336364
   87      H       7.6462454788    -0.5675993287     1.2981024002
   88      H       3.8384022456     1.6307241716     1.5820913065
   89      H      -2.5885371491     0.4958033549     3.3556444511
   90      H      -2.9411586818    -1.9709638879     3.4322174521
   91      H      -4.4756174545    -5.5360370257     3.6130012913
   92      H      -3.5922947849    -7.5745830573     2.3434548610
   93      H      10.2904494825     2.3720557052    -1.1916653536
   94      C      10.1656431550     3.8047255917     0.3858194727
   95      H       9.2966577832     3.8196276573    -1.5210670872
   96      H      10.3365006903     3.0755643218     1.1873932654
   97      H       9.4126546951     4.5595781779     0.6466775803
   98      C      11.5835735569     4.4535731282     0.0744125849
   99      H      11.9994351274     4.7999387526     1.0282490533
  100      C      11.4186393954     5.5553384210    -0.9704309258
  101      H      12.1407656081     3.6013184486    -0.3337601471
  102      H      10.8264470424     6.3712021537    -0.5377698728
  103      H      10.8559973681     5.2303675631    -1.8543477152
  104      C      12.7841350221     6.1676822478    -1.4822450827
  105      H      13.3347846495     5.4937731544    -2.1511879215
  106      C      13.7450184285     6.7681470824    -0.4716125769
  107      H      12.4873637727     6.9555051042    -2.1842721281
  108      H      13.3190356469     7.3749427705     0.3385427556
  109      H      14.3395190913     7.4727799782    -1.0683884511
  110      H      14.3039936176     5.9595032595     0.0153945130
 ----------------------------------------------------------------

   10   -5663.5056810646      3.62E-06 Convergence criterion met
 Total energy in the final basis set = -5663.5056810646

                    Orbital Energies (a.u.)
 --------------------------------------------------------------

 Alpha MOs
 -- Occupied --
-88.990 -88.986 -88.933 -88.929 -88.923 -88.914 -88.913 -88.913
-14.396 -14.386 -14.383 -14.380 -14.354 -14.349 -14.341 -14.337
-14.335 -14.325 -10.273 -10.269 -10.267 -10.262 -10.260 -10.251
-10.250 -10.247 -10.247 -10.246 -10.244 -10.235 -10.232 -10.232
-10.232 -10.231 -10.231 -10.230 -10.229 -10.228 -10.228 -10.227
-10.225 -10.223 -10.222 -10.219 -10.216 -10.216 -10.213 -10.212
-10.212 -10.210 -10.209 -10.206 -10.203 -10.201 -10.198 -10.197
-10.185 -10.185 -10.181 -10.181 -10.179 -10.179 -10.178 -10.177
-10.176 -10.175 -10.174 -10.171  -8.045  -8.041  -7.992  -7.990
 -7.984  -7.973  -7.973  -7.972  -6.010  -6.007  -6.004  -6.002
 -6.001  -5.999  -5.956  -5.954  -5.952  -5.951  -5.948  -5.948
 -5.947  -5.945  -5.941  -5.938  -5.937  -5.937  -5.934  -5.934
 -5.933  -5.930  -5.929  -5.929  -1.038  -1.025  -0.989  -0.972
 -0.964  -0.957  -0.928  -0.925  -0.924  -0.919  -0.904  -0.899
 -0.849  -0.845  -0.842  -0.831  -0.811  -0.809  -0.807  -0.805
 -0.803  -0.800  -0.797  -0.793  -0.783  -0.778  -0.769  -0.763
 -0.754  -0.752  -0.743  -0.740  -0.730  -0.720  -0.712  -0.709
 -0.698  -0.695  -0.680  -0.677  -0.655  -0.653  -0.647  -0.641
 -0.639  -0.633  -0.630  -0.618  -0.615  -0.610  -0.598  -0.597
 -0.596  -0.591  -0.584  -0.583  -0.579  -0.578  -0.569  -0.556
 -0.555  -0.547  -0.543  -0.543  -0.526  -0.522  -0.516  -0.511
 -0.507  -0.502  -0.501  -0.496  -0.490  -0.484  -0.480  -0.476
 -0.473  -0.473  -0.467  -0.465  -0.462  -0.452  -0.451  -0.450
 -0.448  -0.446  -0.442  -0.441  -0.439  -0.438  -0.436  -0.433
 -0.429  -0.428  -0.423  -0.421  -0.420  -0.418  -0.417  -0.413
 -0.412  -0.410  -0.408  -0.405  -0.402  -0.399  -0.398  -0.397
 -0.395  -0.394  -0.393  -0.392  -0.391  -0.389  -0.387  -0.382
 -0.380  -0.377  -0.375  -0.369  -0.366  -0.364  -0.362  -0.358
 -0.357  -0.354  -0.351  -0.349  -0.348  -0.347  -0.344  -0.340
 -0.338  -0.336  -0.334  -0.331  -0.329  -0.328  -0.320  -0.319
 -0.318  -0.312  -0.311  -0.310  -0.305  -0.303  -0.301  -0.300
 -0.297  -0.292  -0.290  -0.286  -0.284  -0.281  -0.280  -0.277
 -0.273  -0.269  -0.266  -0.260  -0.259  -0.257  -0.253  -0.250
 -0.250  -0.239  -0.237  -0.227  -0.199  -0.194

          Ground-State Mulliken Net Atomic Charges

     Atom                 Charge (a.u.)
  ----------------------------------------
      1 C                     0.271507
      2 C                    -0.139232
      3 N                    -0.483617
      4 C                    -0.077889
      5 C                     0.073204
      6 C                     0.034282
      7 C                     0.025459
      8 C                     0.060740
      9 C                     0.254948
     10 N                    -0.520096
     11 N                    -0.553150
     12 C                     0.234020
     13 C                     0.299702
     14 S                     0.597023
     15 N                    -0.576976
     16 C                    -0.204740
     17 S                     0.353514
     18 C                    -0.144936
     19 C                    -0.240529
     20 S                     0.298331
     21 C                     0.138506
     22 C                     0.080187
     23 C                    -0.318677
     24 C                    -0.065944
     25 N                    -0.445890
     26 S                     0.247217
     27 C                     0.130822
     28 C                    -0.297709
     29 C                    -0.232307
     30 H                     0.100245
     31 H                     0.117575
     32 H                     0.121072
     33 H                     0.116201
     34 H                     0.120175
     35 H                     0.119177
     36 H                     0.126131
     37 H                     0.122674
     38 H                     0.119728
     39 C                    -0.197047
     40 H                     0.102594
     41 H                     0.099700
     42 H                     0.087479
     43 C                    -0.177626
     44 H                     0.107678
     45 C                    -0.175330
     46 H                     0.099372
     47 H                     0.093777
     48 H                     0.093029
     49 C                    -0.183992
     50 H                     0.098511
     51 C                    -0.323690
     52 H                     0.099300
     53 H                     0.093239
     54 H                     0.101572
     55 H                     0.106757
     56 C                     0.279526
     57 C                    -0.127695
     58 N                    -0.489035
     59 C                    -0.072696
     60 C                     0.076242
     61 C                     0.037529
     62 C                    -0.010152
     63 C                     0.072177
     64 C                     0.289066
     65 N                    -0.541628
     66 N                    -0.560509
     67 C                     0.184977
     68 C                     0.324060
     69 S                     0.595344
     70 N                    -0.585527
     71 C                    -0.208769
     72 S                     0.328513
     73 C                    -0.146527
     74 C                    -0.250919
     75 S                     0.276377
     76 C                     0.211896
     77 C                     0.067883
     78 C                    -0.290311
     79 C                    -0.085330
     80 N                    -0.427028
     81 S                     0.290869
     82 C                     0.114566
     83 C                    -0.308312
     84 C                    -0.212922
     85 H                     0.084982
     86 H                     0.106746
     87 H                     0.113192
     88 H                     0.119938
     89 H                     0.136040
     90 H                     0.129869
     91 H                     0.115262
     92 H                     0.135491
     93 H                     0.113735
     94 C                    -0.183489
     95 H                     0.096435
     96 H                     0.111520
     97 H                     0.086049
     98 C                    -0.174015
     99 H                     0.097451
    100 C                    -0.173742
    101 H                     0.093943
    102 H                     0.091312
    103 H                     0.090750
    104 C                    -0.186640
    105 H                     0.093087
    106 C                    -0.311705
    107 H                     0.084986
    108 H                     0.100129
    109 H                     0.103201
    110 H                     0.107737
  ----------------------------------------
  Sum of atomic charges =     0.000000

                    Cartesian Multipole Moments
 -----------------------------------------------------------------
    Charge (ESU x 10^10)
                 0.0000
    Dipole Moment (Debye)
         X      -1.3025      Y       0.7843      Z       1.0697
       Tot       1.8590
    Quadrupole Moments (Debye-Ang)
        XX    -451.7049     XY      -2.7779     YY    -388.8868
        XZ     -20.1836     YZ      -1.5649     ZZ    -446.6177

 Total job time:  96.69s(wall), 1159.45s(cpu)
        *  Thank you very much for using Q-Chem.  Have a nice day.  *
