 Q-Chem 4.4, Q-Chem, Inc., Pleasanton, CA (2016)
 Q-Chem 4.4.2 for Intel X86 Linux

User input:
--------------------------------------------------------------
$comment
SP
$end

$rem
MEM_STATIC 5000
MEM_TOTAL 20000
JOBTYPE SP
EXCHANGE B3LYP
BASIS 6-31g(d,p)
$end

$molecule
0 1
C          10.789000     11.407000      8.300000
C          11.740000     10.784000      7.510000
N           9.908000     12.365000      7.844000
C          11.666000     11.001000      6.180000
C           9.948000     12.683000      6.552000
C          10.763000     11.956000      5.639000
C          10.732000     12.197000      4.238000
C          10.674000     13.533000      3.799000
C          10.628000     11.174000      3.161000
N          10.506000     13.858000      2.464000
N          10.545000      9.845000      3.441000
C          10.516000     11.529000      1.819000
C          10.450000     12.928000      1.480000
S          10.423000      9.161000      1.944000
N          10.435000     10.488000      0.967000
C          10.235000     13.378000      0.094000
S          10.309000     12.389000     -1.398000
C           9.839000     14.630000     -0.303000
C           9.909000     13.725000     -2.454000
S           9.329000     15.994000      0.682000
C           9.563000     14.823000     -1.664000
C           9.833000     13.714000     -3.849000
C           8.860000     16.818000     -0.766000
C           9.016000     16.123000     -1.934000
N           9.586000     12.530000     -4.307000
S          10.553000     14.914000     -4.924000
C          10.030000     12.480000     -5.582000
C          10.679000     13.619000     -6.049000
C          10.666000     11.165000      9.757000
H          12.362000      9.960000      7.846000
H          12.410000     10.581000      5.509000
H           9.184000     13.419000      6.306000
H          10.593000     14.350000      4.515000
H           8.228000     17.690000     -0.664000
H           8.775000     16.446000     -2.940000
H          10.002000     11.556000     -6.142000
H          11.124000     13.796000     -7.021000
H           9.784000     11.670000     10.168000
C          11.953000     11.438000     10.580000
H          10.360000     10.132000      9.964000
H          12.868000     10.944000     10.231000
H          11.817000     10.835000     11.488000
C          12.169000     12.972000     10.856000
H          13.227000     13.038000     11.139000
C          11.374000     13.454000     12.083000
H          12.039000     13.587000      9.958000
H          11.577000     12.770000     12.917000
H          10.309000     13.466000     11.821000
C          11.852000     14.881000     12.410000
H          12.912000     14.937000     12.688000
C          11.075000     15.535000     13.663000
H          11.738000     15.575000     11.569000
H           9.992000     15.364000     13.694000
H          11.143000     16.630000     13.660000
H          11.560000     15.196000     14.587000
C           6.160000     14.959000      6.899000
C           5.638000     13.727000      6.543000
N           6.822000     15.726000      5.996000
C           5.763000     13.193000      5.233000
C           7.007000     15.172000      4.734000
C           6.529000     13.889000      4.315000
C           6.761000     13.356000      2.994000
C           7.199000     12.010000      2.845000
C           6.387000     13.988000      1.860000
N           7.371000     11.414000      1.648000
N           5.822000     15.200000      1.839000
C           6.506000     13.374000      0.612000
C           7.003000     12.019000      0.489000
S           5.511000     15.578000      0.259000
N           6.084000     14.149000     -0.463000
C           7.053000     11.321000     -0.794000
S           6.816000     12.010000     -2.418000
C           7.308000      9.969000     -0.929000
C           7.216000     10.487000     -3.174000
S           7.415000      8.764000      0.287000
C           7.450000      9.519000     -2.224000
C           7.230000     10.294000     -4.587000
C           7.936000      7.581000     -0.988000
C           7.876000      8.194000     -2.250000
N           7.765000      9.216000     -5.027000
S           6.274000     11.211000     -5.706000
C           7.584000      9.103000     -6.365000
C           6.987000     10.190000     -6.965000
C           5.837000     15.593000      8.297000
H           5.040000     13.241000      7.306000
H           5.229000     12.307000      4.903000
H           7.446000     15.844000      4.000000
H           7.399000     11.445000      3.756000
H           8.324000      6.580000     -0.850000
H           8.216000      7.629000     -3.109000
H           8.007000      8.285000     -6.933000
H           6.737000     10.224000     -8.017000
H           5.463000     16.615000      8.160000
C           7.094000     15.619000      9.111000
H           5.101000     15.017000      8.872000
H           7.867000     16.105000      8.503000
H           7.306000     14.560000      9.307000
C           6.992000     16.469000     10.451000
H           8.007000     16.561000     10.856000
C           6.000000     15.801000     11.401000
H           6.605000     17.428000     10.085000
H           6.405000     14.831000     11.715000
H           5.038000     15.570000     10.927000
C           5.691000     16.641000     12.705000
H           5.055000     17.515000     12.514000
C           6.842000     17.045000     13.609000
H           5.005000     16.011000     13.283000
H           7.629000     16.302000     13.795000
H           6.362000     17.197000     14.585000
H           7.345000     17.920000     13.179000
$end

--------------------------------------------------------------

             Standard Nuclear Orientation (Angstroms)
    I     Atom           X                Y                Z
 ----------------------------------------------------------------
    1      C       5.7332199442     3.1526541551     0.1398747615
    2      C       4.8916121500     4.1026713445     0.6928608922
    3      N       5.4163490515     1.8168068649     0.0096217209
    4      C       3.6217878752     3.7209243983     0.9444172085
    5      C       4.2080798670     1.4221582873     0.4050026484
    6      C       3.2198026846     2.3646162636     0.8067540316
    7      C       1.8868355269     1.9790192001     1.1171674030
    8      C       1.6974251688     0.8044139272     1.8691030180
    9      C       0.6369304311     2.6209731529     0.6243120754
   10      N       0.4377100950     0.2807782243     2.1036186541
   11      N       0.6643904931     3.6903838209    -0.2166021700
   12      C      -0.6213368134     2.1038242444     0.9223951976
   13      C      -0.7014394977     0.8856408116     1.6879607951
   14      S      -0.9367345873     3.9945915093    -0.4766120912
   15      N      -1.6524677751     2.8010707286     0.4059048491
   16      C      -1.9907222048     0.2273007853     1.9600995665
   17      S      -3.6328605514     0.8916826824     1.6924442929
   18      C      -2.1713493158    -1.0655306210     2.3818694111
   19      C      -4.4453259327    -0.5526132152     2.2527489996
   20      S      -0.9803788412    -2.3448044955     2.5712597030
   21      C      -3.4862086931    -1.5461465740     2.4586751651
   22      C      -5.8208005129    -0.7578089620     2.3864889889
   23      C      -2.2749124559    -3.4594003454     2.8496475832
   24      C      -3.5409900652    -2.9481671641     2.7643649850
   25      N      -6.4996605834     0.0099996843     1.5976620830
   26      S      -6.6202237270    -1.4582259792     3.7951633752
   27      C      -7.7381830823     0.1463112527     2.1199093195
   28      C      -7.9554198672    -0.4701759952     3.3484705319
   29      C       7.1132042708     3.4585546250    -0.3057822375
   30      H       5.1021064936     5.1677414177     0.7014556879
   31      H       2.9237121909     4.4027852870     1.4218405714
   32      H       4.0626664864     0.3592108207     0.2181721583
   33      H       2.5458454773     0.1809757366     2.1487703249
   34      H      -2.0470948113    -4.5155292098     2.7957686200
   35      H      -4.4817449948    -3.4712565793     2.8900774593
   36      H      -8.4585334333     0.8141587157     1.6690932396
   37      H      -8.8548554759    -0.4809891037     3.9526531718
   38      H       7.5645953571     2.5973047069    -0.8121069018
   39      C       8.0362270075     4.0673788976     0.7830653335
   40      H       7.1119031908     4.1514632570    -1.1563408392
   41      H       7.6493887097     4.9459967536     1.3135828115
   42      H       8.8104669575     4.5925481552     0.2074623882
   43      C       8.5988937751     2.9746706125     1.7656042449
   44      H       8.9422820331     3.5559141415     2.6305027733
   45      C       9.8516256233     2.2815556438     1.1998016674
   46      H       7.8232283856     2.2900327333     2.1277412050
   47      H      10.5555143896     3.0559508320     0.8689335714
   48      H       9.5427782976     1.6354015045     0.3690723747
   49      C      10.4580177331     1.4308815963     2.3313423314
   50      H      10.7947676653     2.0207896412     3.1931009877
   51      C      11.7686679070     0.6111115074     1.8713128510
   52      H       9.7535834725     0.6979823163     2.7418834594
   53      H      11.7130854191     0.1396800444     0.8824984282
   54      H      11.9695806039    -0.2423078631     2.5308334847
   55      H      12.6383144392     1.2756168220     1.9492204621
   56      C       4.7739600693    -2.5378320806    -1.5049148583
   57      C       4.1725640531    -1.8744623369    -2.5609960176
   58      N       4.0612234377    -2.8974873954    -0.4073737208
   59      C       2.7949719876    -1.5293262768    -2.5624796159
   60      C       2.7301290033    -2.4961379693    -0.3775199964
   61      C       2.0597675307    -1.7739993490    -1.4163969425
   62      C       0.6769649031    -1.3703164433    -1.3277910468
   63      C       0.3064420978    -0.0440544824    -1.6876563855
   64      C      -0.3396237863    -2.2361724033    -1.1226157725
   65      N      -0.9691791309     0.3920878567    -1.7010482001
   66      N      -0.1669516029    -3.5462211979    -0.9162993338
   67      C      -1.6712896821    -1.8216970427    -1.1820894419
   68      C      -2.0149517684    -0.4514434217    -1.5021900270
   69      S      -1.6647338863    -4.2241869145    -0.7345970537
   70      N      -2.6062031104    -2.8239953136    -0.9461465297
   71      C      -3.3998420815    -0.0120091882    -1.6595729200
   72      S      -4.8801613539    -0.9066234572    -1.2393513576
   73      C      -3.7669640509     1.2170241716    -2.1751817447
   74      C      -5.8809582355     0.4677847734    -1.6399416940
   75      S      -2.7882361529     2.4080237036    -2.9273398506
   76      C      -5.1135951989     1.5052454803    -2.1185952761
   77      C      -7.3028702134     0.4596448878    -1.5298777619
   78      C      -4.2302457936     3.5105995999    -2.9659350445
   79      C      -5.3601182983     2.8226792771    -2.4945893619
   80      N      -7.9051447867     1.5870389172    -1.6201940997
   81      S      -8.2819732169    -0.9666567126    -1.6482291596
   82      C      -9.2486310605     1.4123128373    -1.6372067145
   83      C      -9.6689214183     0.1149050842    -1.4420987000
   84      C       6.2462504384    -3.0659481754    -1.6238411358
   85      H       4.8025139084    -1.7244710032    -3.4308435787
   86      H       2.2818264516    -1.1513173033    -3.4415944404
   87      H       2.1546622673    -2.8842429196     0.4599007958
   88      H       1.1075595097     0.6411800511    -1.9666017681
   89      H      -4.2583694282     4.5627540982    -3.2184602373
   90      H      -6.2897262199     3.3703389970    -2.4018319183
   91      H      -9.9346470183     2.2487549013    -1.6577926119
   92      H     -10.7081910769    -0.1836044268    -1.4763134429
   93      H       6.2799069609    -4.1271365568    -1.3483861348
   94      C       7.1137117035    -2.2741223098    -0.6944091846
   95      H       6.6681748544    -2.9440199223    -2.6294306586
   96      H       6.6447840385    -2.3058184403     0.2967977567
   97      H       7.1230243357    -1.2674877821    -1.1319491287
   98      C       8.5797588659    -2.8598420791    -0.5042985079
   99      H       9.0455138861    -2.3092095126     0.3218915658
  100      C       9.3400872314    -2.7622735487    -1.8253470151
  101      H       8.3763935224    -3.9051831483    -0.2410294705
  102      H       9.4912946868    -1.7041379545    -2.0723416909
  103      H       8.7838236433    -3.1781100428    -2.6745418283
  104      C      10.7585001021    -3.4617121267    -1.8056593615
  105      H      10.6988121627    -4.5576618865    -1.8192414827
  106      C      11.7781551618    -3.0267910860    -0.7681718929
  107      H      11.1760123994    -3.2670760507    -2.8003353286
  108      H      11.8645409623    -1.9524501261    -0.5575941272
  109      H      12.7399678109    -3.3032430744    -1.2204668477
  110      H      11.5415474441    -3.5066104590     0.1895985165
 ----------------------------------------------------------------

    9   -5663.5084410465      9.43E-06 Convergence criterion met
 Total energy in the final basis set = -5663.5084410465

                    Orbital Energies (a.u.)
 --------------------------------------------------------------

 Alpha MOs
 -- Occupied --
-88.980 -88.977 -88.930 -88.924 -88.920 -88.918 -88.907 -88.905
-14.385 -14.379 -14.379 -14.373 -14.346 -14.343 -14.342 -14.336
-14.329 -14.325 -10.263 -10.261 -10.260 -10.259 -10.252 -10.249
-10.247 -10.241 -10.237 -10.236 -10.234 -10.233 -10.232 -10.230
-10.229 -10.229 -10.228 -10.227 -10.225 -10.224 -10.224 -10.222
-10.222 -10.221 -10.221 -10.218 -10.217 -10.207 -10.207 -10.206
-10.206 -10.202 -10.201 -10.200 -10.198 -10.192 -10.191 -10.191
-10.182 -10.179 -10.179 -10.177 -10.176 -10.175 -10.174 -10.173
-10.173 -10.170 -10.168 -10.166  -8.034  -8.032  -7.991  -7.985
 -7.979  -7.976  -7.966  -7.965  -5.999  -5.997  -5.994  -5.992
 -5.991  -5.989  -5.955  -5.952  -5.949  -5.948  -5.946  -5.943
 -5.942  -5.940  -5.939  -5.936  -5.936  -5.933  -5.930  -5.929
 -5.927  -5.926  -5.922  -5.921  -1.024  -1.014  -0.987  -0.984
 -0.949  -0.938  -0.934  -0.922  -0.913  -0.907  -0.895  -0.888
 -0.843  -0.839  -0.834  -0.827  -0.817  -0.805  -0.805  -0.800
 -0.799  -0.798  -0.793  -0.792  -0.782  -0.773  -0.763  -0.762
 -0.748  -0.743  -0.736  -0.731  -0.720  -0.718  -0.706  -0.705
 -0.691  -0.687  -0.669  -0.666  -0.648  -0.648  -0.639  -0.636
 -0.634  -0.632  -0.623  -0.617  -0.611  -0.610  -0.601  -0.592
 -0.591  -0.589  -0.581  -0.577  -0.574  -0.572  -0.566  -0.550
 -0.548  -0.540  -0.535  -0.534  -0.521  -0.518  -0.516  -0.505
 -0.503  -0.501  -0.494  -0.493  -0.485  -0.483  -0.472  -0.470
 -0.467  -0.466  -0.466  -0.464  -0.454  -0.448  -0.445  -0.444
 -0.443  -0.441  -0.439  -0.437  -0.435  -0.433  -0.432  -0.431
 -0.429  -0.423  -0.420  -0.418  -0.415  -0.413  -0.411  -0.407
 -0.405  -0.403  -0.400  -0.399  -0.398  -0.396  -0.391  -0.389
 -0.388  -0.387  -0.385  -0.385  -0.383  -0.381  -0.380  -0.378
 -0.376  -0.375  -0.372  -0.369  -0.358  -0.357  -0.353  -0.352
 -0.347  -0.347  -0.345  -0.343  -0.341  -0.340  -0.339  -0.335
 -0.334  -0.330  -0.328  -0.326  -0.325  -0.322  -0.321  -0.315
 -0.313  -0.310  -0.307  -0.302  -0.302  -0.298  -0.297  -0.293
 -0.292  -0.289  -0.287  -0.286  -0.285  -0.281  -0.280  -0.275
 -0.269  -0.266  -0.258  -0.257  -0.251  -0.250  -0.247  -0.246
 -0.241  -0.240  -0.229  -0.226  -0.190  -0.189

          Ground-State Mulliken Net Atomic Charges

     Atom                 Charge (a.u.)
  ----------------------------------------
      1 C                     0.274019
      2 C                    -0.098758
      3 N                    -0.480170
      4 C                    -0.048541
      5 C                     0.072752
      6 C                     0.012931
      7 C                     0.020015
      8 C                     0.049282
      9 C                     0.209512
     10 N                    -0.550674
     11 N                    -0.547931
     12 C                     0.246747
     13 C                     0.316490
     14 S                     0.607855
     15 N                    -0.568386
     16 C                    -0.227519
     17 S                     0.362874
     18 C                    -0.123143
     19 C                    -0.220642
     20 S                     0.284767
     21 C                     0.139114
     22 C                     0.042087
     23 C                    -0.318835
     24 C                    -0.061657
     25 N                    -0.407518
     26 S                     0.283004
     27 C                     0.119714
     28 C                    -0.311262
     29 C                    -0.240375
     30 H                     0.096282
     31 H                     0.100768
     32 H                     0.120352
     33 H                     0.124576
     34 H                     0.124764
     35 H                     0.103426
     36 H                     0.116796
     37 H                     0.135832
     38 H                     0.119247
     39 C                    -0.195434
     40 H                     0.098008
     41 H                     0.089120
     42 H                     0.087738
     43 C                    -0.171805
     44 H                     0.086332
     45 C                    -0.159086
     46 H                     0.108464
     47 H                     0.093780
     48 H                     0.103277
     49 C                    -0.181553
     50 H                     0.094863
     51 C                    -0.340624
     52 H                     0.099256
     53 H                     0.106569
     54 H                     0.098249
     55 H                     0.102451
     56 C                     0.279597
     57 C                    -0.121612
     58 N                    -0.491913
     59 C                    -0.075353
     60 C                     0.062651
     61 C                     0.034470
     62 C                     0.003560
     63 C                     0.059772
     64 C                     0.300594
     65 N                    -0.560277
     66 N                    -0.572126
     67 C                     0.195983
     68 C                     0.325174
     69 S                     0.590664
     70 N                    -0.583419
     71 C                    -0.202477
     72 S                     0.341159
     73 C                    -0.117923
     74 C                    -0.232302
     75 S                     0.269057
     76 C                     0.205064
     77 C                     0.095919
     78 C                    -0.319736
     79 C                    -0.063229
     80 N                    -0.430877
     81 S                     0.257676
     82 C                     0.110762
     83 C                    -0.304065
     84 C                    -0.212283
     85 H                     0.084162
     86 H                     0.105323
     87 H                     0.123606
     88 H                     0.121928
     89 H                     0.124080
     90 H                     0.123926
     91 H                     0.110771
     92 H                     0.125476
     93 H                     0.111026
     94 C                    -0.186335
     95 H                     0.094791
     96 H                     0.109435
     97 H                     0.099672
     98 C                    -0.175534
     99 H                     0.097913
    100 C                    -0.172913
    101 H                     0.091838
    102 H                     0.091412
    103 H                     0.090020
    104 C                    -0.186819
    105 H                     0.092446
    106 C                    -0.317114
    107 H                     0.083919
    108 H                     0.105123
    109 H                     0.102152
    110 H                     0.107786
  ----------------------------------------
  Sum of atomic charges =     0.000000

                    Cartesian Multipole Moments
 -----------------------------------------------------------------
    Charge (ESU x 10^10)
                 0.0000
    Dipole Moment (Debye)
         X      -4.2401      Y       1.4946      Z      -0.4079
       Tot       4.5143
    Quadrupole Moments (Debye-Ang)
        XX    -384.8544     XY      15.9432     YY    -424.1032
        XZ     -13.9917     YZ      -2.6768     ZZ    -442.1972

 Total job time:  106.65s(wall), 1264.59s(cpu)
        *  Thank you very much for using Q-Chem.  Have a nice day.  *
