 Q-Chem 4.4, Q-Chem, Inc., Pleasanton, CA (2016)
 Q-Chem 4.4.2 for Intel X86 Linux

User input:
--------------------------------------------------------------
$comment
SP
$end

$rem
MEM_STATIC 5000
MEM_TOTAL 20000
JOBTYPE SP
EXCHANGE B3LYP
BASIS 6-31g(d,p)
$end

$molecule
0 1
C          10.230000     23.031000      2.655000
C          11.228000     23.503000      3.530000
N           9.172000     22.341000      3.059000
C          11.269000     23.032000      4.861000
C           9.116000     21.984000      4.372000
C          10.116000     22.285000      5.302000
C           9.930000     21.922000      6.780000
C          10.647000     22.581000      7.799000
C           9.126000     20.841000      7.247000
N          10.545000     22.195000      9.090000
N           8.507000     19.978000      6.394000
C           8.953000     20.552000      8.608000
C           9.716000     21.209000      9.479000
S           7.613000     19.008000      7.273000
N           8.060000     19.576000      8.852000
C           9.503000     21.146000     10.939000
S           8.035000     20.408000     11.710000
C          10.475000     21.500000     11.877000
C           8.654000     20.828000     13.330000
S          12.123000     22.096000     11.790000
C           9.960000     21.354000     13.196000
C           7.907000     20.746000     14.580000
C          12.049000     22.251000     13.566000
C          10.917000     21.716000     14.125000
N           8.518000     21.065000     15.684000
S           6.212000     20.499000     14.604000
C           7.610000     21.004000     16.728000
C           6.328000     20.832000     16.299000
C          10.252000     23.642000      1.252000
H          11.925000     24.252000      3.165000
H          12.090000     23.323000      5.509000
H           8.163000     21.536000      4.650000
H          11.147000     23.504000      7.509000
H          12.988000     22.458000     14.062000
H          10.777000     21.515000     15.182000
H           7.970000     21.273000     17.712000
H           5.406000     20.859000     16.864000
H          10.639000     24.667000      1.306000
C           8.854000     23.752000      0.522000
H          10.987000     23.149000      0.603000
H           8.182000     24.362000      1.140000
H           8.417000     22.751000      0.415000
C           9.093000     24.413000     -0.892000
H           9.408000     25.446000     -0.696000
C           7.871000     24.546000     -1.773000
H           9.972000     23.957000     -1.365000
H           7.402000     25.533000     -1.683000
H           7.191000     23.770000     -1.401000
C           8.119000     24.448000     -3.270000
H           8.519000     25.395000     -3.651000
C           6.782000     24.166000     -4.019000
H           8.851000     23.697000     -3.591000
H           7.014000     23.962000     -5.073000
H           6.123000     25.042000     -3.970000
H           6.264000     23.283000     -3.625000
C           6.160000     14.959000      6.899000
C           5.638000     13.727000      6.543000
N           6.822000     15.726000      5.996000
C           5.763000     13.193000      5.233000
C           7.007000     15.172000      4.734000
C           6.529000     13.889000      4.315000
C           6.761000     13.356000      2.994000
C           7.199000     12.010000      2.845000
C           6.387000     13.988000      1.860000
N           7.371000     11.414000      1.648000
N           5.822000     15.200000      1.839000
C           6.506000     13.374000      0.612000
C           7.003000     12.019000      0.489000
S           5.511000     15.578000      0.259000
N           6.084000     14.149000     -0.463000
C           7.053000     11.321000     -0.794000
S           6.816000     12.010000     -2.418000
C           7.308000      9.969000     -0.929000
C           7.216000     10.487000     -3.174000
S           7.415000      8.764000      0.287000
C           7.450000      9.519000     -2.224000
C           7.230000     10.294000     -4.587000
C           7.936000      7.581000     -0.988000
C           7.876000      8.194000     -2.250000
N           7.765000      9.216000     -5.027000
S           6.274000     11.211000     -5.706000
C           7.584000      9.103000     -6.365000
C           6.987000     10.190000     -6.965000
C           5.837000     15.593000      8.297000
H           5.040000     13.241000      7.306000
H           5.229000     12.307000      4.903000
H           7.446000     15.844000      4.000000
H           7.399000     11.445000      3.756000
H           8.324000      6.580000     -0.850000
H           8.216000      7.629000     -3.109000
H           8.007000      8.285000     -6.933000
H           6.737000     10.224000     -8.017000
H           5.463000     16.615000      8.160000
C           7.094000     15.619000      9.111000
H           5.101000     15.017000      8.872000
H           7.867000     16.105000      8.503000
H           7.306000     14.560000      9.307000
C           6.992000     16.469000     10.451000
H           8.007000     16.561000     10.856000
C           6.000000     15.801000     11.401000
H           6.605000     17.428000     10.085000
H           6.405000     14.831000     11.715000
H           5.038000     15.570000     10.927000
C           5.691000     16.641000     12.705000
H           5.055000     17.515000     12.514000
C           6.842000     17.045000     13.609000
H           5.005000     16.011000     13.283000
H           7.629000     16.302000     13.795000
H           6.362000     17.197000     14.585000
H           7.345000     17.920000     13.179000
$end

--------------------------------------------------------------

             Standard Nuclear Orientation (Angstroms)
    I     Atom           X                Y                Z
 ----------------------------------------------------------------
    1      C      -1.4302119292    -6.4001366865    -0.8757872701
    2      C      -2.5196133363    -6.5158822451    -1.7613495434
    3      N      -1.2917093534    -5.4000305793    -0.0159705390
    4      C      -3.3895419437    -5.4183358777    -1.9449229333
    5      C      -2.1973626037    -4.3849253534    -0.0784811019
    6      C      -3.2418562608    -4.3320683758    -1.0067806981
    7      C      -4.2693638561    -3.1955427058    -0.9485866862
    8      C      -5.5504173449    -3.3270340701    -1.5215988849
    9      C      -4.0012645676    -1.8956852507    -0.4274731017
   10      N      -6.4173756154    -2.2907446734    -1.5454451304
   11      N      -2.7607656650    -1.5283549394    -0.0011282704
   12      C      -4.9714166435    -0.8856047169    -0.3617976515
   13      C      -6.1319378671    -1.1053686219    -0.9760885564
   14      S      -2.8884096832    -0.0764465767     0.6221261806
   15      N      -4.5630087303     0.2261571354     0.2759715546
   16      C      -7.3016820777    -0.2171462113    -0.8221488573
   17      S      -7.4032338199     1.1062706237     0.4157381022
   18      C      -8.3782882705    -0.1972713847    -1.7112315851
   19      C      -9.0510098570     1.5159309325    -0.1328724728
   20      S      -8.7936093565    -1.0710058822    -3.1750571974
   21      C      -9.3541971395     0.7445056723    -1.2788430394
   22      C      -9.9792073906     2.4162345032     0.5417650738
   23      C     -10.3592901854    -0.2173872980    -3.1145935352
   24      C     -10.4259706363     0.7560915967    -2.1512542600
   25      N     -11.1391694572     2.6295392711    -0.0085867046
   26      S      -9.6924439610     2.9815004132     2.1332584562
   27      C     -11.8890529211     3.4342531788     0.8329780982
   28      C     -11.3047775498     3.6069152947     2.0519773124
   29      C      -0.5810893892    -7.6637602271    -0.7193888698
   30      H      -2.6850561430    -7.4680148650    -2.2574414217
   31      H      -4.1735289639    -5.4733824893    -2.6938957116
   32      H      -2.0931270866    -3.6719251568     0.7381967272
   33      H      -5.8513375150    -4.3392091113    -1.7880153582
   34      H     -10.9830545404    -0.3110712512    -3.9936426501
   35      H     -11.1913574633     1.5226442145    -2.0893665453
   36      H     -12.8956868446     3.6750943122     0.5184932931
   37      H     -11.6981647910     4.0828110110     2.9401258054
   38      H      -1.2135013035    -8.5487203818    -0.8615531954
   39      C       0.1172700647    -7.8599878294     0.6853149427
   40      H       0.1508517611    -7.7673144794    -1.5305692870
   41      H      -0.6576114336    -7.8815305157     1.4629411873
   42      H       0.7865181598    -7.0129769671     0.8830485674
   43      C       0.9265237647    -9.2152387107     0.6424022644
   44      H       0.1780980543   -10.0146792350     0.5683495524
   45      C       1.7211622492    -9.5486501901     1.8851896413
   46      H       1.4761265490    -9.2831686041    -0.3050302182
   47      H       1.1672290827   -10.2057586474     2.5660688688
   48      H       1.8933861144    -8.5742679917     2.3583474074
   49      C       3.0042833057   -10.3332042144     1.6611531771
   50      H       2.7772566718   -11.3936025460     1.4999567569
   51      C       3.9215290141   -10.2334014080     2.9168576448
   52      H       3.5989594251   -10.0480777415     0.7848374763
   53      H       4.8910749138   -10.6878221647     2.6722385033
   54      H       3.4808797041   -10.7830763492     3.7581326561
   55      H       4.1156705440    -9.1935714895     3.2072225995
   56      C      -0.2631877418     3.3164089271     1.1142920968
   57      C       0.7471259977     4.2337951940     1.3481993113
   58      N       0.0169173009     2.0647333832     0.6706802193
   59      C       2.1187285728     3.9310683293     1.1385714954
   60      C       1.3527122450     1.7919134947     0.3968076656
   61      C       2.4385796935     2.7074724474     0.5778537604
   62      C       3.8078295022     2.3757859955     0.2646556456
   63      C       4.6061081573     3.2994144449    -0.4670701748
   64      C       4.4608722247     1.3232070567     0.8039781652
   65      N       5.9111101350     3.0987624556    -0.7396827525
   66      N       3.8899165542     0.4426230035     1.6329482175
   67      C       5.8237601991     1.1204908100     0.5801400708
   68      C       6.5989274768     2.0533356715    -0.2117432261
   69      S       5.0463571119    -0.6585091547     2.0644087680
   70      N       6.3559122053    -0.0064686494     1.1974816449
   71      C       8.0431544077     1.9142663315    -0.3868468828
   72      S       9.0628769578     0.5208317937     0.0453245066
   73      C       8.8517862984     2.8883009039    -0.9422972560
   74      C      10.4690108570     1.2667505803    -0.6740207661
   75      S       8.4633510100     4.5070120936    -1.3558454526
   76      C      10.1642065208     2.5218420499    -1.1495412384
   77      C      11.7565078802     0.6536061247    -0.6944973848
   78      C      10.1110984403     4.6693529882    -2.1009151406
   79      C      10.8492819569     3.4976607270    -1.8680303171
   80      N      12.6459513190     1.1810296786    -1.4512164635
   81      S      12.3049457225    -0.5021428588     0.4761632066
   82      C      13.8479392833     0.5839204626    -1.2655837134
   83      C      13.8329625797    -0.5027266141    -0.4188536331
   84      C      -1.7415758721     3.6265771198     1.5372025230
   85      H       0.4279213857     5.1675223975     1.7979002398
   86      H       2.9237738015     4.5835038921     1.4630433988
   87      H       1.5647170388     0.7555253424     0.1437966672
   88      H       4.1224365403     4.2124338284    -0.8157869254
   89      H      10.4895110066     5.4784487339    -2.7122718318
   90      H      11.8367035861     3.4205125657    -2.3059260664
   91      H      14.7175986290     0.8534713919    -1.8501450181
   92      H      14.7235736119    -1.0498527184    -0.1398822807
   93      H      -2.1334829698     2.7980346582     2.1397431573
   94      C      -2.5684667165     3.7869675515     0.2987165761
   95      H      -1.8407001830     4.5600488522     2.1054470970
   96      H      -2.3974273463     2.9011459221    -0.3253463813
   97      H      -2.1895965786     4.7112268205    -0.1563034478
   98      C      -4.1362966194     3.8440754868     0.5578537585
   99      H      -4.6301504253     3.7788081652    -0.4191634343
  100      C      -4.4746090258     5.1090950757     1.3440205064
  101      H      -4.3010345641     2.9451398232     1.1646338524
  102      H      -4.2622152814     5.9850146078     0.7185807647
  103      H      -3.8541230638     5.2390215702     2.2393401572
  104      C      -5.9855070406     5.1976860794     1.8031891277
  105      H      -6.2260334105     4.5145462310     2.6280042663
  106      C      -7.0787535402     5.1213183221     0.7523737031
  107      H      -6.0634895074     6.1663681567     2.3102924387
  108      H      -6.9195509216     5.6638521088    -0.1890749766
  109      H      -7.9294639999     5.6270883843     1.2283656757
  110      H      -7.2368609957     4.0715577207     0.4757173958
 ----------------------------------------------------------------

   10   -5663.5116188516      5.93E-06 Convergence criterion met
 Total energy in the final basis set = -5663.5116188516

                    Orbital Energies (a.u.)
 --------------------------------------------------------------

 Alpha MOs
 -- Occupied --
-88.986 -88.982 -88.929 -88.928 -88.922 -88.920 -88.910 -88.906
-14.392 -14.380 -14.379 -14.379 -14.350 -14.343 -14.340 -14.338
-14.335 -14.327 -10.269 -10.266 -10.261 -10.256 -10.250 -10.248
-10.248 -10.244 -10.243 -10.240 -10.239 -10.236 -10.235 -10.235
-10.232 -10.232 -10.231 -10.231 -10.228 -10.227 -10.226 -10.226
-10.224 -10.223 -10.222 -10.221 -10.220 -10.217 -10.216 -10.214
-10.213 -10.212 -10.205 -10.199 -10.199 -10.199 -10.195 -10.186
-10.185 -10.183 -10.178 -10.175 -10.175 -10.174 -10.173 -10.172
-10.172 -10.170 -10.169 -10.166  -8.041  -8.036  -7.990  -7.987
 -7.984  -7.978  -7.970  -7.966  -6.006  -6.001  -6.001  -5.999
 -5.996  -5.994  -5.954  -5.952  -5.951  -5.948  -5.948  -5.947
 -5.945  -5.944  -5.943  -5.941  -5.939  -5.935  -5.934  -5.931
 -5.930  -5.927  -5.926  -5.922  -1.026  -1.021  -0.988  -0.973
 -0.954  -0.954  -0.936  -0.930  -0.919  -0.899  -0.895  -0.894
 -0.846  -0.840  -0.833  -0.824  -0.809  -0.809  -0.806  -0.803
 -0.799  -0.799  -0.799  -0.790  -0.780  -0.777  -0.767  -0.762
 -0.752  -0.744  -0.741  -0.737  -0.726  -0.716  -0.709  -0.704
 -0.695  -0.688  -0.675  -0.670  -0.653  -0.653  -0.645  -0.638
 -0.636  -0.632  -0.629  -0.620  -0.616  -0.604  -0.596  -0.594
 -0.592  -0.589  -0.582  -0.577  -0.576  -0.569  -0.567  -0.553
 -0.552  -0.546  -0.540  -0.531  -0.523  -0.520  -0.509  -0.509
 -0.507  -0.504  -0.499  -0.493  -0.490  -0.477  -0.476  -0.472
 -0.471  -0.466  -0.464  -0.463  -0.460  -0.450  -0.448  -0.447
 -0.444  -0.444  -0.441  -0.438  -0.437  -0.434  -0.430  -0.429
 -0.426  -0.425  -0.422  -0.419  -0.417  -0.416  -0.414  -0.410
 -0.408  -0.405  -0.405  -0.404  -0.403  -0.396  -0.394  -0.392
 -0.391  -0.391  -0.389  -0.388  -0.386  -0.386  -0.383  -0.381
 -0.378  -0.374  -0.372  -0.370  -0.363  -0.360  -0.357  -0.351
 -0.350  -0.349  -0.347  -0.346  -0.343  -0.342  -0.341  -0.338
 -0.336  -0.333  -0.330  -0.329  -0.327  -0.325  -0.321  -0.316
 -0.310  -0.309  -0.306  -0.302  -0.302  -0.298  -0.298  -0.295
 -0.293  -0.291  -0.289  -0.286  -0.284  -0.281  -0.281  -0.279
 -0.271  -0.267  -0.265  -0.263  -0.258  -0.252  -0.250  -0.248
 -0.246  -0.241  -0.235  -0.227  -0.196  -0.185

          Ground-State Mulliken Net Atomic Charges

     Atom                 Charge (a.u.)
  ----------------------------------------
      1 C                     0.292305
      2 C                    -0.122571
      3 N                    -0.486588
      4 C                    -0.086163
      5 C                     0.082553
      6 C                     0.042440
      7 C                     0.043498
      8 C                     0.057196
      9 C                     0.174097
     10 N                    -0.515764
     11 N                    -0.524858
     12 C                     0.275943
     13 C                     0.285734
     14 S                     0.631887
     15 N                    -0.633776
     16 C                    -0.216045
     17 S                     0.317013
     18 C                    -0.110824
     19 C                    -0.242623
     20 S                     0.271413
     21 C                     0.149601
     22 C                     0.096161
     23 C                    -0.315406
     24 C                    -0.047895
     25 N                    -0.445628
     26 S                     0.275613
     27 C                     0.125587
     28 C                    -0.315074
     29 C                    -0.254317
     30 H                     0.092535
     31 H                     0.105562
     32 H                     0.122247
     33 H                     0.111649
     34 H                     0.123815
     35 H                     0.128334
     36 H                     0.113733
     37 H                     0.128134
     38 H                     0.106066
     39 C                    -0.174871
     40 H                     0.113304
     41 H                     0.102340
     42 H                     0.114381
     43 C                    -0.183389
     44 H                     0.087100
     45 C                    -0.167681
     46 H                     0.088905
     47 H                     0.094762
     48 H                     0.093978
     49 C                    -0.184412
     50 H                     0.093205
     51 C                    -0.316757
     52 H                     0.091141
     53 H                     0.094681
     54 H                     0.101294
     55 H                     0.104527
     56 C                     0.283957
     57 C                    -0.129998
     58 N                    -0.496518
     59 C                    -0.071407
     60 C                     0.078977
     61 C                     0.037495
     62 C                    -0.011477
     63 C                     0.072367
     64 C                     0.288776
     65 N                    -0.543797
     66 N                    -0.563693
     67 C                     0.183610
     68 C                     0.324554
     69 S                     0.596090
     70 N                    -0.578559
     71 C                    -0.204424
     72 S                     0.334213
     73 C                    -0.130182
     74 C                    -0.255282
     75 S                     0.281588
     76 C                     0.208430
     77 C                     0.081488
     78 C                    -0.312946
     79 C                    -0.067773
     80 N                    -0.424304
     81 S                     0.261873
     82 C                     0.114679
     83 C                    -0.298047
     84 C                    -0.215758
     85 H                     0.086019
     86 H                     0.107232
     87 H                     0.117452
     88 H                     0.118036
     89 H                     0.128461
     90 H                     0.126103
     91 H                     0.113963
     92 H                     0.129367
     93 H                     0.108773
     94 C                    -0.191255
     95 H                     0.098480
     96 H                     0.109704
     97 H                     0.086297
     98 C                    -0.172437
     99 H                     0.103403
    100 C                    -0.175299
    101 H                     0.106735
    102 H                     0.089723
    103 H                     0.086984
    104 C                    -0.188470
    105 H                     0.092496
    106 C                    -0.313173
    107 H                     0.082498
    108 H                     0.097749
    109 H                     0.105196
    110 H                     0.113938
  ----------------------------------------
  Sum of atomic charges =     0.000000

                    Cartesian Multipole Moments
 -----------------------------------------------------------------
    Charge (ESU x 10^10)
                 0.0000
    Dipole Moment (Debye)
         X       2.5401      Y       0.7532      Z       1.1438
       Tot       2.8858
    Quadrupole Moments (Debye-Ang)
        XX    -375.7304     XY     -12.2822     YY    -410.5824
        XZ      -6.6137     YZ      14.5389     ZZ    -438.2303

 Total job time:  90.31s(wall), 1066.24s(cpu)
        *  Thank you very much for using Q-Chem.  Have a nice day.  *
