 Q-Chem 4.4, Q-Chem, Inc., Pleasanton, CA (2016)
 Q-Chem 4.4.2 for Intel X86 Linux

User input:
--------------------------------------------------------------
$comment
SP
$end

$rem
MEM_STATIC 5000
MEM_TOTAL 20000
JOBTYPE SP
EXCHANGE B3LYP
BASIS 6-31g(d,p)
$end

$molecule
0 1
C          -4.141000      1.721000      1.905000
C          -3.214000      2.459000      1.196000
N          -5.350000      2.196000      2.198000
C          -3.660000      3.679000      0.642000
C          -5.777000      3.388000      1.752000
C          -4.973000      4.237000      0.871000
C          -5.397000      5.600000      0.412000
C          -6.730000      5.892000      0.285000
C          -4.476000      6.615000      0.084000
N          -7.254000      7.094000     -0.090000
N          -3.150000      6.645000      0.171000
C          -4.947000      7.819000     -0.262000
C          -6.363000      8.066000     -0.361000
S          -2.620000      8.147000     -0.271000
N          -4.070000      8.789000     -0.600000
C          -7.037000      9.278000     -0.887000
S          -8.558000      9.149000     -1.785000
C          -6.708000     10.567000     -0.696000
C          -8.770000     10.927000     -1.773000
S          -5.564000     11.171000      0.544000
C          -7.763000     11.470000     -1.003000
C          -9.911000     11.580000     -2.305000
C          -6.299000     12.755000      0.219000
C          -7.418000     12.740000     -0.563000
N         -10.776000     10.720000     -2.789000
S         -10.263000     13.242000     -2.569000
C         -11.820000     11.309000     -3.362000
C         -11.758000     12.738000     -3.417000
C          -3.812000      0.367000      2.509000
H          -2.171000      2.169000      1.110000
H          -2.911000      4.162000      0.022000
H          -6.804000      3.651000      2.003000
H          -7.525000      5.174000      0.479000
H          -5.836000     13.534000      0.809000
H          -7.965000     13.663000     -0.717000
H         -12.584000     10.629000     -3.716000
H         -12.441000     13.402000     -3.930000
H          -3.574000      0.422000      3.578000
C          -2.680000     -0.424000      1.798000
H          -4.751000     -0.198000      2.539000
H          -1.614000     -0.169000      1.852000
H          -2.784000     -0.178000      0.734000
C          -2.661000     -1.943000      2.135000
H          -2.619000     -2.030000      3.228000
C          -1.576000     -2.791000      1.395000
H          -3.705000     -2.227000      1.954000
H          -0.636000     -2.244000      1.539000
H          -1.877000     -2.990000      0.359000
C          -1.318000     -4.180000      2.062000
H          -0.989000     -4.084000      3.105000
C          -0.258000     -4.964000      1.319000
H          -2.277000     -4.700000      1.952000
H          -0.182000     -6.008000      1.648000
H           0.763000     -4.579000      1.426000
H          -0.510000     -4.956000      0.252000
C          -7.950000     -3.326000      1.443000
C          -8.920000     -2.370000      1.075000
N          -6.672000     -3.349000      1.071000
C          -8.431000     -1.291000      0.359000
C          -6.262000     -2.275000      0.374000
C          -7.036000     -1.196000      0.009000
C          -6.482000      0.058000     -0.696000
C          -7.241000      1.209000     -0.918000
C          -5.177000      0.167000     -1.279000
N          -6.852000      2.342000     -1.538000
N          -4.353000     -0.854000     -1.300000
C          -4.754000      1.310000     -1.935000
C          -5.632000      2.405000     -2.039000
S          -3.109000     -0.301000     -2.120000
N          -3.484000      1.241000     -2.418000
C          -5.201000      3.720000     -2.629000
S          -3.624000      4.363000     -2.883000
C          -6.103000      4.705000     -3.045000
C          -4.137000      5.969000     -3.380000
S          -7.877000      4.721000     -3.168000
C          -5.480000      5.901000     -3.456000
C          -3.343000      7.125000     -3.653000
C          -7.693000      6.295000     -4.073000
C          -6.416000      6.750000     -4.074000
N          -2.045000      6.952000     -3.870000
S          -3.888000      8.791000     -3.994000
C          -1.460000      8.071000     -4.236000
C          -2.263000      9.160000     -4.453000
C          -8.364000     -4.585000      2.210000
H          -9.980000     -2.596000      1.134000
H          -9.128000     -0.493000      0.121000
H          -5.189000     -2.214000      0.196000
H          -8.255000      1.254000     -0.522000
H          -8.606000      6.785000     -4.383000
H          -6.237000      7.767000     -4.407000
H          -0.406000      7.927000     -4.431000
H          -1.957000     10.116000     -4.858000
H          -7.964000     -4.537000      3.231000
C          -7.834000     -5.934000      1.621000
H          -9.433000     -4.659000      2.440000
H          -6.755000     -5.953000      1.819000
H          -8.042000     -5.858000      0.547000
C          -8.581000     -7.232000      2.093000
H          -8.030000     -8.137000      1.808000
C         -10.081000     -7.321000      1.766000
H          -8.468000     -7.246000      3.184000
H         -10.107000     -7.209000      0.676000
H         -10.565000     -6.447000      2.221000
C         -10.766000     -8.569000      2.259000
H         -10.377000     -9.432000      1.704000
C         -12.220000     -8.542000      2.138000
H         -10.470000     -8.754000      3.298000
H         -12.580000     -8.393000      1.113000
H         -12.799000     -7.844000      2.755000
H         -12.608000     -9.522000      2.443000
$end

--------------------------------------------------------------

             Standard Nuclear Orientation (Angstroms)
    I     Atom           X                Y                Z
 ----------------------------------------------------------------
    1      C       2.7726844955     1.6159957480     2.2019066205
    2      C       1.9291236323     2.5948779908     1.7152356589
    3      N       2.3321844354     0.4060253287     2.5411503111
    4      C       0.6019930024     2.2070513064     1.4279261501
    5      C       1.0568832056     0.0311287082     2.3536181881
    6      C       0.0628100817     0.8984550690     1.7188413706
    7      C      -1.3819219149     0.5314084401     1.5568159704
    8      C      -1.7412507916    -0.7860669227     1.4409564573
    9      C      -2.4114413658     1.4922417344     1.5026026820
   10      N      -3.0139984693    -1.2610867749     1.3206464873
   11      N      -2.3750313167     2.8126382468     1.6508334430
   12      C      -3.6778722620     1.0687529856     1.4132546833
   13      C      -3.9900584213    -0.3340906391     1.3111000623
   14      S      -3.9180842572     3.4007103468     1.5771664354
   15      N      -4.6672841301     1.9850411742     1.3374054211
   16      C      -5.3111834272    -0.9511524285     1.0395131205
   17      S      -5.4372116725    -2.4285027781     0.0709890754
   18      C      -6.5137440513    -0.6003821542     1.5263921199
   19      C      -7.1748747884    -2.5969939161     0.4691217568
   20      S      -6.7882596833     0.4952952783     2.9175370196
   21      C      -7.4986324102    -1.6163200740     1.3830461616
   22      C      -7.9688545050    -3.6938069483     0.0473263300
   23      C      -8.4296495831    -0.1834730702     2.9218643730
   24      C      -8.6270706858    -1.2623800904     2.1089101614
   25      N      -7.2679444493    -4.5546749390    -0.6524682087
   26      S      -9.6593739969    -3.9912640181     0.1448308903
   27      C      -8.0052157778    -5.5541808518    -1.1242784656
   28      C      -9.4079522370    -5.4543651129    -0.8573004807
   29      C       4.2373732237     1.8812247579     2.5030934425
   30      H       2.2292657276     3.6334010049     1.6116515299
   31      H       0.0204067330     2.9975175554     0.9635873507
   32      H       0.8200913594    -1.0002593749     2.6125916304
   33      H      -1.0264084776    -1.6071406707     1.4361225724
   34      H      -9.0422540063     0.2687640281     3.6896582434
   35      H      -9.5798467408    -1.7781849227     2.1408031680
   36      H      -7.4474659108    -6.3162130280    -1.6530828228
   37      H     -10.1924204349    -6.0945503623    -1.2385176012
   38      H       4.4284142431     2.0672454319     3.5667332489
   39      C       4.8907578138     3.0272443494     1.6831216910
   40      H       4.7618021395     0.9282650403     2.3663890574
   41      H       4.6914794486     4.0952143571     1.8381223222
   42      H       4.4121486958     2.9821820040     0.6970533885
   43      C       6.4463858073     2.9921154021     1.6742615043
   44      H       6.7742689857     2.9777507432     2.7212898124
   45      C       7.1472683779     4.0912404647     0.8113497365
   46      H       6.6466238079     1.9516904936     1.3900542687
   47      H       6.6788825045     5.0361337438     1.1135688036
   48      H       7.1016640003     3.8371355190    -0.2548814380
   49      C       8.6575107152     4.2815948037     1.1630702340
   50      H       8.8060297061     4.5607738945     2.2144061197
   51      C       9.2944785610     5.3574826501     0.3104024761
   52      H       9.1064325281     3.3167107361     0.8991593738
   53      H      10.3873833929     5.3913584431     0.4018598928
   54      H       8.9786391265     6.3810963601     0.5440163121
   55      H       9.0419878101     5.1589355365    -0.7378744265
   56      C       7.4561851610    -2.2885465620     0.4659616715
   57      C       6.4091320192    -3.2152871537     0.2786341667
   58      N       7.4411032899    -0.9946380504     0.1532792434
   59      C       5.2163421897    -2.6649908332    -0.1577651713
   60      C       6.2546213863    -0.5242852718    -0.2691115188
   61      C       5.0952127396    -1.2524462073    -0.4177562022
   62      C       3.7365694004    -0.6334855841    -0.8017262843
   63      C       2.5391241313    -1.3519823348    -0.7944292513
   64      C       3.5471373689     0.7010867811    -1.2894014910
   65      N       1.3114255864    -0.9049600133    -1.1295968615
   66      N       4.5664379689     1.4997255286    -1.5016759306
   67      C       2.3029244721     1.1840870427    -1.6559516443
   68      C       1.1819782051     0.3395468307    -1.5512793141
   69      S       3.8897427160     2.7960670571    -2.1240320797
   70      N       2.3078578023     2.4743752290    -2.0873239413
   71      C      -0.2150012202     0.8314995956    -1.8149400099
   72      S      -0.8426359251     2.4345017098    -1.8517217847
   73      C      -1.2985492772    -0.0242527143    -2.0396544778
   74      C      -2.5357191507     1.9864575741    -2.0005157482
   75      S      -1.4034328321    -1.7890464993    -2.2319129925
   76      C      -2.5332566140     0.6476064013    -2.1472143270
   77      C      -3.6949489065     2.8212319339    -1.9752344969
   78      C      -3.1311223706    -1.5217298865    -2.7553513242
   79      C      -3.5300993470    -0.2354333725    -2.6003879402
   80      N      -3.5288714484     4.1237361890    -2.1694584485
   81      S      -5.4131446154     2.3349843632    -1.9601081726
   82      C      -4.6799145918     4.7535278385    -2.2519457822
   83      C      -5.8173676230     3.9893241505    -2.2554564897
   84      C       8.8383081627    -2.7709168654     0.9152064806
   85      H       6.6053360311    -4.2821514538     0.2404039332
   86      H       4.3615751663    -3.3294814831    -0.2419228320
   87      H       6.1933803377     0.5573928628    -0.3829357125
   88      H       2.5473109071    -2.3829427766    -0.4421643737
   89      H      -3.7091803955    -2.4059057547    -2.9874094075
   90      H      -4.5886470935    -0.0151664078    -2.6908209685
   91      H      -4.5457793231     5.8120298295    -2.4287458523
   92      H      -6.8279336263     4.3384621952    -2.4241454894
   93      H       9.0312314724    -2.4209383168     1.9374787595
   94      C      10.0414335824    -2.2457594887     0.0641360051
   95      H       8.9238546296    -3.8514978202     1.0769581490
   96      H      10.1414921412    -1.1786911464     0.2989964693
   97      H       9.7226606819    -2.3983528303    -0.9739464146
   98      C      11.3846974492    -3.0469626876     0.2031058516
   99      H      12.2230242359    -2.5049683223    -0.2521976808
  100      C      11.3466450662    -4.5306533683    -0.1994658564
  101      H      11.6434757628    -2.9885395738     1.2674678784
  102      H      10.9956193649    -4.4998463090    -1.2373251350
  103      H      10.5784576173    -5.0149371696     0.4173925091
  104      C      12.6479899578    -5.2697609738    -0.0262624475
  105      H      13.3800248508    -4.8751057929    -0.7421445632
  106      C      12.5440291860    -6.7148732224    -0.2004139531
  107      H      13.0683409860    -5.0302520355     0.9572529217
  108      H      12.1596194285    -7.0198642266    -1.1810441718
  109      H      11.9798633367    -7.3063721443     0.5310092621
  110      H      13.5530098008    -7.1415215877    -0.1379776558
 ----------------------------------------------------------------

   10   -5663.4871552462      3.65E-06 Convergence criterion met
 Total energy in the final basis set = -5663.4871552462

                    Orbital Energies (a.u.)
 --------------------------------------------------------------

 Alpha MOs
 -- Occupied --
-88.988 -88.987 -88.933 -88.930 -88.921 -88.914 -88.905 -88.905
-14.391 -14.383 -14.382 -14.374 -14.350 -14.344 -14.336 -14.332
-14.328 -14.322 -10.268 -10.263 -10.261 -10.258 -10.253 -10.252
-10.249 -10.248 -10.239 -10.236 -10.236 -10.235 -10.232 -10.231
-10.231 -10.230 -10.230 -10.230 -10.228 -10.228 -10.227 -10.227
-10.223 -10.223 -10.222 -10.222 -10.222 -10.220 -10.220 -10.217
-10.214 -10.206 -10.204 -10.202 -10.201 -10.201 -10.195 -10.192
-10.183 -10.181 -10.180 -10.178 -10.176 -10.175 -10.175 -10.174
-10.174 -10.173 -10.167 -10.167  -8.044  -8.043  -7.993  -7.990
 -7.980  -7.972  -7.965  -7.963  -6.009  -6.008  -6.003  -6.003
 -6.002  -6.001  -5.957  -5.954  -5.954  -5.950  -5.950  -5.947
 -5.944  -5.940  -5.937  -5.937  -5.933  -5.930  -5.929  -5.928
 -5.926  -5.924  -5.921  -5.919  -1.061  -1.043  -0.979  -0.977
 -0.966  -0.954  -0.945  -0.935  -0.923  -0.915  -0.911  -0.901
 -0.841  -0.840  -0.831  -0.828  -0.810  -0.808  -0.808  -0.805
 -0.804  -0.800  -0.800  -0.791  -0.787  -0.783  -0.771  -0.766
 -0.750  -0.748  -0.741  -0.740  -0.719  -0.717  -0.710  -0.707
 -0.696  -0.691  -0.675  -0.672  -0.659  -0.655  -0.644  -0.642
 -0.640  -0.634  -0.625  -0.618  -0.614  -0.613  -0.603  -0.601
 -0.593  -0.592  -0.582  -0.581  -0.577  -0.573  -0.568  -0.561
 -0.547  -0.544  -0.541  -0.535  -0.527  -0.520  -0.519  -0.516
 -0.512  -0.504  -0.502  -0.500  -0.487  -0.482  -0.479  -0.477
 -0.475  -0.473  -0.471  -0.467  -0.463  -0.461  -0.449  -0.448
 -0.447  -0.444  -0.442  -0.437  -0.436  -0.435  -0.433  -0.430
 -0.428  -0.427  -0.422  -0.421  -0.419  -0.416  -0.413  -0.412
 -0.409  -0.408  -0.406  -0.402  -0.399  -0.398  -0.395  -0.394
 -0.390  -0.390  -0.388  -0.387  -0.385  -0.383  -0.381  -0.376
 -0.375  -0.373  -0.371  -0.369  -0.362  -0.361  -0.360  -0.358
 -0.354  -0.349  -0.348  -0.345  -0.345  -0.343  -0.341  -0.338
 -0.337  -0.331  -0.329  -0.329  -0.325  -0.323  -0.321  -0.318
 -0.313  -0.311  -0.309  -0.305  -0.305  -0.302  -0.300  -0.297
 -0.295  -0.294  -0.292  -0.290  -0.288  -0.282  -0.280  -0.280
 -0.277  -0.274  -0.272  -0.267  -0.256  -0.252  -0.251  -0.243
 -0.241  -0.238  -0.234  -0.223  -0.196  -0.190

          Ground-State Mulliken Net Atomic Charges

     Atom                 Charge (a.u.)
  ----------------------------------------
      1 C                     0.264265
      2 C                    -0.116527
      3 N                    -0.487563
      4 C                    -0.100881
      5 C                     0.072745
      6 C                     0.026968
      7 C                     0.074870
      8 C                     0.046564
      9 C                     0.326851
     10 N                    -0.508112
     11 N                    -0.594180
     12 C                     0.169730
     13 C                     0.265012
     14 S                     0.618221
     15 N                    -0.545719
     16 C                    -0.202804
     17 S                     0.345610
     18 C                    -0.122632
     19 C                    -0.232631
     20 S                     0.251390
     21 C                     0.123369
     22 C                     0.068861
     23 C                    -0.297067
     24 C                    -0.065235
     25 N                    -0.417419
     26 S                     0.272818
     27 C                     0.128982
     28 C                    -0.336138
     29 C                    -0.226943
     30 H                     0.101558
     31 H                     0.131080
     32 H                     0.101179
     33 H                     0.123454
     34 H                     0.129052
     35 H                     0.108245
     36 H                     0.113513
     37 H                     0.135680
     38 H                     0.120787
     39 C                    -0.200092
     40 H                     0.125950
     41 H                     0.087444
     42 H                     0.087974
     43 C                    -0.192776
     44 H                     0.091515
     45 C                    -0.176244
     46 H                     0.105937
     47 H                     0.091061
     48 H                     0.099153
     49 C                    -0.177469
     50 H                     0.093071
     51 C                    -0.315447
     52 H                     0.104519
     53 H                     0.098743
     54 H                     0.098857
     55 H                     0.097439
     56 C                     0.269835
     57 C                    -0.114897
     58 N                    -0.487407
     59 C                    -0.085939
     60 C                     0.058257
     61 C                     0.071243
     62 C                     0.098780
     63 C                     0.031763
     64 C                     0.205448
     65 N                    -0.532030
     66 N                    -0.539882
     67 C                     0.210055
     68 C                     0.315717
     69 S                     0.605745
     70 N                    -0.545009
     71 C                    -0.226651
     72 S                     0.335834
     73 C                    -0.118519
     74 C                    -0.207283
     75 S                     0.257758
     76 C                     0.124379
     77 C                     0.017036
     78 C                    -0.299882
     79 C                    -0.067079
     80 N                    -0.406842
     81 S                     0.296217
     82 C                     0.128335
     83 C                    -0.322441
     84 C                    -0.242602
     85 H                     0.107204
     86 H                     0.096973
     87 H                     0.134658
     88 H                     0.100527
     89 H                     0.139200
     90 H                     0.116491
     91 H                     0.107459
     92 H                     0.138455
     93 H                     0.114207
     94 C                    -0.166724
     95 H                     0.088975
     96 H                     0.116262
     97 H                     0.090629
     98 C                    -0.194911
     99 H                     0.089737
    100 C                    -0.161565
    101 H                     0.082481
    102 H                     0.090065
    103 H                     0.089343
    104 C                    -0.163576
    105 H                     0.094125
    106 C                    -0.316382
    107 H                     0.093126
    108 H                     0.100685
    109 H                     0.100178
    110 H                     0.095850
  ----------------------------------------
  Sum of atomic charges =     0.000000

                    Cartesian Multipole Moments
 -----------------------------------------------------------------
    Charge (ESU x 10^10)
                 0.0000
    Dipole Moment (Debye)
         X      -3.7079      Y      -0.1111      Z      -0.3478
       Tot       3.7258
    Quadrupole Moments (Debye-Ang)
        XX    -390.0962     XY      -5.5569     YY    -417.7504
        XZ       1.1280     YZ       7.9522     ZZ    -448.4901

 Total job time:  112.89s(wall), 1331.41s(cpu)
        *  Thank you very much for using Q-Chem.  Have a nice day.  *
