 Q-Chem 4.4, Q-Chem, Inc., Pleasanton, CA (2016)
 Q-Chem 4.4.2 for Intel X86 Linux

User input:
--------------------------------------------------------------
$comment
SP
$end

$rem
MEM_STATIC 5000
MEM_TOTAL 20000
JOBTYPE SP
EXCHANGE B3LYP
BASIS 6-31g(d,p)
$end

$molecule
0 1
C          -3.007000     -9.849000      0.738000
C          -2.560000     -9.543000     -0.515000
N          -3.744000     -8.994000      1.499000
C          -2.940000     -8.368000     -1.116000
C          -4.132000     -7.860000      0.912000
C          -3.762000     -7.496000     -0.449000
C          -4.409000     -6.350000     -1.154000
C          -5.838000     -6.132000     -1.156000
C          -3.692000     -5.240000     -1.661000
N          -6.451000     -5.107000     -1.712000
N          -2.356000     -5.254000     -1.821000
C          -4.388000     -4.197000     -2.310000
C          -5.784000     -4.152000     -2.365000
S          -2.113000     -3.829000     -2.605000
N          -3.663000     -3.365000     -3.019000
C          -6.478000     -3.107000     -3.154000
S          -5.759000     -1.826000     -4.153000
C          -7.828000     -2.909000     -3.133000
C          -7.300000     -1.063000     -4.466000
S          -9.046000     -3.805000     -2.209000
C          -8.257000     -1.763000     -3.793000
C          -7.491000      0.175000     -5.186000
C         -10.208000     -2.586000     -2.722000
C          -9.676000     -1.586000     -3.526000
N          -8.759000      0.507000     -5.442000
S          -6.232000      1.294000     -5.696000
C          -8.789000      1.789000     -6.015000
C          -7.541000      2.423000     -6.098000
C          -2.768000    -11.184000      1.413000
H          -1.960000    -10.235000     -1.098000
H          -2.792000     -8.266000     -2.186000
H          -4.879000     -7.334000      1.506000
H          -6.478000     -6.848000     -0.643000
H         -11.217000     -2.514000     -2.338000
H         -10.209000     -0.685000     -3.807000
H          -9.739000      2.157000     -6.379000
H          -7.310000      3.400000     -6.502000
H          -1.841000    -11.592000      0.993000
C          -3.910000    -12.251000      1.398000
H          -2.597000    -11.036000      2.488000
H          -3.851000    -12.751000      0.423000
H          -4.753000    -11.557000      1.502000
C          -3.876000    -13.291000      2.541000
H          -3.085000    -14.017000      2.315000
C          -5.268000    -14.109000      2.568000
H          -3.599000    -12.842000      3.503000
H          -5.013000    -14.981000      3.183000
H          -5.565000    -14.486000      1.580000
C          -6.205000    -13.212000      3.342000
H          -5.865000    -13.076000      4.375000
C          -7.617000    -13.709000      3.462000
H          -6.099000    -12.187000      2.965000
H          -8.291000    -12.935000      3.849000
H          -7.664000    -14.506000      4.215000
H          -8.048000    -14.143000      2.551000
C          -7.950000     -3.326000      1.443000
C          -8.920000     -2.370000      1.075000
N          -6.672000     -3.349000      1.071000
C          -8.431000     -1.291000      0.359000
C          -6.262000     -2.275000      0.374000
C          -7.036000     -1.196000      0.009000
C          -6.482000      0.058000     -0.696000
C          -7.241000      1.209000     -0.918000
C          -5.177000      0.167000     -1.279000
N          -6.852000      2.342000     -1.538000
N          -4.353000     -0.854000     -1.300000
C          -4.754000      1.310000     -1.935000
C          -5.632000      2.405000     -2.039000
S          -3.109000     -0.301000     -2.120000
N          -3.484000      1.241000     -2.418000
C          -5.201000      3.720000     -2.629000
S          -3.624000      4.363000     -2.883000
C          -6.103000      4.705000     -3.045000
C          -4.137000      5.969000     -3.380000
S          -7.877000      4.721000     -3.168000
C          -5.480000      5.901000     -3.456000
C          -3.343000      7.125000     -3.653000
C          -7.693000      6.295000     -4.073000
C          -6.416000      6.750000     -4.074000
N          -2.045000      6.952000     -3.870000
S          -3.888000      8.791000     -3.994000
C          -1.460000      8.071000     -4.236000
C          -2.263000      9.160000     -4.453000
C          -8.364000     -4.585000      2.210000
H          -9.980000     -2.596000      1.134000
H          -9.128000     -0.493000      0.121000
H          -5.189000     -2.214000      0.196000
H          -8.255000      1.254000     -0.522000
H          -8.606000      6.785000     -4.383000
H          -6.237000      7.767000     -4.407000
H          -0.406000      7.927000     -4.431000
H          -1.957000     10.116000     -4.858000
H          -7.964000     -4.537000      3.231000
C          -7.834000     -5.934000      1.621000
H          -9.433000     -4.659000      2.440000
H          -6.755000     -5.953000      1.819000
H          -8.042000     -5.858000      0.547000
C          -8.581000     -7.232000      2.093000
H          -8.030000     -8.137000      1.808000
C         -10.081000     -7.321000      1.766000
H          -8.468000     -7.246000      3.184000
H         -10.107000     -7.209000      0.676000
H         -10.565000     -6.447000      2.221000
C         -10.766000     -8.569000      2.259000
H         -10.377000     -9.432000      1.704000
C         -12.220000     -8.542000      2.138000
H         -10.470000     -8.754000      3.298000
H         -12.580000     -8.393000      1.113000
H         -12.799000     -7.844000      2.755000
H         -12.608000     -9.522000      2.443000
$end

--------------------------------------------------------------

             Standard Nuclear Orientation (Angstroms)
    I     Atom           X                Y                Z
 ----------------------------------------------------------------
    1      C      -7.9729378971    -3.3643994818    -0.0037479947
    2      C      -7.2468455855    -3.8738050440    -1.0414136096
    3      N      -7.4602254082    -2.5008831274     0.9153713715
    4      C      -5.9644139317    -3.4370875063    -1.2669637054
    5      C      -6.2215153893    -2.0587989657     0.6890351544
    6      C      -5.4098713245    -2.4945618359    -0.4392651748
    7      C      -4.1364844520    -1.8028284711    -0.7983484868
    8      C      -4.0150041961    -0.3642261152    -0.8707004670
    9      C      -2.8811511933    -2.4546527333    -0.8483638935
   10      N      -2.9025651343     0.2940508258    -1.1250246745
   11      N      -2.7626645889    -3.7948348760    -0.8721283408
   12      C      -1.7261487793    -1.7191914665    -1.1926488753
   13      C      -1.7484247398    -0.3325164939    -1.3672979578
   14      S      -1.1475678566    -3.9684543657    -1.1283485939
   15      N      -0.6661593301    -2.4183369617    -1.5215074225
   16      C      -0.5454846533     0.3908190264    -1.8425903662
   17      S       1.0326066305    -0.2841779546    -2.3007715264
   18      C      -0.4457236312     1.7508768098    -1.8919418025
   19      C       1.7633028413     1.2907815345    -2.5017806184
   20      S      -1.6658140728     2.9499632255    -1.4296788013
   21      C       0.8258206151     2.2293682176    -2.1872013535
   22      C       3.1553761109     1.5365318247    -2.8005511106
   23      C      -0.4171247755     4.1738665364    -1.6351288546
   24      C       0.8209814709     3.6742446500    -2.0184184230
   25      N       3.4772132986     2.8065278149    -3.0596167575
   26      S       4.4523052119     0.3468656709    -2.7971821981
   27      C       4.8720818799     2.9070505826    -3.1899617380
   28      C       5.5710120457     1.7170460871    -2.9414966015
   29      C      -9.4388515695    -3.6696931264     0.2261735043
   30      H      -7.6724062867    -4.5737531468    -1.7539609715
   31      H      -5.5084139225    -3.6539597718    -2.2272961541
   32      H      -5.9647789448    -1.2266370776     1.3441030822
   33      H      -4.8962855897     0.2462597633    -0.6807660114
   34      H      -0.5350410851     5.2108262344    -1.3495919416
   35      H       1.7310307751     4.2623889038    -2.0457607101
   36      H       5.2821428336     3.8563647567    -3.5078809308
   37      H       6.6383540774     1.5438782610    -2.9850843455
   38      H      -9.6307591981    -4.6574483179    -0.2093768875
   39      C     -10.5075700697    -2.6303536905    -0.2433925764
   40      H      -9.6418880044    -3.7473175765     1.3029839105
   41      H     -10.6555697784    -2.8048493989    -1.3165902907
   42      H      -9.9373689937    -1.7241298929    -0.0052116337
   43      C     -11.8610633689    -2.6715331312     0.5019698475
   44      H     -12.4244879206    -3.5379090266     0.1334883928
   45      C     -12.7236275672    -1.3588172855     0.1274339851
   46      H     -11.7369642501    -2.8362649571     1.5795768418
   47      H     -13.7323986963    -1.6436371396     0.4513050396
   48      H     -12.7725013000    -1.1697905168    -0.9534740771
   49      C     -12.1874382679    -0.2919663878     1.0526281254
   50      H     -12.3779907203    -0.5416243179     2.1026498780
   51      C     -12.7790677358     1.0757483433     0.8669294798
   52      H     -11.0911105360    -0.3347433177     1.0376068540
   53      H     -12.2162781538     1.8419894828     1.4139792056
   54      H     -13.7803082828     1.1077052867     1.3151739676
   55      H     -12.9148862510     1.3985403083    -0.1729727648
   56      C      -2.3474665995     2.1724920985     2.2714898627
   57      C      -1.3829225639     3.1931800003     2.1369127080
   58      N      -2.1713463982     0.8735131959     2.0394715763
   59      C      -0.1017577963     2.7497170456     1.8576718693
   60      C      -0.9058120298     0.5094869514     1.7687454123
   61      C       0.1853276803     1.3465286536     1.6958254434
   62      C       1.6317231493     0.8547231650     1.4896107283
   63      C       2.7447144675     1.6937432838     1.5759910829
   64      C       2.0031194888    -0.4749947779     1.1039814355
   65      N       4.0393647983     1.3614491303     1.3946871485
   66      N       1.0962702547    -1.3850364475     0.8369484295
   67      C       3.3210244483    -0.8428354693     0.8953340214
   68      C       4.3354509059     0.1181580658     1.0631296938
   69      S       1.9604053126    -2.6325052504     0.3648920903
   70      N       3.4897212081    -2.1460982067     0.5432010345
   71      C       5.7943342741    -0.2376142146     0.9727338832
   72      S       6.5773551911    -1.7662481772     1.0954141656
   73      C       6.8059982862     0.7145417959     0.8089661875
   74      C       8.2241206350    -1.1517783466     1.0933165518
   75      S       6.7562866438     2.4691506094     0.5237685997
   76      C       8.1053417956     0.1707451257     0.8677677705
   77      C       9.4506113286    -1.8587996017     1.2860405082
   78      C       8.5480605379     2.3583518633     0.1957031334
   79      C       9.0530476208     1.1298117122     0.4666867918
   80      N       9.4356446065    -3.1794402843     1.1537295686
   81      S      11.1008638522    -1.1957616629     1.4470041686
   82      C      10.6453770846    -3.6889562355     1.2264126273
   83      C      11.6956673408    -2.8113208418     1.2932369761
   84      C      -3.8106196263     2.5293515975     2.5482578492
   85      H      -1.6781795885     4.2306035292     2.0155343280
   86      H       0.6873557984     3.4948704376     1.8215726020
   87      H      -0.7263000485    -0.5641543906     1.7262752190
   88      H       2.5971094953     2.7341754484     1.8636552674
   89      H       9.0576168781     3.2856373481    -0.0284909031
   90      H      10.1317238324     1.0170549441     0.4977116502
   91      H      10.6360700714    -4.7630356489     1.1001438935
   92      H      12.7479845845    -3.0609161194     1.2493323534
   93      H      -4.0766433461     2.2114540168     3.5645833427
   94      C      -4.8577691008     1.8406187981     1.6119100992
   95      H      -4.0192117218     3.6017055011     2.6359131005
   96      H      -4.8766885004     0.7816730389     1.8984095504
   97      H      -4.4460705962     1.9748057395     0.6044309649
   98      C      -6.2806403204     2.5031036097     1.5655596179
   99      H      -7.0076910051     1.8550232998     1.0603465799
  100      C      -6.3461713030     3.9612445923     1.0814309522
  101      H      -6.6450949797     2.4700026209     2.5996404300
  102      H      -5.8844952067     3.9166283818     0.0883626888
  103      H      -5.7001519859     4.5525627982     1.7433666148
  104      C      -7.7251184379     4.5680917468     1.0770343253
  105      H      -8.3335884912     4.0647460311     0.3151141952
  106      C      -7.7461479852     6.0059343423     0.8287352543
  107      H      -8.2228807451     4.3343057603     2.0251581559
  108      H      -7.2907127438     6.3011568977    -0.1240755263
  109      H      -7.3248411273     6.6880550898     1.5772977550
  110      H      -8.7931427945     6.3275047480     0.7626796449
 ----------------------------------------------------------------

   10   -5663.5028107620      8.49E-06 Convergence criterion met
 Total energy in the final basis set = -5663.5028107620

                    Orbital Energies (a.u.)
 --------------------------------------------------------------

 Alpha MOs
 -- Occupied --
-88.986 -88.981 -88.932 -88.928 -88.922 -88.922 -88.907 -88.907
-14.390 -14.390 -14.387 -14.379 -14.350 -14.344 -14.343 -14.337
-14.329 -14.327 -10.270 -10.270 -10.263 -10.258 -10.254 -10.252
-10.251 -10.248 -10.240 -10.239 -10.238 -10.237 -10.237 -10.235
-10.233 -10.233 -10.229 -10.229 -10.229 -10.228 -10.228 -10.226
-10.224 -10.224 -10.222 -10.221 -10.218 -10.218 -10.216 -10.214
-10.212 -10.204 -10.204 -10.203 -10.199 -10.199 -10.192 -10.192
-10.181 -10.180 -10.179 -10.179 -10.178 -10.177 -10.175 -10.173
-10.173 -10.171 -10.167 -10.166  -8.042  -8.036  -7.992  -7.988
 -7.981  -7.981  -7.966  -7.966  -6.007  -6.002  -6.002  -6.000
 -5.996  -5.994  -5.956  -5.953  -5.952  -5.949  -5.949  -5.946
 -5.945  -5.945  -5.942  -5.941  -5.938  -5.938  -5.931  -5.930
 -5.927  -5.927  -5.922  -5.922  -1.059  -1.042  -0.979  -0.965
 -0.962  -0.957  -0.943  -0.940  -0.922  -0.920  -0.916  -0.910
 -0.843  -0.839  -0.830  -0.830  -0.811  -0.808  -0.805  -0.803
 -0.803  -0.800  -0.800  -0.797  -0.786  -0.783  -0.771  -0.764
 -0.751  -0.745  -0.741  -0.735  -0.722  -0.721  -0.710  -0.706
 -0.697  -0.689  -0.675  -0.672  -0.659  -0.652  -0.643  -0.641
 -0.639  -0.633  -0.627  -0.624  -0.614  -0.611  -0.603  -0.597
 -0.595  -0.587  -0.583  -0.582  -0.579  -0.577  -0.566  -0.562
 -0.550  -0.545  -0.542  -0.537  -0.528  -0.520  -0.518  -0.511
 -0.506  -0.505  -0.503  -0.494  -0.493  -0.486  -0.482  -0.477
 -0.473  -0.472  -0.470  -0.464  -0.460  -0.456  -0.452  -0.450
 -0.448  -0.443  -0.440  -0.437  -0.436  -0.434  -0.430  -0.429
 -0.427  -0.423  -0.422  -0.419  -0.418  -0.417  -0.415  -0.413
 -0.410  -0.408  -0.407  -0.405  -0.401  -0.400  -0.399  -0.397
 -0.395  -0.392  -0.388  -0.387  -0.386  -0.385  -0.381  -0.379
 -0.377  -0.376  -0.372  -0.369  -0.362  -0.360  -0.359  -0.356
 -0.352  -0.350  -0.348  -0.347  -0.346  -0.345  -0.341  -0.340
 -0.336  -0.336  -0.331  -0.331  -0.330  -0.324  -0.322  -0.321
 -0.318  -0.313  -0.310  -0.307  -0.302  -0.302  -0.301  -0.296
 -0.294  -0.293  -0.292  -0.287  -0.286  -0.285  -0.283  -0.283
 -0.280  -0.273  -0.269  -0.259  -0.255  -0.254  -0.250  -0.246
 -0.245  -0.240  -0.233  -0.231  -0.197  -0.192

          Ground-State Mulliken Net Atomic Charges

     Atom                 Charge (a.u.)
  ----------------------------------------
      1 C                     0.262531
      2 C                    -0.109048
      3 N                    -0.468510
      4 C                    -0.048163
      5 C                     0.070680
      6 C                     0.021755
      7 C                    -0.053019
      8 C                     0.097059
      9 C                     0.250404
     10 N                    -0.537212
     11 N                    -0.515939
     12 C                     0.231849
     13 C                     0.332706
     14 S                     0.568716
     15 N                    -0.583838
     16 C                    -0.213493
     17 S                     0.314158
     18 C                    -0.127062
     19 C                    -0.248750
     20 S                     0.295222
     21 C                     0.177578
     22 C                     0.062758
     23 C                    -0.316484
     24 C                    -0.059544
     25 N                    -0.437339
     26 S                     0.274622
     27 C                     0.120762
     28 C                    -0.294671
     29 C                    -0.230477
     30 H                     0.090092
     31 H                     0.103959
     32 H                     0.112233
     33 H                     0.113420
     34 H                     0.118639
     35 H                     0.118657
     36 H                     0.116277
     37 H                     0.140056
     38 H                     0.085022
     39 C                    -0.168295
     40 H                     0.113568
     41 H                     0.092144
     42 H                     0.115089
     43 C                    -0.195721
     44 H                     0.084388
     45 C                    -0.171096
     46 H                     0.097481
     47 H                     0.091060
     48 H                     0.096005
     49 C                    -0.165150
     50 H                     0.095804
     51 C                    -0.321778
     52 H                     0.101638
     53 H                     0.097513
     54 H                     0.100011
     55 H                     0.098452
     56 C                     0.282650
     57 C                    -0.111911
     58 N                    -0.485607
     59 C                    -0.079834
     60 C                     0.057707
     61 C                     0.072961
     62 C                     0.089188
     63 C                     0.031330
     64 C                     0.213989
     65 N                    -0.527422
     66 N                    -0.541983
     67 C                     0.202944
     68 C                     0.311783
     69 S                     0.615658
     70 N                    -0.547412
     71 C                    -0.225286
     72 S                     0.344412
     73 C                    -0.121906
     74 C                    -0.203560
     75 S                     0.259772
     76 C                     0.129058
     77 C                     0.030634
     78 C                    -0.313020
     79 C                    -0.067424
     80 N                    -0.404601
     81 S                     0.272151
     82 C                     0.133669
     83 C                    -0.320134
     84 C                    -0.246819
     85 H                     0.103862
     86 H                     0.095832
     87 H                     0.122624
     88 H                     0.100251
     89 H                     0.126468
     90 H                     0.109723
     91 H                     0.108682
     92 H                     0.138432
     93 H                     0.113148
     94 C                    -0.192501
     95 H                     0.088721
     96 H                     0.119132
     97 H                     0.117411
     98 C                    -0.200387
     99 H                     0.092280
    100 C                    -0.162078
    101 H                     0.084272
    102 H                     0.092302
    103 H                     0.089151
    104 C                    -0.164480
    105 H                     0.095455
    106 C                    -0.316563
    107 H                     0.093717
    108 H                     0.100994
    109 H                     0.099577
    110 H                     0.096269
  ----------------------------------------
  Sum of atomic charges =     0.000000

                    Cartesian Multipole Moments
 -----------------------------------------------------------------
    Charge (ESU x 10^10)
                 0.0000
    Dipole Moment (Debye)
         X       2.8597      Y       1.3889      Z      -1.0214
       Tot       3.3392
    Quadrupole Moments (Debye-Ang)
        XX    -381.3386     XY       5.9918     YY    -425.9875
        XZ       1.0665     YZ      10.5839     ZZ    -454.4886

 Total job time:  111.96s(wall), 1340.35s(cpu)
        *  Thank you very much for using Q-Chem.  Have a nice day.  *
