 Q-Chem 4.4, Q-Chem, Inc., Pleasanton, CA (2016)
 Q-Chem 4.4.2 for Intel X86 Linux

User input:
--------------------------------------------------------------
$comment
SP
$end

$rem
MEM_STATIC 5000
MEM_TOTAL 20000
JOBTYPE SP
EXCHANGE B3LYP
BASIS 6-31g(d,p)
$end

$molecule
0 1
C           1.814000     11.158000     -2.459000
C           3.060000     11.032000     -1.745000
N           0.982000     10.064000     -2.636000
C           3.540000      9.740000     -1.334000
C           1.439000      8.889000     -2.181000
C           2.701000      8.629000     -1.605000
C           3.150000      7.289000     -1.063000
C           4.513000      6.986000     -0.983000
C           2.230000      6.357000     -0.553000
N           4.993000      5.855000     -0.553000
N           0.915000      6.511000     -0.563000
C           2.715000      5.153000     -0.081000
C           4.138000      4.944000     -0.094000
S           0.318000      5.155000      0.096000
N           1.747000      4.285000      0.267000
C           4.682000      3.600000      0.308000
S           3.772000      2.112000      0.597000
C           6.013000      3.341000      0.434000
C           5.166000      1.313000      1.250000
S           7.310000      4.479000      0.520000
C           6.224000      2.132000      1.125000
C           4.996000      0.085000      2.014000
C           8.222000      3.202000      1.333000
C           7.538000      2.027000      1.645000
N           3.776000     -0.325000      2.325000
S           6.242000     -0.956000      2.670000
C           3.729000     -1.369000      3.249000
C           4.974000     -1.657000      3.644000
C           1.403000     12.415000     -3.158000
H           3.749000     11.848000     -1.547000
H           4.534000      9.635000     -0.908000
H           0.605000      8.196000     -2.278000
H           5.254000      7.583000     -1.514000
H           9.258000      3.397000      1.579000
H           8.086000      1.174000      2.030000
H           2.832000     -1.769000      3.704000
H           5.285000     -2.421000      4.344000
H           0.411000     12.459000     -3.626000
C           2.415000     12.869000     -4.258000
H           1.398000     13.245000     -2.442000
H           3.427000     13.102000     -3.901000
H           2.048000     13.840000     -4.612000
C           2.576000     11.826000     -5.406000
H           3.175000     11.022000     -4.963000
C           3.234000     12.533000     -6.647000
H           1.598000     11.415000     -5.688000
H           4.050000     13.178000     -6.300000
H           2.489000     13.254000     -7.004000
C           3.576000     11.601000     -7.813000
H           4.023000     10.627000     -7.577000
C           4.278000     12.433000     -8.875000
H           2.616000     11.329000     -8.268000
H           4.365000     11.850000     -9.800000
H           5.279000     12.794000     -8.606000
H           3.692000     13.326000     -9.122000
C          -7.950000     -3.326000      1.443000
C          -8.920000     -2.370000      1.075000
N          -6.672000     -3.349000      1.071000
C          -8.431000     -1.291000      0.359000
C          -6.262000     -2.275000      0.374000
C          -7.036000     -1.196000      0.009000
C          -6.482000      0.058000     -0.696000
C          -7.241000      1.209000     -0.918000
C          -5.177000      0.167000     -1.279000
N          -6.852000      2.342000     -1.538000
N          -4.353000     -0.854000     -1.300000
C          -4.754000      1.310000     -1.935000
C          -5.632000      2.405000     -2.039000
S          -3.109000     -0.301000     -2.120000
N          -3.484000      1.241000     -2.418000
C          -5.201000      3.720000     -2.629000
S          -3.624000      4.363000     -2.883000
C          -6.103000      4.705000     -3.045000
C          -4.137000      5.969000     -3.380000
S          -7.877000      4.721000     -3.168000
C          -5.480000      5.901000     -3.456000
C          -3.343000      7.125000     -3.653000
C          -7.693000      6.295000     -4.073000
C          -6.416000      6.750000     -4.074000
N          -2.045000      6.952000     -3.870000
S          -3.888000      8.791000     -3.994000
C          -1.460000      8.071000     -4.236000
C          -2.263000      9.160000     -4.453000
C          -8.364000     -4.585000      2.210000
H          -9.980000     -2.596000      1.134000
H          -9.128000     -0.493000      0.121000
H          -5.189000     -2.214000      0.196000
H          -8.255000      1.254000     -0.522000
H          -8.606000      6.785000     -4.383000
H          -6.237000      7.767000     -4.407000
H          -0.406000      7.927000     -4.431000
H          -1.957000     10.116000     -4.858000
H          -7.964000     -4.537000      3.231000
C          -7.834000     -5.934000      1.621000
H          -9.433000     -4.659000      2.440000
H          -6.755000     -5.953000      1.819000
H          -8.042000     -5.858000      0.547000
C          -8.581000     -7.232000      2.093000
H          -8.030000     -8.137000      1.808000
C         -10.081000     -7.321000      1.766000
H          -8.468000     -7.246000      3.184000
H         -10.107000     -7.209000      0.676000
H         -10.565000     -6.447000      2.221000
C         -10.766000     -8.569000      2.259000
H         -10.377000     -9.432000      1.704000
C         -12.220000     -8.542000      2.138000
H         -10.470000     -8.754000      3.298000
H         -12.580000     -8.393000      1.113000
H         -12.799000     -7.844000      2.755000
H         -12.608000     -9.522000      2.443000
$end

--------------------------------------------------------------

             Standard Nuclear Orientation (Angstroms)
    I     Atom           X                Y                Z
 ----------------------------------------------------------------
    1      C       7.7386264985    -2.5868315226    -1.6860493531
    2      C       8.3358787269    -1.3018374864    -1.9511306662
    3      N       6.4344052391    -2.6839460964    -1.2278303376
    4      C       7.6466127587    -0.0888685479    -1.6015540947
    5      C       5.8048845345    -1.5280011597    -0.9748600117
    6      C       6.3444218055    -0.2263663165    -1.0565072298
    7      C       5.5737106362     1.0517342454    -0.8046575780
    8      C       6.2494760589     2.2133398345    -0.4173701538
    9      C       4.1889069296     1.1314326793    -1.0306904383
   10      N       5.6718873832     3.3506267707    -0.1576958451
   11      N       3.4242017719     0.1151750890    -1.3987767484
   12      C       3.5538431323     2.3304634649    -0.7725351584
   13      C       4.3557592142     3.4412096785    -0.3344113781
   14      S       1.9207446324     0.7167032850    -1.4836676152
   15      N       2.2154957665     2.2660810738    -0.8999448760
   16      C       3.6736912733     4.7225610023     0.0615660316
   17      S       1.9411241763     4.9973560234     0.2817113262
   18      C       4.3504283745     5.8600993374     0.3818025562
   19      C       2.1665739378     6.7121386829     0.4110899794
   20      S       6.0146910273     6.2201881559     0.0898867027
   21      C       3.4849805508     6.9712286899     0.3904412265
   22      C       1.0186706015     7.5980965584     0.2770132357
   23      C       5.5435511290     7.9207211138     0.1881560029
   24      C       4.1816540972     8.2017344807     0.2981240088
   25      N      -0.1517844084     7.0971153718    -0.0866815822
   26      S       0.9711883028     9.3367999028     0.4799642434
   27      C      -1.1178045478     8.0488918157    -0.4135572332
   28      C      -0.5733107189     9.2677866280    -0.3309987272
   29      C       8.5067031951    -3.8685053806    -1.7563438036
   30      H       9.3410597453    -1.1498400436    -2.3336079828
   31      H       8.1487206182     0.8708194197    -1.6877150044
   32      H       4.7709134619    -1.7996074586    -0.7690741049
   33      H       7.2787775918     2.1731939738    -0.0618737908
   34      H       6.3250685811     8.6674381934     0.1291553666
   35      H       3.8579000702     9.2197363748     0.4851894347
   36      H      -2.0945695352     7.8391935508    -0.8301995224
   37      H      -1.0546316991    10.2199592056    -0.5102039067
   38      H       7.9706123863    -4.8145295985    -1.6057821090
   39      C       9.7285707433    -3.9102571433    -0.7839465160
   40      H       8.9548606858    -3.9704874315    -2.7514998340
   41      H      10.4990264539    -3.1481115517    -0.9611867349
   42      H      10.2514817626    -4.8475828942    -1.0094027263
   43      C       9.3185124279    -3.7897934411     0.7157250062
   44      H       9.0522711710    -2.7340882317     0.8424850319
   45      C      10.5140761130    -4.2816286073     1.6110571479
   46      H       8.4279693019    -4.3988907251     0.9178696061
   47      H      11.4513535068    -3.8795234119     1.2084251832
   48      H      10.6060972827    -5.3564204085     1.4144110489
   49      C      10.3080027462    -4.0999362218     3.1175981014
   50      H       9.8600241092    -3.1601163783     3.4643470056
   51      C      11.5866074945    -4.5418689187     3.8123911562
   52      H       9.5639560773    -4.8510342002     3.4088975714
   53      H      11.4123509213    -4.6103733027     4.8931431148
   54      H      12.4592377754    -3.8963427027     3.6496173945
   55      H      11.8859683127    -5.5426571006     3.4797350044
   56      C      -9.9493203531    -0.0393106825    -0.6889386552
   57      C      -9.8365957843    -1.4020745323    -1.0359658321
   58      N      -9.0385349398     0.7015837797    -0.0614497495
   59      C      -8.5924353839    -1.9612934936    -0.8006850394
   60      C      -7.8544787157     0.0980568070     0.1414074694
   61      C      -7.5233760244    -1.1892608741    -0.2187677599
   62      C      -6.1125278579    -1.7893010245    -0.0577824527
   63      C      -5.7485131709    -3.0363640554    -0.5701232618
   64      C      -5.0466255702    -1.1982938337     0.6967755725
   65      N      -4.5516183555    -3.6494287721    -0.4652211449
   66      N      -5.2251773055    -0.0882795113     1.3734183748
   67      C      -3.8126404573    -1.8095479180     0.8359272358
   68      C      -3.5918984844    -3.0556828456     0.2201791351
   69      S      -3.8338142450     0.1142525466     2.1142520940
   70      N      -2.9178783320    -1.1025207614     1.5778594020
   71      C      -2.2424560166    -3.7205573217     0.2259199563
   72      S      -0.6781693993    -3.0625447909     0.5173318442
   73      C      -2.0539187924    -5.0731039443    -0.0773230960
   74      C       0.2316244346    -4.5045519137     0.0903603729
   75      S      -3.2010894334    -6.3949544381    -0.3922386286
   76      C      -0.6977478528    -5.4550534313    -0.1261183012
   77      C       1.6454291375    -4.6793254215    -0.0187793679
   78      C      -1.7672947499    -7.5194753672    -0.2920264256
   79      C      -0.5888488544    -6.8554983720    -0.2017223759
   80      N       2.4307936896    -3.7722517472     0.5488841501
   81      S       2.5455613435    -6.1018924565    -0.6145369048
   82      C       3.6973332104    -4.1193675091     0.4878080501
   83      C       3.9865150775    -5.3626093082    -0.0107324967
   84      C     -11.2828289860     0.6916941008    -0.8682504861
   85      H     -10.7176696309    -2.0055169680    -1.2301901960
   86      H      -8.4370779666    -2.9864348139    -1.1234951170
   87      H      -7.0591786886     0.7412841001     0.5162281151
   88      H      -6.4722356177    -3.5906763721    -1.1667811834
   89      H      -1.9625003585    -8.5695152439    -0.4625550968
   90      H       0.3270573024    -7.4207175113    -0.3390622340
   91      H       4.3363154303    -3.3898255377     0.9665013074
   92      H       4.9578517151    -5.8398675901    -0.0288064780
   93      H     -11.1868016580     1.4314291551    -1.6734310880
   94      C     -11.7786206907     1.4980172768     0.3774041697
   95      H     -12.0952391353     0.0826764098    -1.2808328431
   96      H     -11.1122880120     2.3650237807     0.4674401812
   97      H     -11.6469641648     0.8039401117     1.2161171410
   98      C     -13.3029410372     1.8746384127     0.3915816678
   99      H     -13.5273196574     2.6058650963     1.1782282034
  100      C     -14.3016534725     0.7056046964     0.3635880648
  101      H     -13.4569089914     2.4769140670    -0.5121903750
  102      H     -14.0195496742     0.1138410781     1.2419691137
  103      H     -14.0889918547     0.1183296777    -0.5392076423
  104      C     -15.7529685563     1.1097236717     0.3513250551
  105      H     -16.0010091536     1.5767880186     1.3128039981
  106      C     -16.6791894246     0.0094836640     0.1041958813
  107      H     -15.8970812782     1.9068642717    -0.3870247179
  108      H     -16.6064083088    -0.8074110305     0.8320777173
  109      H     -16.6887198045    -0.4760184566    -0.8793339163
  110      H     -17.7023411350     0.3941329720     0.1999794254
 ----------------------------------------------------------------

    9   -5663.5071590507      9.18E-06 Convergence criterion met
 Total energy in the final basis set = -5663.5071590507

                    Orbital Energies (a.u.)
 --------------------------------------------------------------

 Alpha MOs
 -- Occupied --
-88.986 -88.985 -88.926 -88.921 -88.919 -88.912 -88.909 -88.904
-14.391 -14.385 -14.381 -14.379 -14.350 -14.349 -14.336 -14.332
-14.332 -14.328 -10.267 -10.264 -10.263 -10.263 -10.253 -10.252
-10.250 -10.247 -10.238 -10.237 -10.236 -10.234 -10.234 -10.233
-10.231 -10.229 -10.229 -10.227 -10.226 -10.223 -10.222 -10.222
-10.221 -10.221 -10.220 -10.220 -10.220 -10.218 -10.217 -10.217
-10.215 -10.215 -10.208 -10.204 -10.201 -10.200 -10.199 -10.195
-10.190 -10.186 -10.180 -10.180 -10.179 -10.179 -10.176 -10.174
-10.174 -10.173 -10.171 -10.168  -8.043  -8.040  -7.987  -7.983
 -7.978  -7.971  -7.969  -7.963  -6.008  -6.005  -6.003  -6.001
 -5.999  -5.998  -5.951  -5.947  -5.947  -5.944  -5.944  -5.943
 -5.940  -5.939  -5.935  -5.935  -5.934  -5.931  -5.930  -5.928
 -5.928  -5.926  -5.924  -5.919  -1.060  -1.037  -0.974  -0.973
 -0.966  -0.962  -0.945  -0.930  -0.923  -0.917  -0.913  -0.903
 -0.843  -0.839  -0.833  -0.831  -0.808  -0.807  -0.806  -0.805
 -0.805  -0.799  -0.796  -0.795  -0.787  -0.784  -0.770  -0.765
 -0.751  -0.750  -0.741  -0.737  -0.718  -0.718  -0.710  -0.710
 -0.695  -0.695  -0.679  -0.674  -0.659  -0.654  -0.644  -0.641
 -0.639  -0.633  -0.625  -0.619  -0.611  -0.611  -0.601  -0.597
 -0.592  -0.590  -0.582  -0.581  -0.578  -0.576  -0.573  -0.561
 -0.546  -0.544  -0.543  -0.538  -0.524  -0.522  -0.518  -0.515
 -0.512  -0.504  -0.502  -0.495  -0.487  -0.485  -0.481  -0.476
 -0.473  -0.473  -0.470  -0.467  -0.462  -0.461  -0.452  -0.449
 -0.447  -0.442  -0.436  -0.436  -0.435  -0.434  -0.431  -0.429
 -0.426  -0.421  -0.421  -0.419  -0.416  -0.415  -0.415  -0.414
 -0.412  -0.411  -0.409  -0.403  -0.399  -0.398  -0.398  -0.396
 -0.394  -0.394  -0.391  -0.388  -0.387  -0.386  -0.382  -0.380
 -0.379  -0.374  -0.371  -0.369  -0.366  -0.361  -0.360  -0.359
 -0.357  -0.348  -0.348  -0.346  -0.345  -0.344  -0.341  -0.339
 -0.334  -0.332  -0.331  -0.329  -0.329  -0.323  -0.321  -0.319
 -0.316  -0.313  -0.310  -0.309  -0.305  -0.303  -0.302  -0.299
 -0.297  -0.296  -0.290  -0.288  -0.285  -0.282  -0.280  -0.278
 -0.278  -0.272  -0.268  -0.265  -0.255  -0.255  -0.254  -0.247
 -0.239  -0.238  -0.232  -0.229  -0.193  -0.193

          Ground-State Mulliken Net Atomic Charges

     Atom                 Charge (a.u.)
  ----------------------------------------
      1 C                     0.276221
      2 C                    -0.128703
      3 N                    -0.488779
      4 C                    -0.078499
      5 C                     0.066930
      6 C                     0.037261
      7 C                     0.030363
      8 C                     0.043624
      9 C                     0.254904
     10 N                    -0.510710
     11 N                    -0.550415
     12 C                     0.235296
     13 C                     0.300470
     14 S                     0.610664
     15 N                    -0.576764
     16 C                    -0.205076
     17 S                     0.352890
     18 C                    -0.132303
     19 C                    -0.240358
     20 S                     0.291891
     21 C                     0.136417
     22 C                     0.079428
     23 C                    -0.307990
     24 C                    -0.069660
     25 N                    -0.445601
     26 S                     0.247989
     27 C                     0.130471
     28 C                    -0.297001
     29 C                    -0.233888
     30 H                     0.091136
     31 H                     0.108305
     32 H                     0.131655
     33 H                     0.109970
     34 H                     0.119660
     35 H                     0.118049
     36 H                     0.126577
     37 H                     0.122604
     38 H                     0.114853
     39 C                    -0.192833
     40 H                     0.105391
     41 H                     0.094037
     42 H                     0.089491
     43 C                    -0.174119
     44 H                     0.101634
     45 C                    -0.171555
     46 H                     0.093323
     47 H                     0.088354
     48 H                     0.094049
     49 C                    -0.175524
     50 H                     0.097229
     51 C                    -0.316971
     52 H                     0.096984
     53 H                     0.094806
     54 H                     0.102444
     55 H                     0.101300
     56 C                     0.270568
     57 C                    -0.116259
     58 N                    -0.481353
     59 C                    -0.088714
     60 C                     0.061278
     61 C                     0.068273
     62 C                     0.088712
     63 C                     0.027221
     64 C                     0.202107
     65 N                    -0.525096
     66 N                    -0.530294
     67 C                     0.200438
     68 C                     0.307860
     69 S                     0.604649
     70 N                    -0.538970
     71 C                    -0.228812
     72 S                     0.337583
     73 C                    -0.116182
     74 C                    -0.199336
     75 S                     0.251807
     76 C                     0.129509
     77 C                     0.028184
     78 C                    -0.306881
     79 C                    -0.063085
     80 N                    -0.409827
     81 S                     0.270266
     82 C                     0.145771
     83 C                    -0.313365
     84 C                    -0.242566
     85 H                     0.106956
     86 H                     0.096391
     87 H                     0.127531
     88 H                     0.100258
     89 H                     0.126991
     90 H                     0.109919
     91 H                     0.113904
     92 H                     0.142401
     93 H                     0.113598
     94 C                    -0.167307
     95 H                     0.088553
     96 H                     0.117175
     97 H                     0.091125
     98 C                    -0.194501
     99 H                     0.090023
    100 C                    -0.162119
    101 H                     0.082201
    102 H                     0.090416
    103 H                     0.089200
    104 C                    -0.164252
    105 H                     0.094486
    106 C                    -0.316445
    107 H                     0.093276
    108 H                     0.100839
    109 H                     0.100025
    110 H                     0.095951
  ----------------------------------------
  Sum of atomic charges =     0.000000

                    Cartesian Multipole Moments
 -----------------------------------------------------------------
    Charge (ESU x 10^10)
                 0.0000
    Dipole Moment (Debye)
         X       1.8292      Y      -0.1277      Z      -1.5454
       Tot       2.3980
    Quadrupole Moments (Debye-Ang)
        XX    -384.9253     XY      -1.5859     YY    -393.7391
        XZ       0.5527     YZ       1.3108     ZZ    -450.7773

 Total job time:  81.38s(wall), 956.43s(cpu)
        *  Thank you very much for using Q-Chem.  Have a nice day.  *
