 Q-Chem 4.4, Q-Chem, Inc., Pleasanton, CA (2016)
 Q-Chem 4.4.2 for Intel X86 Linux

User input:
--------------------------------------------------------------
$comment
SP
$end

$rem
MEM_STATIC 5000
MEM_TOTAL 20000
JOBTYPE SP
EXCHANGE B3LYP
BASIS 6-31g(d,p)
$end

$molecule
0 1
C         -21.758000     -3.179000      2.082000
C         -22.947000     -3.642000      1.610000
N         -21.051000     -3.801000      3.033000
C         -23.706000     -4.658000      2.210000
C         -21.677000     -4.803000      3.628000
C         -23.005000     -5.277000      3.261000
C         -23.697000     -6.424000      3.951000
C         -25.160000     -6.427000      4.154000
C         -23.135000     -7.640000      4.301000
N         -25.898000     -7.468000      4.450000
N         -21.826000     -7.873000      4.269000
C         -23.924000     -8.758000      4.641000
C         -25.302000     -8.701000      4.542000
S         -21.625000     -9.356000      4.847000
N         -23.167000     -9.800000      5.021000
C         -26.231000     -9.794000      4.769000
S         -27.864000     -9.698000      5.567000
C         -26.058000    -11.099000      4.271000
C         -28.247000    -11.359000      5.185000
S         -24.868000    -11.714000      3.158000
C         -27.133000    -11.912000      4.528000
C         -29.436000    -12.127000      5.495000
C         -25.773000    -13.268000      3.095000
C         -26.979000    -13.192000      3.836000
N         -29.234000    -13.327000      5.943000
S         -30.936000    -11.306000      5.899000
C         -30.384000    -13.772000      6.547000
C         -31.430000    -12.834000      6.580000
C         -20.963000     -2.099000      1.365000
H         -23.384000     -3.194000      0.724000
H         -24.706000     -4.930000      1.885000
H         -21.121000     -5.423000      4.330000
H         -25.698000     -5.488000      4.030000
H         -25.331000    -14.040000      2.480000
H         -27.666000    -14.031000      3.853000
H         -30.405000    -14.814000      6.837000
H         -32.459000    -12.957000      6.887000
H         -19.878000     -2.215000      1.485000
C         -21.512000     -0.659000      1.628000
H         -21.088000     -2.275000      0.290000
H         -21.319000     -0.381000      2.671000
H         -22.576000     -0.752000      1.377000
C         -20.866000      0.362000      0.711000
H         -19.853000      0.561000      1.082000
C         -21.688000      1.682000      0.600000
H         -20.754000      0.003000     -0.319000
H         -21.607000      2.313000      1.492000
H         -22.736000      1.461000      0.363000
C         -21.101000      2.691000     -0.493000
H         -21.714000      3.596000     -0.580000
C         -20.956000      2.039000     -1.913000
H         -20.129000      3.010000     -0.094000
H         -19.967000      1.591000     -2.066000
H         -21.226000      2.755000     -2.700000
H         -21.740000      1.297000     -2.109000
C         -20.399000    -11.952000      2.243000
C         -20.260000    -13.031000      3.157000
N         -21.192000    -12.072000      1.156000
C         -20.993000    -14.211000      2.944000
C         -21.832000    -13.228000      0.941000
C         -21.792000    -14.349000      1.837000
C         -22.635000    -15.568000      1.554000
C         -23.507000    -16.132000      2.522000
C         -22.690000    -16.157000      0.301000
N         -24.248000    -17.199000      2.319000
N         -21.871000    -15.691000     -0.692000
C         -23.526000    -17.249000      0.032000
C         -24.282000    -17.797000      1.102000
S         -22.297000    -16.614000     -1.944000
N         -23.313000    -17.646000     -1.215000
C         -24.888000    -19.142000      0.941000
S         -24.757000    -20.232000     -0.491000
C         -25.652000    -19.836000      1.857000
C         -25.767000    -21.466000      0.229000
S         -25.962000    -19.431000      3.507000
C         -26.062000    -21.118000      1.505000
C         -25.902000    -22.782000     -0.382000
C         -26.807000    -20.987000      3.682000
C         -26.851000    -21.748000      2.520000
N         -26.319000    -23.793000      0.326000
S         -25.301000    -23.189000     -2.027000
C         -26.409000    -24.908000     -0.470000
C         -26.033000    -24.781000     -1.748000
C         -19.584000    -10.673000      2.329000
H         -19.645000    -12.927000      4.044000
H         -20.973000    -14.954000      3.734000
H         -22.501000    -13.165000      0.083000
H         -23.615000    -15.643000      3.487000
H         -27.244000    -21.268000      4.631000
H         -27.208000    -22.771000      2.490000
H         -26.749000    -25.793000      0.052000
H         -26.051000    -25.573000     -2.486000
H         -20.260000     -9.887000      2.688000
C         -18.858000    -10.258000      0.987000
H         -18.827000    -10.783000      3.115000
H         -19.484000    -10.599000      0.153000
H         -17.950000    -10.873000      0.967000
C         -18.573000     -8.702000      0.859000
H         -18.392000     -8.376000     -0.172000
C         -17.519000     -8.085000      1.789000
H         -19.409000     -8.174000      1.334000
H         -17.752000     -8.103000      2.861000
H         -17.397000     -7.038000      1.484000
C         -16.061000     -8.740000      1.637000
H         -15.430000     -8.213000      2.362000
C         -15.593000     -8.558000      0.201000
H         -16.101000     -9.834000      1.707000
H         -14.610000     -9.018000      0.043000
H         -15.435000     -7.505000     -0.060000
H         -16.198000     -9.003000     -0.599000
$end

--------------------------------------------------------------

             Standard Nuclear Orientation (Angstroms)
    I     Atom           X                Y                Z
 ----------------------------------------------------------------
    1      C      -9.2125880822     0.3960675442    -0.6432074024
    2      C      -8.4596760965    -0.2462815412    -1.5766875545
    3      N      -8.8319373215     0.5503181321     0.6305452245
    4      C      -7.3373241266    -1.0389638436    -1.2932835618
    5      C      -7.7533878434    -0.1327575214     0.9770184193
    6      C      -6.9646390304    -0.9451379217     0.0600329257
    7      C      -5.7362279362    -1.7117957288     0.4769441760
    8      C      -5.4105634554    -3.0226793260    -0.1206458510
    9      C      -4.7067767226    -1.2522219711     1.2806992133
   10      N      -4.2492070975    -3.6269085246    -0.0748257075
   11      N      -4.7788902306    -0.1245838822     1.9821448508
   12      C      -3.4617626987    -1.9103677071     1.3501921664
   13      C      -3.1944622786    -2.9947957884     0.5350233360
   14      S      -3.4219335857    -0.0444830139     2.8342167461
   15      N      -2.6479832217    -1.3347880191     2.2500165856
   16      C      -1.9343283123    -3.7094867805     0.4325627449
   17      S      -1.7040445611    -5.5027914280     0.2234292106
   18      C      -0.6746346533    -3.0882051357     0.3423463198
   19      C       0.0215483671    -5.3452378592     0.0019796250
   20      S      -0.2789440252    -1.4031288996     0.1498859208
   21      C       0.3451526948    -3.9831860972     0.1381752078
   22      C       1.0203916943    -6.3699459526    -0.2259026499
   23      C       1.4420382626    -1.8660002176    -0.0988712062
   24      C       1.5974009070    -3.2746549613    -0.1279789666
   25      N       2.1106341839    -6.2620169703     0.4678052486
   26      S       0.5413770389    -7.9514535095    -0.8230925755
   27      C       2.7679338774    -7.4673705469     0.4472901738
   28      C       2.0949377827    -8.4908450616    -0.2416402828
   29      C     -10.3978360807     1.2725861798    -1.0165922753
   30      H      -8.7374944471    -0.1875256288    -2.6236038390
   31      H      -6.8227389866    -1.6372903275    -2.0394849772
   32      H      -7.3240113955     0.0343917739     1.9639515371
   33      H      -6.1910379645    -3.5433570893    -0.6740852854
   34      H       2.1298739626    -1.0436297525    -0.2408636986
   35      H       2.5688115261    -3.7153115203    -0.3238416894
   36      H       3.7660741218    -7.4802105157     0.8642508287
   37      H       2.4308408205    -9.4842049184    -0.5036027690
   38      H     -10.5419349824     2.1144860696    -0.3270119086
   39      C     -11.6872262700     0.4510722798    -1.3433304761
   40      H     -10.1291027282     1.7893852413    -1.9455309791
   41      H     -12.0685702113    -0.0084085297    -0.4236369488
   42      H     -11.3365493612    -0.2686258210    -2.0935346811
   43      C     -12.7681162861     1.3247628647    -1.9507739179
   44      H     -13.2177469730     1.9199217966    -1.1463927326
   45      C     -13.8542580330     0.5040987510    -2.7105182947
   46      H     -12.3789495865     2.0399317082    -2.6852177927
   47      H     -14.5430113795    -0.0196710531    -2.0384542947
   48      H     -13.3838432132    -0.1900414139    -3.4177617668
   49      C     -14.8986360681     1.4281560210    -3.4932645382
   50      H     -15.6312546951     0.8309676447    -4.0491413146
   51      C     -14.2074150265     2.4311197300    -4.4826109234
   52      H     -15.4571973220     1.9554025745    -2.7085566960
   53      H     -13.9894966564     3.3967853338    -4.0111922925
   54      H     -14.7902050220     2.5301571154    -5.4075284427
   55      H     -13.2942495939     2.0128796775    -4.9240179365
   56      C      -1.0147457496     2.8023898709     1.7740896314
   57      C      -0.0575157522     2.5831663896     2.8010315953
   58      N      -0.6463006454     2.7692298101     0.4748719377
   59      C       1.2704116112     2.2850270848     2.4506320056
   60      C       0.6371007913     2.5446730867     0.1672747495
   61      C       1.6590009227     2.2607862114     1.1348414725
   62      C       3.0545529686     1.9171085530     0.6754732604
   63      C       3.7402105060     0.7581186444     1.1250509881
   64      C       3.7197589883     2.6542565421    -0.2909990845
   65      N       4.9595883180     0.4301339303     0.7585502667
   66      N       3.1430490968     3.7989671406    -0.7716334017
   67      C       4.9894648988     2.2886288456    -0.7577798557
   68      C       5.6264002340     1.1661061539    -0.1653305453
   69      S       4.2177191745     4.2839099705    -1.8720077362
   70      N       5.4063053606     3.2120170028    -1.6131074774
   71      C       7.0820780347     0.9694533221    -0.3763087537
   72      S       8.2026589948     2.0364670613    -1.3045678729
   73      C       7.8725424193    -0.0519036631     0.1098845881
   74      C       9.5866241412     1.0062346986    -1.0138485022
   75      S       7.4442868170    -1.2778709760     1.2484039277
   76      C       9.2343282535     0.0073591158    -0.1686028707
   77      C      10.9349611187     1.4388785963    -1.3576633548
   78      C       9.1381378773    -1.8222061280     1.2295936212
   79      C       9.9620106169    -1.0990512126     0.3754380867
   80      N      11.9670142687     0.8664093857    -0.8059212968
   81      S      11.2980443610     2.9010249097    -2.3390774964
   82      C      13.1217103050     1.4061326766    -1.3161338340
   83      C      12.9942343622     2.3977793489    -2.2056144472
   84      C      -2.4494757436     3.2220803483     2.0440373067
   85      H      -0.3567070597     2.5829521085     3.8432861303
   86      H       1.9366129858     1.9835910973     3.2517943324
   87      H       0.7846358690     2.4583686861    -0.9090518512
   88      H       3.2280518947     0.0615435073     1.7842069904
   89      H       9.4503286739    -2.6585802802     1.8407778686
   90      H      11.0393944360    -1.2142918910     0.3464261522
   91      H      14.0256800266     0.9793351179    -0.9014151507
   92      H      13.8149854624     2.9137937583    -2.6876193858
   93      H      -3.0807388188     2.3465136637     1.8477138221
   94      C      -2.9328710585     4.4906218431     1.2332374267
   95      H      -2.5669350970     3.4275631815     3.1149831997
   96      H      -2.4043938054     4.4899445008     0.2717675446
   97      H      -2.5427253958     5.3429551278     1.8028015878
   98      C      -4.5012070682     4.5498995314     0.9975399161
   99      H      -4.7930690395     5.2144026355     0.1758038183
  100      C      -5.4021398367     4.8052667308     2.2139332489
  101      H      -4.8526399990     3.5198974155     0.8600788802
  102      H      -5.4001004546     4.0270925190     2.9873915457
  103      H      -6.4273540976     4.9083933505     1.8365493335
  104      C      -5.0909019741     6.1875299811     2.9691632138
  105      H      -5.7941576114     6.2230229383     3.8092148542
  106      C      -5.2827510265     7.3329118728     1.9865451480
  107      H      -4.0237550211     6.2883651066     3.2023276579
  108      H      -5.0514799012     8.2982975751     2.4528037806
  109      H      -6.3248843236     7.4403994266     1.6635921841
  110      H      -4.6602775942     7.3471091026     1.0830102761
 ----------------------------------------------------------------

   10   -5663.5025785293      3.94E-06 Convergence criterion met
 Total energy in the final basis set = -5663.5025785293

                    Orbital Energies (a.u.)
 --------------------------------------------------------------

 Alpha MOs
 -- Occupied --
-88.992 -88.986 -88.930 -88.926 -88.926 -88.924 -88.910 -88.902
-14.385 -14.384 -14.376 -14.370 -14.355 -14.346 -14.344 -14.343
-14.329 -14.327 -10.274 -10.272 -10.268 -10.257 -10.253 -10.253
-10.247 -10.247 -10.245 -10.241 -10.241 -10.240 -10.237 -10.237
-10.236 -10.235 -10.233 -10.230 -10.230 -10.229 -10.226 -10.226
-10.226 -10.224 -10.224 -10.224 -10.220 -10.220 -10.218 -10.217
-10.212 -10.211 -10.208 -10.205 -10.202 -10.202 -10.198 -10.193
-10.187 -10.181 -10.180 -10.180 -10.179 -10.179 -10.176 -10.175
-10.173 -10.172 -10.172 -10.163  -8.048  -8.042  -7.991  -7.987
 -7.984  -7.983  -7.970  -7.963  -6.013  -6.007  -6.007  -6.006
 -6.001  -6.000  -5.955  -5.952  -5.951  -5.949  -5.948  -5.947
 -5.947  -5.945  -5.944  -5.943  -5.941  -5.940  -5.934  -5.931
 -5.927  -5.926  -5.923  -5.919  -1.048  -1.044  -0.980  -0.976
 -0.967  -0.956  -0.946  -0.939  -0.919  -0.911  -0.907  -0.901
 -0.845  -0.838  -0.834  -0.828  -0.813  -0.812  -0.810  -0.805
 -0.803  -0.799  -0.795  -0.794  -0.779  -0.777  -0.767  -0.760
 -0.749  -0.743  -0.737  -0.732  -0.723  -0.721  -0.710  -0.704
 -0.695  -0.685  -0.680  -0.670  -0.654  -0.652  -0.647  -0.643
 -0.638  -0.633  -0.630  -0.625  -0.615  -0.611  -0.601  -0.598
 -0.591  -0.587  -0.586  -0.582  -0.581  -0.574  -0.560  -0.555
 -0.547  -0.546  -0.539  -0.538  -0.527  -0.521  -0.514  -0.512
 -0.510  -0.506  -0.502  -0.501  -0.488  -0.484  -0.479  -0.476
 -0.474  -0.472  -0.470  -0.466  -0.462  -0.455  -0.451  -0.449
 -0.445  -0.441  -0.439  -0.438  -0.434  -0.431  -0.429  -0.429
 -0.427  -0.426  -0.424  -0.422  -0.420  -0.416  -0.415  -0.413
 -0.412  -0.408  -0.407  -0.402  -0.398  -0.397  -0.395  -0.394
 -0.393  -0.393  -0.391  -0.388  -0.388  -0.386  -0.384  -0.381
 -0.378  -0.378  -0.367  -0.367  -0.365  -0.361  -0.355  -0.354
 -0.352  -0.348  -0.346  -0.346  -0.344  -0.341  -0.340  -0.338
 -0.338  -0.337  -0.334  -0.331  -0.330  -0.325  -0.322  -0.316
 -0.313  -0.310  -0.309  -0.309  -0.307  -0.303  -0.301  -0.300
 -0.295  -0.294  -0.292  -0.288  -0.287  -0.285  -0.283  -0.279
 -0.279  -0.273  -0.265  -0.260  -0.257  -0.253  -0.253  -0.248
 -0.247  -0.243  -0.235  -0.226  -0.198  -0.187

          Ground-State Mulliken Net Atomic Charges

     Atom                 Charge (a.u.)
  ----------------------------------------
      1 C                     0.270881
      2 C                    -0.117369
      3 N                    -0.463216
      4 C                    -0.058924
      5 C                     0.089680
      6 C                     0.011262
      7 C                     0.000655
      8 C                     0.057045
      9 C                     0.225676
     10 N                    -0.488930
     11 N                    -0.558702
     12 C                     0.232083
     13 C                     0.240320
     14 S                     0.612620
     15 N                    -0.539325
     16 C                    -0.227327
     17 S                     0.320832
     18 C                    -0.103809
     19 C                    -0.204108
     20 S                     0.259170
     21 C                     0.136891
     22 C                     0.036010
     23 C                    -0.310752
     24 C                    -0.063932
     25 N                    -0.388803
     26 S                     0.276810
     27 C                     0.113946
     28 C                    -0.311843
     29 C                    -0.236909
     30 H                     0.082340
     31 H                     0.115319
     32 H                     0.118657
     33 H                     0.103725
     34 H                     0.132918
     35 H                     0.118476
     36 H                     0.117936
     37 H                     0.138965
     38 H                     0.114225
     39 C                    -0.170289
     40 H                     0.097591
     41 H                     0.108097
     42 H                     0.091553
     43 C                    -0.172889
     44 H                     0.092903
     45 C                    -0.181550
     46 H                     0.096049
     47 H                     0.091722
     48 H                     0.089295
     49 C                    -0.185749
     50 H                     0.093143
     51 C                    -0.323430
     52 H                     0.095630
     53 H                     0.110287
     54 H                     0.097746
     55 H                     0.101193
     56 C                     0.268770
     57 C                    -0.124088
     58 N                    -0.476727
     59 C                    -0.071848
     60 C                     0.105860
     61 C                     0.034940
     62 C                     0.001933
     63 C                     0.054137
     64 C                     0.177093
     65 N                    -0.508025
     66 N                    -0.531446
     67 C                     0.250999
     68 C                     0.308653
     69 S                     0.612303
     70 N                    -0.574835
     71 C                    -0.218275
     72 S                     0.318612
     73 C                    -0.121643
     74 C                    -0.251073
     75 S                     0.287148
     76 C                     0.163731
     77 C                     0.076438
     78 C                    -0.308156
     79 C                    -0.051609
     80 N                    -0.432485
     81 S                     0.251337
     82 C                     0.132172
     83 C                    -0.305550
     84 C                    -0.234447
     85 H                     0.090567
     86 H                     0.101582
     87 H                     0.106361
     88 H                     0.124168
     89 H                     0.126106
     90 H                     0.131021
     91 H                     0.111380
     92 H                     0.133822
     93 H                     0.119257
     94 C                    -0.181599
     95 H                     0.096890
     96 H                     0.126480
     97 H                     0.093554
     98 C                    -0.189168
     99 H                     0.098413
    100 C                    -0.182559
    101 H                     0.108967
    102 H                     0.086502
    103 H                     0.096225
    104 C                    -0.173955
    105 H                     0.091876
    106 C                    -0.321281
    107 H                     0.094271
    108 H                     0.091649
    109 H                     0.096193
    110 H                     0.105565
  ----------------------------------------
  Sum of atomic charges =     0.000000

                    Cartesian Multipole Moments
 -----------------------------------------------------------------
    Charge (ESU x 10^10)
                 0.0000
    Dipole Moment (Debye)
         X       3.6109      Y      -0.7584      Z      -1.3139
       Tot       3.9167
    Quadrupole Moments (Debye-Ang)
        XX    -398.0589     XY      -0.3782     YY    -419.2335
        XZ       5.6936     YZ       0.0630     ZZ    -435.5717

 Total job time:  91.16s(wall), 1078.14s(cpu)
        *  Thank you very much for using Q-Chem.  Have a nice day.  *
