 Q-Chem 4.4, Q-Chem, Inc., Pleasanton, CA (2016)
 Q-Chem 4.4.2 for Intel X86 Linux

User input:
--------------------------------------------------------------
$comment
SP
$end

$rem
MEM_STATIC 5000
MEM_TOTAL 20000
JOBTYPE SP
EXCHANGE B3LYP
BASIS 6-31g(d,p)
$end

$molecule
0 1
C          16.733000    -21.742000     -0.386000
C          16.577000    -21.557000      0.998000
N          16.681000    -22.957000     -0.997000
C          16.617000    -22.655000      1.852000
C          16.728000    -24.011000     -0.131000
C          16.661000    -23.935000      1.263000
C          16.502000    -25.171000      2.102000
C          15.708000    -25.275000      3.266000
C          17.243000    -26.434000      1.893000
N          15.491000    -26.342000      4.035000
N          18.154000    -26.569000      0.915000
C          17.080000    -27.529000      2.739000
C          16.035000    -27.491000      3.723000
S          18.752000    -28.093000      1.255000
N          17.899000    -28.523000      2.614000
C          15.591000    -28.592000      4.613000
S          14.990000    -28.480000      6.261000
C          15.429000    -29.919000      4.147000
C          14.608000    -30.177000      6.302000
S          15.711000    -30.663000      2.517000
C          14.967000    -30.776000      5.142000
C          13.769000    -30.690000      7.360000
C          15.152000    -32.194000      3.250000
C          14.736000    -32.106000      4.551000
N          14.043000    -31.932000      7.774000
S          12.965000    -29.641000      8.470000
C          13.386000    -32.136000      9.021000
C          12.790000    -31.023000      9.502000
C          16.658000    -20.557000     -1.321000
H          16.587000    -20.562000      1.434000
H          16.494000    -22.579000      2.928000
H          16.790000    -24.979000     -0.626000
H          15.106000    -24.409000      3.539000
H          15.102000    -33.074000      2.625000
H          14.273000    -32.908000      5.114000
H          13.483000    -33.081000      9.540000
H          12.230000    -30.885000     10.417000
H          16.980000    -19.630000     -0.831000
C          15.228000    -20.314000     -1.900000
H          17.253000    -20.747000     -2.223000
H          14.922000    -21.153000     -2.536000
H          15.179000    -19.492000     -2.625000
C          14.158000    -20.144000     -0.846000
H          13.228000    -20.046000     -1.421000
C          14.291000    -18.836000     -0.040000
H          14.050000    -20.981000     -0.146000
H          14.187000    -18.031000     -0.777000
H          15.269000    -18.747000      0.449000
C          13.298000    -18.613000      1.105000
H          12.288000    -18.769000      0.706000
C          13.381000    -17.174000      1.676000
H          13.531000    -19.364000      1.870000
H          13.171000    -16.483000      0.850000
H          14.281000    -16.903000      2.240000
H          12.530000    -16.972000      2.338000
C          18.605000    -26.960000    -12.713000
C          17.976000    -28.201000    -12.473000
N          18.618000    -26.017000    -11.793000
C          17.343000    -28.450000    -11.235000
C          17.982000    -26.214000    -10.609000
C          17.313000    -27.425000    -10.249000
C          16.736000    -27.640000     -8.852000
C          15.570000    -28.368000     -8.627000
C          17.343000    -27.177000     -7.640000
N          15.082000    -28.717000     -7.448000
N          18.503000    -26.457000     -7.639000
C          16.838000    -27.530000     -6.387000
C          15.661000    -28.295000     -6.347000
S          18.781000    -26.258000     -6.061000
N          17.555000    -27.046000     -5.361000
C          14.975000    -28.616000     -5.074000
S          15.564000    -28.286000     -3.403000
C          13.727000    -29.270000     -4.941000
C          14.142000    -29.090000     -2.678000
S          12.609000    -29.843000     -6.133000
C          13.309000    -29.502000     -3.647000
C          13.979000    -29.146000     -1.244000
C          11.424000    -30.188000     -4.813000
C          11.976000    -29.986000     -3.578000
N          14.472000    -28.131000     -0.533000
S          12.845000    -30.178000     -0.481000
C          13.943000    -28.189000      0.755000
C          13.079000    -29.219000      0.978000
C          19.241000    -26.611000    -14.053000
H          18.251000    -28.983000    -13.173000
H          17.003000    -29.466000    -11.058000
H          18.079000    -25.346000     -9.957000
H          14.986000    -28.713000     -9.480000
H          10.450000    -30.588000     -5.063000
H          11.415000    -30.153000     -2.665000
H          14.184000    -27.359000      1.405000
H          12.523000    -29.345000      1.898000
H          20.133000    -25.974000    -14.008000
C          18.198000    -26.158000    -15.095000
H          19.546000    -27.582000    -14.463000
H          17.776000    -25.189000    -14.803000
H          17.341000    -26.837000    -15.190000
C          18.880000    -25.979000    -16.510000
H          19.448000    -25.042000    -16.548000
C          17.779000    -26.191000    -17.589000
H          19.552000    -26.838000    -16.631000
H          17.244000    -27.149000    -17.567000
H          18.299000    -26.252000    -18.554000
C          16.789000    -25.005000    -17.607000
H          16.241000    -24.784000    -16.681000
C          15.845000    -25.228000    -18.811000
H          17.349000    -24.086000    -17.819000
H          15.114000    -25.997000    -18.534000
H          16.279000    -25.504000    -19.780000
H          15.194000    -24.353000    -18.930000
$end

--------------------------------------------------------------

             Standard Nuclear Orientation (Angstroms)
    I     Atom           X                Y                Z
 ----------------------------------------------------------------
    1      C      -1.0838539628    -5.6594729831    -0.6565801218
    2      C      -2.4461758623    -6.0030928059    -0.6612125649
    3      N      -0.6274464446    -4.3773531068    -0.6671062864
    4      C      -3.4039459946    -5.0325084303    -0.9389936722
    5      C      -1.5910558661    -3.4524166367    -0.9482297629
    6      C      -2.9627726566    -3.6986075797    -1.0544562481
    7      C      -3.9497979512    -2.5701208138    -1.1503556065
    8      C      -5.2195820882    -2.5369766571    -0.5317299439
    9      C      -3.7807119172    -1.3708559911    -1.9995345030
   10      N      -6.1270204197    -1.5605580938    -0.5418028667
   11      N      -2.7040313188    -1.2035276179    -2.7852762573
   12      C      -4.7592993921    -0.3820058246    -2.0760322301
   13      C      -5.8719702414    -0.4410405768    -1.1703813707
   14      S      -3.1246331043     0.1974833415    -3.5952407194
   15      N      -4.6313382643     0.5333231318    -2.9816926805
   16      C      -6.9346717302     0.5760857418    -0.9765861237
   17      S      -8.6284291860     0.3151127219    -0.5857821268
   18      C      -6.6491911565     1.9611775980    -0.9106286233
   19      C      -8.9146324184     2.0225370560    -0.4119895697
   20      S      -5.0899739331     2.8752756875    -1.0630305034
   21      C      -7.7902090611     2.7259144645    -0.6844126503
   22      C     -10.1327214536     2.4772942157     0.2172234532
   23      C      -6.0632071096     4.3482127751    -0.7855336200
   24      C      -7.3920200935     4.1367835070    -0.5346258317
   25      N     -10.6406217053     3.6228294688    -0.2505610250
   26      S     -11.2208782023     1.3805202968     0.9865860862
   27      C     -11.9837040845     3.7304293435     0.2107696479
   28      C     -12.4164219174     2.6300503115     0.8644264868
   29      C      -0.0416350703    -6.7020921293    -0.3237136378
   30      H      -2.7613094859    -7.0416034810    -0.6121475388
   31      H      -4.4709829913    -5.2325515894    -0.9487805117
   32      H      -1.2045714821    -2.4401887379    -1.0573970740
   33      H      -5.4764740600    -3.3664751036     0.1261665845
   34      H      -5.5549883720     5.3013351928    -0.7573135617
   35      H      -8.1022009652     4.9024640017    -0.2449389155
   36      H     -12.5866782572     4.5870996931    -0.0618712495
   37      H     -13.3806366437     2.4328630469     1.3130645862
   38      H      -0.3729259218    -7.7114437480    -0.5967863050
   39      C       0.3506393875    -6.7256798525     1.1878267583
   40      H       0.9089395236    -6.4587326214    -0.8145426217
   41      H       0.8376966684    -5.7861326931     1.4743216801
   42      H       1.1491694849    -7.4394653318     1.4256711888
   43      C      -0.8195575123    -6.9214178133     2.1243318925
   44      H      -0.3760775117    -6.8521943197     3.1261615173
   45      C      -1.4456437835    -8.3282544299     2.0405720271
   46      H      -1.6176415323    -6.1740133350     2.0425917987
   47      H      -0.6450934105    -9.0182584795     2.3321599416
   48      H      -1.7766211090    -8.5758181008     1.0243573653
   49      C      -2.6883378367    -8.5955687636     2.8955910545
   50      H      -2.4579832080    -8.2901862175     3.9238494100
   51      C      -3.0757339321   -10.0967182370     2.9067947874
   52      H      -3.4918913066    -7.9752654915     2.4796094784
   53      H      -2.2156745184   -10.6523185789     3.3010828357
   54      H      -3.4710951616   -10.5256887298     1.9787803401
   55      H      -3.8255655817   -10.2958169538     3.6822696086
   56      C      10.7166328162     0.8762350540    -1.5050312012
   57      C      10.2508405635     2.1328640195    -1.0609104742
   58      N       9.9201552188    -0.1730134954    -1.5278109872
   59      C       8.9149667929     2.2836302746    -0.6272691415
   60      C       8.6428112816    -0.0663733718    -1.0781651822
   61      C       8.0566872301     1.1493214964    -0.6067560353
   62      C       6.5763088506     1.2406750146    -0.2449585941
   63      C       6.1063163605     2.0464293262     0.7894649404
   64      C       5.5235290658     0.5687199639    -0.9463095293
   65      N       4.8379150590     2.2889729033     1.0763739008
   66      N       5.7695388096    -0.2573780817    -2.0051023443
   67      C       4.1794831473     0.8074611962    -0.6527346786
   68      C       3.8856560324     1.6744270054     0.4122488481
   69      S       4.2800834965    -0.6827639994    -2.4606664905
   70      N       3.3276881536     0.1275659936    -1.4358111770
   71      C       2.4996746180     1.8970539510     0.8851745949
   72      S       0.9780009741     1.2995734308     0.1264992036
   73      C       2.1167624476     2.6496837746     2.0208838968
   74      C      -0.0288010561     2.1420115567     1.3392533732
   75      S       3.0644230368     3.4784993811     3.2100521347
   76      C       0.7584780196     2.7551290717     2.2375142316
   77      C      -1.4684522582     2.0305325314     1.3070377991
   78      C       1.5581826250     3.7684810084     4.1654580577
   79      C       0.4455057527     3.3566257629     3.4849740869
   80      N      -1.9826841342     0.8891227987     0.8470982378
   81      S      -2.4971443132     3.0644511763     2.2047871470
   82      C      -3.3313256238     0.8346753225     1.1940140850
   83      C      -3.7902159366     1.9086449680     1.8962490039
   84      C      12.1645023450     0.6395024597    -1.9167695967
   85      H      10.8903154070     2.9664986457    -1.3316026142
   86      H       8.5777991597     3.2974974813    -0.4334231349
   87      H       8.1134105108    -1.0157770266    -1.1575662162
   88      H       6.8226839588     2.5538452702     1.4352485914
   89      H       1.6196717012     4.2920533431     5.1105861462
   90      H      -0.5512631841     3.4607732773     3.8994423992
   91      H      -3.8424560669    -0.0913069787     0.9686622534
   92      H      -4.7885317905     1.9709420594     2.3096453369
   93      H      12.3195776221    -0.0836282529    -2.7270113080
   94      C      13.0910367108     0.4292371687    -0.7018026932
   95      H      12.5018094220     1.6196586987    -2.2766080092
   96      H      12.8528054247    -0.5222441777    -0.2116617934
   97      H      12.9853956311     1.1967101407     0.0755905147
   98      C      14.6000678496     0.3652546653    -1.1688372330
   99      H      14.8242498411    -0.6110827698    -1.6144207240
  100      C      15.4797370295     0.8217184570     0.0308331136
  101      H      14.7182964538     1.1614841623    -1.9145895950
  102      H      15.2736384882     1.8175359190     0.4435605947
  103      H      16.4960766021     0.9532815107    -0.3629828793
  104      C      15.4895803768    -0.2478140269     1.1457426948
  105      H      14.5256203253    -0.5295052545     1.5907731112
  106      C      16.5133662156     0.2198266893     2.2057689760
  107      H      15.8816820307    -1.1833916437     0.7285427237
  108      H      16.0498109920     1.0161083456     2.8003302247
  109      H      17.4971104478     0.5726263558     1.8721933761
  110      H      16.6359325804    -0.5636603818     2.9638669219
 ----------------------------------------------------------------

    9   -5663.5302500735      8.10E-06 Convergence criterion met
 Total energy in the final basis set = -5663.5302500735

                    Orbital Energies (a.u.)
 --------------------------------------------------------------

 Alpha MOs
 -- Occupied --
-88.984 -88.977 -88.932 -88.930 -88.927 -88.918 -88.910 -88.906
-14.389 -14.389 -14.385 -14.381 -14.348 -14.345 -14.343 -14.343
-14.333 -14.319 -10.269 -10.267 -10.260 -10.258 -10.257 -10.254
-10.253 -10.249 -10.241 -10.239 -10.237 -10.236 -10.235 -10.233
-10.233 -10.232 -10.231 -10.231 -10.230 -10.229 -10.227 -10.227
-10.226 -10.225 -10.224 -10.223 -10.223 -10.222 -10.221 -10.217
-10.215 -10.214 -10.208 -10.202 -10.201 -10.201 -10.201 -10.197
-10.183 -10.183 -10.180 -10.179 -10.179 -10.178 -10.178 -10.178
-10.174 -10.172 -10.172 -10.169  -8.040  -8.033  -7.993  -7.992
 -7.986  -7.975  -7.969  -7.966  -6.005  -5.999  -5.998  -5.998
 -5.993  -5.991  -5.957  -5.955  -5.953  -5.952  -5.951  -5.950
 -5.949  -5.947  -5.943  -5.940  -5.936  -5.934  -5.932  -5.931
 -5.930  -5.926  -5.925  -5.922  -1.043  -1.042  -0.969  -0.968
 -0.966  -0.964  -0.935  -0.934  -0.918  -0.912  -0.909  -0.907
 -0.842  -0.838  -0.830  -0.827  -0.811  -0.809  -0.807  -0.805
 -0.802  -0.801  -0.796  -0.793  -0.781  -0.779  -0.767  -0.767
 -0.750  -0.747  -0.740  -0.739  -0.726  -0.720  -0.708  -0.706
 -0.693  -0.692  -0.672  -0.672  -0.658  -0.649  -0.644  -0.641
 -0.636  -0.631  -0.626  -0.624  -0.610  -0.608  -0.600  -0.596
 -0.595  -0.591  -0.586  -0.584  -0.580  -0.578  -0.567  -0.557
 -0.555  -0.546  -0.542  -0.541  -0.523  -0.520  -0.516  -0.512
 -0.507  -0.503  -0.502  -0.496  -0.486  -0.483  -0.476  -0.474
 -0.474  -0.471  -0.470  -0.465  -0.464  -0.459  -0.446  -0.442
 -0.441  -0.439  -0.438  -0.437  -0.437  -0.434  -0.434  -0.430
 -0.426  -0.424  -0.423  -0.418  -0.416  -0.415  -0.415  -0.412
 -0.411  -0.406  -0.405  -0.402  -0.399  -0.398  -0.396  -0.396
 -0.394  -0.392  -0.388  -0.387  -0.383  -0.383  -0.381  -0.381
 -0.380  -0.378  -0.374  -0.368  -0.365  -0.363  -0.361  -0.360
 -0.355  -0.354  -0.350  -0.348  -0.347  -0.346  -0.342  -0.341
 -0.339  -0.337  -0.333  -0.331  -0.330  -0.328  -0.324  -0.321
 -0.320  -0.316  -0.306  -0.305  -0.303  -0.303  -0.301  -0.296
 -0.295  -0.293  -0.290  -0.289  -0.286  -0.286  -0.285  -0.281
 -0.274  -0.273  -0.270  -0.263  -0.259  -0.258  -0.250  -0.248
 -0.243  -0.241  -0.234  -0.232  -0.198  -0.192

          Ground-State Mulliken Net Atomic Charges

     Atom                 Charge (a.u.)
  ----------------------------------------
      1 C                     0.264344
      2 C                    -0.111829
      3 N                    -0.467130
      4 C                    -0.079145
      5 C                     0.073887
      6 C                     0.051166
      7 C                     0.051294
      8 C                     0.026402
      9 C                     0.208297
     10 N                    -0.491583
     11 N                    -0.532937
     12 C                     0.240774
     13 C                     0.260417
     14 S                     0.575825
     15 N                    -0.534293
     16 C                    -0.226765
     17 S                     0.319461
     18 C                    -0.132165
     19 C                    -0.226223
     20 S                     0.272679
     21 C                     0.161809
     22 C                     0.035334
     23 C                    -0.302718
     24 C                    -0.057245
     25 N                    -0.417271
     26 S                     0.281597
     27 C                     0.113709
     28 C                    -0.302460
     29 C                    -0.225840
     30 H                     0.094858
     31 H                     0.102723
     32 H                     0.132853
     33 H                     0.098775
     34 H                     0.129642
     35 H                     0.119624
     36 H                     0.120213
     37 H                     0.135613
     38 H                     0.096814
     39 C                    -0.178657
     40 H                     0.114815
     41 H                     0.111209
     42 H                     0.091278
     43 C                    -0.181355
     44 H                     0.087528
     45 C                    -0.159411
     46 H                     0.097988
     47 H                     0.083927
     48 H                     0.079945
     49 C                    -0.177647
     50 H                     0.092751
     51 C                    -0.321292
     52 H                     0.089953
     53 H                     0.103829
     54 H                     0.103561
     55 H                     0.098962
     56 C                     0.271598
     57 C                    -0.120446
     58 N                    -0.475150
     59 C                    -0.083916
     60 C                     0.078408
     61 C                     0.026311
     62 C                     0.044413
     63 C                     0.041953
     64 C                     0.186667
     65 N                    -0.526463
     66 N                    -0.531228
     67 C                     0.229025
     68 C                     0.332016
     69 S                     0.610229
     70 N                    -0.556003
     71 C                    -0.236771
     72 S                     0.344733
     73 C                    -0.117509
     74 C                    -0.236599
     75 S                     0.268222
     76 C                     0.169663
     77 C                     0.037017
     78 C                    -0.320038
     79 C                    -0.057027
     80 N                    -0.421621
     81 S                     0.272611
     82 C                     0.111961
     83 C                    -0.289526
     84 C                    -0.215900
     85 H                     0.089181
     86 H                     0.104744
     87 H                     0.117242
     88 H                     0.105122
     89 H                     0.128738
     90 H                     0.115143
     91 H                     0.121659
     92 H                     0.139872
     93 H                     0.115566
     94 C                    -0.176063
     95 H                     0.089762
     96 H                     0.108750
     97 H                     0.097518
     98 C                    -0.182323
     99 H                     0.101248
    100 C                    -0.177730
    101 H                     0.086187
    102 H                     0.093106
    103 H                     0.087674
    104 C                    -0.171083
    105 H                     0.101727
    106 C                    -0.324948
    107 H                     0.095624
    108 H                     0.099865
    109 H                     0.105507
    110 H                     0.093388
  ----------------------------------------
  Sum of atomic charges =     0.000000

                    Cartesian Multipole Moments
 -----------------------------------------------------------------
    Charge (ESU x 10^10)
                 0.0000
    Dipole Moment (Debye)
         X      -3.0436      Y       1.3397      Z       2.6605
       Tot       4.2587
    Quadrupole Moments (Debye-Ang)
        XX    -390.3133     XY      10.3262     YY    -417.7688
        XZ     -17.1018     YZ       7.3709     ZZ    -442.2493

 Total job time:  82.92s(wall), 980.98s(cpu)
        *  Thank you very much for using Q-Chem.  Have a nice day.  *
