 Q-Chem 4.4, Q-Chem, Inc., Pleasanton, CA (2016)
 Q-Chem 4.4.2 for Intel X86 Linux

User input:
--------------------------------------------------------------
$comment
SP
$end

$rem
MEM_STATIC 5000
MEM_TOTAL 20000
JOBTYPE SP
EXCHANGE B3LYP
BASIS 6-31g(d,p)
$end

$molecule
0 1
C          21.335000    -21.394000    -16.758000
C          20.975000    -22.681000    -16.414000
N          22.107000    -20.655000    -15.904000
C          21.499000    -23.268000    -15.300000
C          22.600000    -21.181000    -14.819000
C          22.320000    -22.496000    -14.414000
C          22.813000    -23.047000    -13.119000
C          22.051000    -23.952000    -12.289000
C          24.059000    -22.662000    -12.579000
N          22.581000    -24.427000    -11.143000
N          24.928000    -21.824000    -13.128000
C          24.531000    -23.229000    -11.390000
C          23.804000    -24.140000    -10.598000
S          26.133000    -21.578000    -12.041000
N          25.680000    -22.646000    -10.952000
C          24.213000    -24.651000     -9.227000
S          25.759000    -24.430000     -8.368000
C          23.420000    -25.544000     -8.491000
C          25.157000    -25.294000     -6.950000
S          21.874000    -26.289000     -8.862000
C          23.950000    -25.834000     -7.199000
C          25.936000    -25.465000     -5.800000
C          21.935000    -27.054000     -7.286000
C          23.098000    -26.735000     -6.605000
N          26.974000    -24.610000     -5.668000
S          25.845000    -26.753000     -4.671000
C          27.635000    -24.964000     -4.487000
C          27.206000    -26.096000     -3.869000
C          20.805000    -20.659000    -17.984000
H          20.463000    -23.202000    -17.218000
H          21.380000    -24.345000    -15.221000
H          23.191000    -20.493000    -14.216000
H          21.084000    -24.367000    -12.572000
H          21.093000    -27.617000     -6.906000
H          23.282000    -27.141000     -5.616000
H          28.480000    -24.340000     -4.229000
H          27.534000    -26.623000     -2.984000
H          21.603000    -20.036000    -18.405000
C          19.627000    -19.726000    -17.699000
H          20.437000    -21.361000    -18.742000
H          19.447000    -19.079000    -18.565000
H          19.720000    -19.196000    -16.742000
C          18.274000    -20.532000    -17.529000
H          17.853000    -20.854000    -18.490000
C          17.142000    -19.661000    -16.937000
H          18.492000    -21.390000    -16.881000
H          17.148000    -18.628000    -17.305000
H          17.190000    -19.491000    -15.853000
C          15.791000    -20.475000    -17.117000
H          15.003000    -19.825000    -16.716000
C          15.657000    -21.750000    -16.286000
H          15.650000    -20.639000    -18.192000
H          15.690000    -21.533000    -15.211000
H          16.547000    -22.386000    -16.369000
H          14.798000    -22.347000    -16.619000
C          18.605000    -26.960000    -12.713000
C          17.976000    -28.201000    -12.473000
N          18.618000    -26.017000    -11.793000
C          17.343000    -28.450000    -11.235000
C          17.982000    -26.214000    -10.609000
C          17.313000    -27.425000    -10.249000
C          16.736000    -27.640000     -8.852000
C          15.570000    -28.368000     -8.627000
C          17.343000    -27.177000     -7.640000
N          15.082000    -28.717000     -7.448000
N          18.503000    -26.457000     -7.639000
C          16.838000    -27.530000     -6.387000
C          15.661000    -28.295000     -6.347000
S          18.781000    -26.258000     -6.061000
N          17.555000    -27.046000     -5.361000
C          14.975000    -28.616000     -5.074000
S          15.564000    -28.286000     -3.403000
C          13.727000    -29.270000     -4.941000
C          14.142000    -29.090000     -2.678000
S          12.609000    -29.843000     -6.133000
C          13.309000    -29.502000     -3.647000
C          13.979000    -29.146000     -1.244000
C          11.424000    -30.188000     -4.813000
C          11.976000    -29.986000     -3.578000
N          14.472000    -28.131000     -0.533000
S          12.845000    -30.178000     -0.481000
C          13.943000    -28.189000      0.755000
C          13.079000    -29.219000      0.978000
C          19.241000    -26.611000    -14.053000
H          18.251000    -28.983000    -13.173000
H          17.003000    -29.466000    -11.058000
H          18.079000    -25.346000     -9.957000
H          14.986000    -28.713000     -9.480000
H          10.450000    -30.588000     -5.063000
H          11.415000    -30.153000     -2.665000
H          14.184000    -27.359000      1.405000
H          12.523000    -29.345000      1.898000
H          20.133000    -25.974000    -14.008000
C          18.198000    -26.158000    -15.095000
H          19.546000    -27.582000    -14.463000
H          17.776000    -25.189000    -14.803000
H          17.341000    -26.837000    -15.190000
C          18.880000    -25.979000    -16.510000
H          19.448000    -25.042000    -16.548000
C          17.779000    -26.191000    -17.589000
H          19.552000    -26.838000    -16.631000
H          17.244000    -27.149000    -17.567000
H          18.299000    -26.252000    -18.554000
C          16.789000    -25.005000    -17.607000
H          16.241000    -24.784000    -16.681000
C          15.845000    -25.228000    -18.811000
H          17.349000    -24.086000    -17.819000
H          15.114000    -25.997000    -18.534000
H          16.279000    -25.504000    -19.780000
H          15.194000    -24.353000    -18.930000
$end

--------------------------------------------------------------

             Standard Nuclear Orientation (Angstroms)
    I     Atom           X                Y                Z
 ----------------------------------------------------------------
    1      C      -8.4359619140    -1.7499497178     0.8676047805
    2      C      -7.4567063655    -1.9665728190    -0.0802549153
    3      N      -8.4089099334    -0.6086960004     1.6214145329
    4      C      -6.5488860599    -0.9901944786    -0.3678112212
    5      C      -7.5367530167     0.3301443931     1.3871688754
    6      C      -6.5317869767     0.2114454237     0.4137194349
    7      C      -5.4823319748     1.2545518692     0.2286568984
    8      C      -4.1066979151     0.9601658281    -0.1023065328
    9      C      -5.7583662221     2.6240042914     0.4305136732
   10      N      -3.2239849464     1.9647828002    -0.2795170128
   11      N      -6.9287684264     3.1480128660     0.7687143440
   12      C      -4.7770679520     3.5946142097     0.2003743859
   13      C      -3.4441792349     3.3108623403    -0.1582431604
   14      S      -6.6936262858     4.7491490709     1.0429059326
   15      N      -5.1766745302     4.8413784564     0.5716256429
   16      C      -2.3151421726     4.3223751200    -0.2590410189
   17      S      -2.3979299420     6.1008603131    -0.1755269294
   18      C      -1.0057860055     3.9546600373    -0.6030846874
   19      C      -0.6426469129     6.2431487570    -0.3110241123
   20      S      -0.3117517775     2.3895790278    -0.9924687187
   21      C      -0.0863548300     5.0443161693    -0.5635900346
   22      C       0.0053614129     7.4831556842    -0.2786199467
   23      C       1.2393119390     3.1888221367    -1.1602000518
   24      C       1.1393252097     4.5537221431    -0.9477344631
   25      N      -0.7052444422     8.4969658909     0.2627867244
   26      S       1.4912974826     7.8937763968    -1.0304514619
   27      C       0.0967381275     9.6395838512     0.1719783852
   28      C       1.2569852980     9.5111908575    -0.5242476862
   29      C      -9.4933306309    -2.7787553274     1.2519632256
   30      H      -7.6499566568    -2.8451135968    -0.6892060024
   31      H      -5.9740868637    -1.1196944023    -1.2805908518
   32      H      -7.6086109602     1.1858211046     2.0571597719
   33      H      -3.7348117596    -0.0412779801    -0.3172809181
   34      H       2.1463367748     2.6199707183    -1.3152710388
   35      H       2.0178717815     5.1854143109    -1.0247664453
   36      H      -0.3315042521    10.5362823602     0.5991847150
   37      H       2.0423802517    10.2070375851    -0.7840362510
   38      H     -10.4394795626    -2.2647505410     1.4587850780
   39      C      -9.1558579648    -3.5921883867     2.5024978543
   40      H      -9.6350690825    -3.5212790279     0.4573810929
   41      H     -10.0416145497    -4.1435121319     2.8378221755
   42      H      -8.6635457076    -2.9969804589     3.2827248495
   43      C      -8.0901405099    -4.7221716632     2.1918065263
   44      H      -8.5324741850    -5.5890827012     1.6846061989
   45      C      -7.5025192950    -5.3451250777     3.4791135415
   46      H      -7.3035688623    -4.2610406213     1.5816793221
   47      H      -8.2388298395    -5.4613310217     4.2834094824
   48      H      -6.7360034585    -4.7470160577     3.9899746503
   49      C      -6.7119256695    -6.6502418029     3.0411306047
   50      H      -6.3303620621    -7.0867715388     3.9728473015
   51      C      -5.4493431940    -6.4260195674     2.2106175815
   52      H      -7.4335761654    -7.3235670916     2.5633695583
   53      H      -4.7035682094    -5.8424542241     2.7647603091
   54      H      -5.6287930223    -5.7405084582     1.3731468187
   55      H      -5.0860843303    -7.3708969348     1.7858485165
   56      C      -1.6638160423    -2.4088751746    -2.0477234231
   57      C      -0.6702018298    -2.9068046226    -2.9184237513
   58      N      -1.3428148395    -1.8756246477    -0.8865084976
   59      C       0.6927068602    -2.8437881133    -2.5525783982
   60      C      -0.0436855426    -1.8391781956    -0.4914189812
   61      C       1.0496329310    -2.3092425691    -1.2834898114
   62      C       2.4998860563    -2.1157534271    -0.8474957466
   63      C       3.4948677978    -3.0520780678    -1.1185538606
   64      C       3.0004758855    -0.9533768740    -0.1766361700
   65      N       4.7909127145    -2.9000683537    -0.9014211342
   66      N       2.1908156350     0.0911609175     0.1659891079
   67      C       4.3643055248    -0.7789737513     0.0666646025
   68      C       5.2331026213    -1.8202887727    -0.2980388816
   69      S       3.2372091484     1.1381427991     0.8108600678
   70      N       4.6606927630     0.3857515040     0.6638167478
   71      C       6.6775307013    -1.7897625299     0.0288581515
   72      S       7.6069503655    -0.4198567576     0.7413181594
   73      C       7.6034026056    -2.8385024708    -0.1851856601
   74      C       9.1420245013    -1.3295050404     0.6402617441
   75      S       7.3871037134    -4.4378696769    -0.8131636287
   76      C       8.9103243986    -2.5609828382     0.1582124770
   77      C      10.3742780740    -0.7508347161     1.1227063401
   78      C       9.0952677848    -4.8150578775    -0.3597823694
   79      C       9.7495470163    -3.7046610069     0.0981155199
   80      N      10.2907225710     0.0951077077     2.1504197698
   81      S      11.9122303163    -1.4073495455     0.7527871879
   82      C      11.5665639244     0.2847625317     2.6780644312
   83      C      12.5582691507    -0.4111112254     2.0540408273
   84      C      -3.1517118732    -2.5145026438    -2.3590204425
   85      H      -1.0102840500    -3.0710927795    -3.9355287041
   86      H       1.4149149806    -3.1105251064    -3.3183798133
   87      H       0.0603745178    -1.3732506249     0.4883871234
   88      H       3.2186708286    -4.0064266825    -1.5664645166
   89      H       9.4899531017    -5.8049740662    -0.5481050713
   90      H      10.7883519941    -3.7382921016     0.4078447041
   91      H      11.6229016946     0.8713878811     3.5848046118
   92      H      13.5829282848    -0.4343650396     2.4018121876
   93      H      -3.7748628159    -1.6838335318    -2.0052836351
   94      C      -3.7202569134    -3.9100500538    -2.0303474079
   95      H      -3.1938907502    -2.5185370254    -3.4554558788
   96      H      -3.7201515500    -4.0663986467    -0.9450529288
   97      H      -3.1339766807    -4.7383639604    -2.4483026219
   98      C      -5.2148853079    -4.0243796875    -2.5327463501
   99      H      -5.8918094824    -3.4960697744    -1.8510577865
  100      C      -5.5032767335    -5.5297762365    -2.8010700649
  101      H      -5.2346741005    -3.5596601997    -3.5266025778
  102      H      -4.8443627565    -6.0390196794    -3.5158962583
  103      H      -6.4680722511    -5.5718084834    -3.3233237384
  104      C      -5.5958354186    -6.3182291097    -1.4756286454
  105      H      -4.7182730195    -6.3100501720    -0.8149938442
  106      C      -6.0467116214    -7.7520317108    -1.8381224395
  107      H      -6.3996420646    -5.8856040274    -0.8674876962
  108      H      -5.1813988801    -8.2899262926    -2.2435287525
  109      H      -6.8854797926    -7.8835039472    -2.5328713194
  110      H      -6.2332711070    -8.3185995824    -0.9173708958
 ----------------------------------------------------------------

    9   -5663.5286076352      8.24E-06 Convergence criterion met
 Total energy in the final basis set = -5663.5286076352

                    Orbital Energies (a.u.)
 --------------------------------------------------------------

 Alpha MOs
 -- Occupied --
-88.989 -88.982 -88.935 -88.927 -88.921 -88.919 -88.910 -88.906
-14.391 -14.386 -14.373 -14.366 -14.347 -14.346 -14.340 -14.339
-14.326 -14.319 -10.270 -10.262 -10.262 -10.260 -10.258 -10.255
-10.245 -10.243 -10.243 -10.242 -10.240 -10.239 -10.236 -10.234
-10.232 -10.231 -10.229 -10.229 -10.229 -10.228 -10.227 -10.226
-10.226 -10.225 -10.225 -10.225 -10.221 -10.221 -10.219 -10.216
-10.213 -10.209 -10.206 -10.204 -10.202 -10.198 -10.195 -10.191
-10.190 -10.186 -10.185 -10.184 -10.183 -10.181 -10.179 -10.177
-10.175 -10.175 -10.172 -10.171  -8.045  -8.038  -7.996  -7.989
 -7.979  -7.977  -7.969  -7.965  -6.010  -6.004  -6.003  -6.003
 -5.997  -5.996  -5.960  -5.957  -5.953  -5.953  -5.949  -5.946
 -5.944  -5.942  -5.940  -5.938  -5.936  -5.934  -5.934  -5.930
 -5.929  -5.926  -5.926  -5.922  -1.049  -1.036  -0.973  -0.970
 -0.963  -0.941  -0.940  -0.938  -0.917  -0.912  -0.908  -0.897
 -0.842  -0.841  -0.832  -0.820  -0.813  -0.812  -0.810  -0.808
 -0.805  -0.802  -0.797  -0.795  -0.784  -0.783  -0.771  -0.765
 -0.751  -0.747  -0.744  -0.738  -0.724  -0.717  -0.711  -0.706
 -0.697  -0.691  -0.677  -0.671  -0.654  -0.648  -0.646  -0.637
 -0.636  -0.629  -0.629  -0.619  -0.614  -0.612  -0.604  -0.599
 -0.598  -0.592  -0.591  -0.582  -0.578  -0.576  -0.570  -0.563
 -0.550  -0.547  -0.543  -0.534  -0.527  -0.521  -0.520  -0.514
 -0.508  -0.503  -0.500  -0.496  -0.489  -0.483  -0.480  -0.476
 -0.472  -0.469  -0.468  -0.465  -0.464  -0.457  -0.450  -0.447
 -0.445  -0.441  -0.439  -0.438  -0.437  -0.434  -0.434  -0.432
 -0.429  -0.428  -0.423  -0.422  -0.420  -0.419  -0.416  -0.416
 -0.416  -0.407  -0.405  -0.404  -0.403  -0.399  -0.399  -0.394
 -0.392  -0.391  -0.389  -0.387  -0.386  -0.386  -0.385  -0.382
 -0.380  -0.378  -0.373  -0.371  -0.368  -0.365  -0.363  -0.359
 -0.353  -0.352  -0.351  -0.350  -0.346  -0.345  -0.342  -0.340
 -0.339  -0.336  -0.333  -0.333  -0.332  -0.329  -0.324  -0.321
 -0.318  -0.311  -0.308  -0.307  -0.301  -0.300  -0.297  -0.295
 -0.292  -0.291  -0.289  -0.289  -0.286  -0.286  -0.283  -0.282
 -0.278  -0.269  -0.267  -0.259  -0.255  -0.251  -0.249  -0.245
 -0.241  -0.239  -0.238  -0.223  -0.197  -0.189

          Ground-State Mulliken Net Atomic Charges

     Atom                 Charge (a.u.)
  ----------------------------------------
      1 C                     0.247916
      2 C                    -0.102220
      3 N                    -0.477444
      4 C                    -0.091490
      5 C                     0.114040
      6 C                     0.016432
      7 C                     0.004104
      8 C                     0.062290
      9 C                     0.274682
     10 N                    -0.540985
     11 N                    -0.577747
     12 C                     0.132892
     13 C                     0.327835
     14 S                     0.603912
     15 N                    -0.533042
     16 C                    -0.212850
     17 S                     0.361624
     18 C                    -0.152976
     19 C                    -0.238087
     20 S                     0.318546
     21 C                     0.204467
     22 C                     0.047257
     23 C                    -0.312542
     24 C                    -0.105915
     25 N                    -0.436794
     26 S                     0.292429
     27 C                     0.120381
     28 C                    -0.310135
     29 C                    -0.215451
     30 H                     0.092284
     31 H                     0.105021
     32 H                     0.117057
     33 H                     0.144555
     34 H                     0.125639
     35 H                     0.097657
     36 H                     0.111881
     37 H                     0.138134
     38 H                     0.115700
     39 C                    -0.177134
     40 H                     0.090867
     41 H                     0.094757
     42 H                     0.115860
     43 C                    -0.180675
     44 H                     0.088224
     45 C                    -0.185751
     46 H                     0.100958
     47 H                     0.091731
     48 H                     0.089720
     49 C                    -0.186110
     50 H                     0.089482
     51 C                    -0.321230
     52 H                     0.091611
     53 H                     0.104704
     54 H                     0.105618
     55 H                     0.105231
     56 C                     0.280863
     57 C                    -0.120554
     58 N                    -0.481274
     59 C                    -0.082694
     60 C                     0.084411
     61 C                     0.023040
     62 C                     0.046851
     63 C                     0.042246
     64 C                     0.187440
     65 N                    -0.526127
     66 N                    -0.540108
     67 C                     0.226853
     68 C                     0.331894
     69 S                     0.613103
     70 N                    -0.555967
     71 C                    -0.237756
     72 S                     0.345808
     73 C                    -0.117201
     74 C                    -0.235183
     75 S                     0.270210
     76 C                     0.170259
     77 C                     0.036562
     78 C                    -0.319861
     79 C                    -0.056828
     80 N                    -0.415090
     81 S                     0.279580
     82 C                     0.122499
     83 C                    -0.307049
     84 C                    -0.226398
     85 H                     0.091625
     86 H                     0.106256
     87 H                     0.123931
     88 H                     0.106588
     89 H                     0.130056
     90 H                     0.115539
     91 H                     0.120280
     92 H                     0.133244
     93 H                     0.112250
     94 C                    -0.175960
     95 H                     0.094259
     96 H                     0.110199
     97 H                     0.100543
     98 C                    -0.194488
     99 H                     0.105339
    100 C                    -0.180784
    101 H                     0.086602
    102 H                     0.094765
    103 H                     0.087981
    104 C                    -0.176010
    105 H                     0.106689
    106 C                    -0.328467
    107 H                     0.100931
    108 H                     0.100607
    109 H                     0.105727
    110 H                     0.095847
  ----------------------------------------
  Sum of atomic charges =     0.000000

                    Cartesian Multipole Moments
 -----------------------------------------------------------------
    Charge (ESU x 10^10)
                 0.0000
    Dipole Moment (Debye)
         X       5.4321      Y      -2.1471      Z      -2.2860
       Tot       6.2724
    Quadrupole Moments (Debye-Ang)
        XX    -389.7055     XY      11.0755     YY    -413.8124
        XZ      16.9821     YZ       6.0454     ZZ    -441.3715

 Total job time:  85.99s(wall), 1030.85s(cpu)
        *  Thank you very much for using Q-Chem.  Have a nice day.  *
