 Q-Chem 4.4, Q-Chem, Inc., Pleasanton, CA (2016)
 Q-Chem 4.4.2 for Intel X86 Linux

User input:
--------------------------------------------------------------
$comment
SP
$end

$rem
MEM_STATIC 5000
MEM_TOTAL 20000
JOBTYPE SP
EXCHANGE B3LYP
BASIS 6-31g(d,p)
$end

$molecule
0 1
C          14.990000    -25.022000    -11.140000
C          15.272000    -24.067000    -10.156000
N          14.196000    -26.066000    -10.919000
C          14.832000    -24.300000     -8.847000
C          13.778000    -26.331000     -9.661000
C          14.086000    -25.470000     -8.546000
C          13.401000    -25.726000     -7.209000
C          12.225000    -26.375000     -7.123000
C          14.062000    -25.371000     -5.956000
N          11.540000    -26.551000     -5.987000
N          15.268000    -24.775000     -5.769000
C          13.327000    -25.564000     -4.776000
C          12.071000    -26.187000     -4.809000
S          15.424000    -24.570000     -4.170000
N          14.028000    -25.257000     -3.668000
C          11.278000    -26.421000     -3.619000
S          11.699000    -26.248000     -1.886000
C           9.999000    -26.943000     -3.675000
C          10.206000    -27.014000     -1.355000
S           8.884000    -27.267000     -5.032000
C           9.452000    -27.275000     -2.428000
C           9.828000    -27.135000     -0.028000
C           7.680000    -27.851000     -3.875000
C           8.096000    -27.703000     -2.577000
N           8.915000    -28.027000      0.232000
S          10.644000    -26.508000      1.423000
C           8.621000    -28.135000      1.578000
C           9.543000    -27.405000      2.403000
C          15.604000    -24.871000    -12.522000
H          15.795000    -23.167000    -10.463000
H          15.010000    -23.536000     -8.095000
H          13.134000    -27.209000     -9.647000
H          11.795000    -26.756000     -8.049000
H           6.889000    -28.429000     -4.332000
H           7.460000    -28.068000     -1.779000
H           7.836000    -28.825000      1.857000
H           9.478000    -27.383000      3.482000
H          16.610000    -24.476000    -12.333000
C          14.859000    -23.802000    -13.336000
H          15.697000    -25.842000    -13.025000
H          15.205000    -23.801000    -14.378000
H          15.073000    -22.786000    -12.982000
C          13.326000    -23.926000    -13.550000
H          12.811000    -23.634000    -12.626000
C          12.821000    -25.296000    -14.088000
H          13.113000    -23.118000    -14.261000
H          11.750000    -25.221000    -14.315000
H          12.932000    -26.077000    -13.326000
C          13.602000    -25.667000    -15.355000
H          13.282000    -25.098000    -16.235000
C          13.272000    -27.166000    -15.746000
H          14.693000    -25.691000    -15.244000
H          13.702000    -27.907000    -15.060000
H          13.814000    -27.390000    -16.673000
H          12.199000    -27.381000    -15.812000
C          18.605000    -26.960000    -12.713000
C          17.976000    -28.201000    -12.473000
N          18.618000    -26.017000    -11.793000
C          17.343000    -28.450000    -11.235000
C          17.982000    -26.214000    -10.609000
C          17.313000    -27.425000    -10.249000
C          16.736000    -27.640000     -8.852000
C          15.570000    -28.368000     -8.627000
C          17.343000    -27.177000     -7.640000
N          15.082000    -28.717000     -7.448000
N          18.503000    -26.457000     -7.639000
C          16.838000    -27.530000     -6.387000
C          15.661000    -28.295000     -6.347000
S          18.781000    -26.258000     -6.061000
N          17.555000    -27.046000     -5.361000
C          14.975000    -28.616000     -5.074000
S          15.564000    -28.286000     -3.403000
C          13.727000    -29.270000     -4.941000
C          14.142000    -29.090000     -2.678000
S          12.609000    -29.843000     -6.133000
C          13.309000    -29.502000     -3.647000
C          13.979000    -29.146000     -1.244000
C          11.424000    -30.188000     -4.813000
C          11.976000    -29.986000     -3.578000
N          14.472000    -28.131000     -0.533000
S          12.845000    -30.178000     -0.481000
C          13.943000    -28.189000      0.755000
C          13.079000    -29.219000      0.978000
C          19.241000    -26.611000    -14.053000
H          18.251000    -28.983000    -13.173000
H          17.003000    -29.466000    -11.058000
H          18.079000    -25.346000     -9.957000
H          14.986000    -28.713000     -9.480000
H          10.450000    -30.588000     -5.063000
H          11.415000    -30.153000     -2.665000
H          14.184000    -27.359000      1.405000
H          12.523000    -29.345000      1.898000
H          20.133000    -25.974000    -14.008000
C          18.198000    -26.158000    -15.095000
H          19.546000    -27.582000    -14.463000
H          17.776000    -25.189000    -14.803000
H          17.341000    -26.837000    -15.190000
C          18.880000    -25.979000    -16.510000
H          19.448000    -25.042000    -16.548000
C          17.779000    -26.191000    -17.589000
H          19.552000    -26.838000    -16.631000
H          17.244000    -27.149000    -17.567000
H          18.299000    -26.252000    -18.554000
C          16.789000    -25.005000    -17.607000
H          16.241000    -24.784000    -16.681000
C          15.845000    -25.228000    -18.811000
H          17.349000    -24.086000    -17.819000
H          15.114000    -25.997000    -18.534000
H          16.279000    -25.504000    -19.780000
H          15.194000    -24.353000    -18.930000
$end

--------------------------------------------------------------

             Standard Nuclear Orientation (Angstroms)
    I     Atom           X                Y                Z
 ----------------------------------------------------------------
    1      C      -4.5792592826     0.8838236917    -1.2142651198
    2      C      -3.9068507231     0.4065974901    -2.3456036551
    3      N      -3.9428992911     1.4043005756    -0.1686252322
    4      C      -2.5089567391     0.3276093295    -2.3136149100
    5      C      -2.5956291275     1.3184074003    -0.0979253831
    6      C      -1.7992580980     0.7588772998    -1.1619410080
    7      C      -0.2829008197     0.8943741464    -1.0938880200
    8      C       0.3147774785     1.8689680066    -0.3835919835
    9      C       0.5806845337    -0.1082097931    -1.7119501380
   10      N       1.6351323302     2.0851731820    -0.3587849710
   11      N       0.2306471415    -1.2128365564    -2.4203952932
   12      C       1.9621486093     0.1367856770    -1.6744237830
   13      C       2.4759428970     1.2305373319    -0.9627519855
   14      S       1.6178693061    -1.8874557142    -2.9140203107
   15      N       2.6841696400    -0.8587797364    -2.2229209470
   16      C       3.8934153528     1.5203941582    -0.8823787487
   17      S       5.3115415845     0.5489491525    -1.3880185332
   18      C       4.3806333469     2.6569641496    -0.2640840934
   19      C       6.4507914003     1.6469834895    -0.6171771410
   20      S       3.5829755865     4.1211385838     0.3759044406
   21      C       5.7740782782     2.6856573322    -0.1159965359
   22      C       7.8272911478     1.5191304597    -0.7029445474
   23      C       5.1681094408     4.7571583465     0.8365024489
   24      C       6.1909604532     3.9386064181     0.4321356017
   25      N       8.5222741798     2.1566867663     0.1955839948
   26      S       8.7793568103     0.3400011146    -1.6344009132
   27      C       9.8837919151     1.9460114010     0.0874112307
   28      C      10.2066598013     0.9004129147    -0.8432278687
   29      C      -6.0967497660     0.8158838250    -1.1660177624
   30      H      -4.5036703189     0.1483239278    -3.2144414635
   31      H      -1.9860436116     0.0022574894    -3.2089316368
   32      H      -2.2273705901     1.7939796360     0.8098370849
   33      H      -0.3285962732     2.5398150179     0.1852414746
   34      H       5.1154200405     5.5732404169     1.5435016578
   35      H       7.2080324310     4.2019391824     0.6981157652
   36      H      10.5218791710     2.4851180908     0.7747063863
   37      H      11.2208808659     0.5876469256    -1.0493420801
   38      H      -6.3443791372    -0.1306771520    -1.6624893238
   39      C      -6.7200715972     1.9332537687    -2.0165095635
   40      H      -6.4611473973     0.7754392642    -0.1315722086
   41      H      -7.8060649414     1.9754834168    -1.8605733166
   42      H      -6.6112120689     1.7467887167    -3.0920319424
   43      C      -6.3399018009     3.4135985412    -1.7420805552
   44      H      -5.3408399780     3.6083450649    -2.1522198796
   45      C      -6.4634399820     3.8869783553    -0.2649147320
   46      H      -7.0271409081     3.9666977422    -2.3944130497
   47      H      -6.2912848159     4.9697430953    -0.2182444370
   48      H      -5.6956564143     3.4143407853     0.3596235940
   49      C      -7.8647295612     3.5544354920     0.2629998059
   50      H      -8.6358005745     4.2338396172    -0.1170272026
   51      C      -7.8992438936     3.7970293320     1.8278445234
   52      H      -8.1579701603     2.5003368990     0.1851274287
   53      H      -7.3234869493     3.0602434135     2.4024987249
   54      H      -8.9202300008     3.5873429500     2.1697333797
   55      H      -7.5384811041     4.7868853904     2.1310691816
   56      C      -7.0838382522    -2.1803368788     0.6926701658
   57      C      -6.4633592986    -1.8458282365     1.9159574731
   58      N      -6.3704063613    -2.3872849718    -0.3954499672
   59      C      -5.0581157491    -1.7231442017     1.9906113033
   60      C      -5.0208936693    -2.2360678052    -0.3621353668
   61      C      -4.2794084498    -1.9022653678     0.8136442053
   62      C      -2.7528813764    -1.8824126425     0.8228073598
   63      C      -2.0200775470    -0.9760662134     1.5854997605
   64      C      -1.9220729093    -2.8062110449     0.1099849396
   65      N      -0.7084814036    -0.9806825346     1.7577793186
   66      N      -2.4435044045    -3.7868126845    -0.6840746427
   67      C      -0.5355827434    -2.8213753715     0.2744782927
   68      C       0.0359625728    -1.8452877258     1.1067900489
   69      S      -1.1193843266    -4.5681040351    -1.1772874210
   70      N       0.0808975038    -3.7796146761    -0.4345707465
   71      C       1.5026427536    -1.6952257596     1.2499565727
   72      S       2.7808258628    -2.7800043630     0.5884693690
   73      C       2.1705925066    -0.6708759499     1.9623185557
   74      C       4.0779441972    -1.8205130924     1.3572252003
   75      S       1.5599867263     0.7053893714     2.8179886712
   76      C       3.5464985489    -0.7649150379     1.9943062548
   77      C       5.4655030771    -2.1764626512     1.1727224454
   78      C       3.2555890194     1.2988405424     3.0139442055
   79      C       4.1633495236     0.3832618989     2.5574142346
   80      N       5.8012368178    -2.7463200628     0.0145599413
   81      S       6.7235193169    -1.5278113589     2.1369815607
   82      C       7.1884020615    -2.7120878402    -0.1148608516
   83      C       7.8502725126    -2.1254963096     0.9219433161
   84      C      -8.5977615584    -2.2569288462     0.5375350844
   85      H      -7.1014896578    -1.9612853522     2.7857898128
   86      H      -4.6320164657    -1.6048181828     2.9823891786
   87      H      -4.5746664846    -2.4375569708    -1.3359014659
   88      H      -2.5448766362    -0.1829791934     2.1177486635
   89      H       3.4360420990     2.2363027160     3.5236277927
   90      H       5.2318326626     0.5633310021     2.6032170712
   91      H       7.5853547766    -3.0515475015    -1.0617909864
   92      H       8.9177694213    -1.9470398014     0.9258961004
   93      H      -8.9693912561    -3.0152804862    -0.1626450053
   94      C      -9.2379048860    -0.8657437270     0.3541162080
   95      H      -8.9540094832    -2.5264730145     1.5397323491
   96      H      -8.9472708684    -0.4467946872    -0.6166167985
   97      H      -8.9193624812    -0.1280399343     1.1016714571
   98      C     -10.8144584097    -0.9815409288     0.3755637006
   99      H     -11.1851035856    -1.3703724977    -0.5801921074
  100      C     -11.3765770211     0.3876988922     0.8557625964
  101      H     -11.0540483340    -1.6773626476     1.1895261099
  102      H     -11.0298535896     0.7486895198     1.8324619508
  103      H     -12.4467903230     0.2333953671     1.0459727711
  104      C     -11.1934469870     1.4705879265    -0.2308996003
  105      H     -10.1707787708     1.6857895934    -0.5692174424
  106      C     -11.9265319697     2.7362578311     0.2702461877
  107      H     -11.7189159863     1.1474138513    -1.1378427340
  108      H     -11.2992232635     3.2154294020     1.0313830957
  109      H     -12.9396111202     2.6344766082     0.6786629079
  110      H     -11.9177801185     3.4983630494    -0.5188710668
 ----------------------------------------------------------------

   10   -5663.5293982844      4.57E-06 Convergence criterion met
 Total energy in the final basis set = -5663.5293982844

                    Orbital Energies (a.u.)
 --------------------------------------------------------------

 Alpha MOs
 -- Occupied --
-88.983 -88.983 -88.932 -88.930 -88.920 -88.917 -88.903 -88.901
-14.384 -14.380 -14.379 -14.377 -14.342 -14.342 -14.341 -14.341
-14.323 -14.320 -10.266 -10.264 -10.256 -10.256 -10.253 -10.251
-10.247 -10.245 -10.240 -10.239 -10.238 -10.237 -10.235 -10.233
-10.229 -10.228 -10.227 -10.227 -10.227 -10.225 -10.225 -10.223
-10.222 -10.221 -10.221 -10.219 -10.219 -10.218 -10.218 -10.217
-10.213 -10.209 -10.202 -10.200 -10.196 -10.196 -10.193 -10.191
-10.184 -10.181 -10.180 -10.178 -10.177 -10.175 -10.175 -10.174
-10.169 -10.168 -10.167 -10.165  -8.039  -8.039  -7.992  -7.991
 -7.979  -7.974  -7.962  -7.961  -6.004  -6.004  -5.999  -5.998
 -5.997  -5.996  -5.956  -5.955  -5.953  -5.951  -5.949  -5.948
 -5.944  -5.940  -5.939  -5.936  -5.935  -5.931  -5.927  -5.925
 -5.923  -5.921  -5.918  -5.917  -1.042  -1.033  -0.974  -0.967
 -0.965  -0.958  -0.936  -0.934  -0.911  -0.910  -0.906  -0.897
 -0.839  -0.835  -0.826  -0.825  -0.812  -0.807  -0.805  -0.804
 -0.802  -0.800  -0.793  -0.791  -0.779  -0.779  -0.766  -0.764
 -0.746  -0.742  -0.739  -0.732  -0.721  -0.718  -0.706  -0.704
 -0.691  -0.689  -0.672  -0.670  -0.649  -0.648  -0.644  -0.640
 -0.636  -0.631  -0.625  -0.622  -0.609  -0.607  -0.599  -0.597
 -0.594  -0.589  -0.585  -0.584  -0.580  -0.576  -0.567  -0.550
 -0.544  -0.542  -0.540  -0.536  -0.521  -0.521  -0.515  -0.508
 -0.502  -0.500  -0.496  -0.494  -0.486  -0.482  -0.478  -0.473
 -0.471  -0.465  -0.463  -0.461  -0.459  -0.458  -0.452  -0.444
 -0.444  -0.442  -0.441  -0.439  -0.435  -0.433  -0.432  -0.428
 -0.425  -0.423  -0.422  -0.416  -0.416  -0.415  -0.414  -0.410
 -0.410  -0.407  -0.402  -0.398  -0.397  -0.396  -0.395  -0.393
 -0.391  -0.389  -0.388  -0.386  -0.384  -0.382  -0.381  -0.380
 -0.379  -0.377  -0.368  -0.368  -0.363  -0.361  -0.360  -0.353
 -0.349  -0.346  -0.345  -0.343  -0.341  -0.340  -0.337  -0.336
 -0.335  -0.333  -0.331  -0.331  -0.327  -0.326  -0.320  -0.316
 -0.310  -0.308  -0.306  -0.305  -0.302  -0.300  -0.296  -0.293
 -0.293  -0.290  -0.290  -0.286  -0.283  -0.283  -0.280  -0.276
 -0.272  -0.267  -0.264  -0.260  -0.254  -0.248  -0.246  -0.244
 -0.241  -0.239  -0.235  -0.221  -0.195  -0.188

          Ground-State Mulliken Net Atomic Charges

     Atom                 Charge (a.u.)
  ----------------------------------------
      1 C                     0.287084
      2 C                    -0.114463
      3 N                    -0.484169
      4 C                    -0.070961
      5 C                     0.045878
      6 C                     0.022881
      7 C                     0.053491
      8 C                     0.074730
      9 C                     0.225752
     10 N                    -0.543050
     11 N                    -0.572995
     12 C                     0.209250
     13 C                     0.330522
     14 S                     0.620158
     15 N                    -0.552472
     16 C                    -0.236266
     17 S                     0.326320
     18 C                    -0.110564
     19 C                    -0.227720
     20 S                     0.267307
     21 C                     0.175871
     22 C                     0.048599
     23 C                    -0.312128
     24 C                    -0.056926
     25 N                    -0.419759
     26 S                     0.271040
     27 C                     0.105870
     28 C                    -0.323477
     29 C                    -0.229004
     30 H                     0.094215
     31 H                     0.112256
     32 H                     0.114842
     33 H                     0.109728
     34 H                     0.134309
     35 H                     0.115869
     36 H                     0.117230
     37 H                     0.138289
     38 H                     0.123343
     39 C                    -0.198092
     40 H                     0.116153
     41 H                     0.097305
     42 H                     0.086769
     43 C                    -0.179078
     44 H                     0.085007
     45 C                    -0.172385
     46 H                     0.083409
     47 H                     0.086475
     48 H                     0.123401
     49 C                    -0.181256
     50 H                     0.096373
     51 C                    -0.337314
     52 H                     0.107476
     53 H                     0.102000
     54 H                     0.092790
     55 H                     0.100527
     56 C                     0.269002
     57 C                    -0.119819
     58 N                    -0.477479
     59 C                    -0.080771
     60 C                     0.073130
     61 C                     0.041813
     62 C                     0.050737
     63 C                     0.035078
     64 C                     0.196784
     65 N                    -0.528539
     66 N                    -0.533901
     67 C                     0.248310
     68 C                     0.328321
     69 S                     0.601830
     70 N                    -0.574763
     71 C                    -0.249516
     72 S                     0.339361
     73 C                    -0.122427
     74 C                    -0.233708
     75 S                     0.270139
     76 C                     0.171108
     77 C                     0.040598
     78 C                    -0.303904
     79 C                    -0.062510
     80 N                    -0.412663
     81 S                     0.280770
     82 C                     0.120052
     83 C                    -0.301406
     84 C                    -0.217493
     85 H                     0.088932
     86 H                     0.105219
     87 H                     0.119128
     88 H                     0.112099
     89 H                     0.131671
     90 H                     0.122552
     91 H                     0.117506
     92 H                     0.132627
     93 H                     0.114898
     94 C                    -0.184710
     95 H                     0.090750
     96 H                     0.113071
     97 H                     0.101001
     98 C                    -0.182650
     99 H                     0.100800
    100 C                    -0.179207
    101 H                     0.086609
    102 H                     0.094081
    103 H                     0.087984
    104 C                    -0.177933
    105 H                     0.108771
    106 C                    -0.330686
    107 H                     0.093813
    108 H                     0.106631
    109 H                     0.104986
    110 H                     0.093483
  ----------------------------------------
  Sum of atomic charges =     0.000000

                    Cartesian Multipole Moments
 -----------------------------------------------------------------
    Charge (ESU x 10^10)
                 0.0000
    Dipole Moment (Debye)
         X       3.6518      Y       0.2118      Z       0.3092
       Tot       3.6710
    Quadrupole Moments (Debye-Ang)
        XX    -377.7837     XY       4.6174     YY    -450.0974
        XZ      -0.6469     YZ       8.9991     ZZ    -435.5402

 Total job time:  126.23s(wall), 1505.79s(cpu)
        *  Thank you very much for using Q-Chem.  Have a nice day.  *
