 Q-Chem 4.4, Q-Chem, Inc., Pleasanton, CA (2016)
 Q-Chem 4.4.2 for Intel X86 Linux

User input:
--------------------------------------------------------------
$comment
SP
$end

$rem
MEM_STATIC 5000
MEM_TOTAL 20000
JOBTYPE SP
EXCHANGE B3LYP
BASIS 6-31g(d,p)
$end

$molecule
0 1
C         -17.709000     14.644000      3.611000
C         -17.307000     13.713000      2.658000
N         -17.040000     15.790000      3.799000
C         -16.233000     13.948000      1.854000
C         -16.079000     16.113000      2.892000
C         -15.548000     15.209000      1.942000
C         -14.411000     15.573000      0.982000
C         -13.150000     15.951000      1.444000
C         -14.483000     15.256000     -0.440000
N         -12.110000     16.121000      0.618000
N         -15.620000     14.918000     -1.049000
C         -13.401000     15.504000     -1.286000
C         -12.209000     16.027000     -0.748000
S         -15.292000     14.912000     -2.626000
N         -13.701000     15.309000     -2.586000
C         -11.073000     16.409000     -1.549000
S         -11.123000     16.819000     -3.310000
C          -9.801000     16.582000     -1.043000
C          -9.445000     17.348000     -3.201000
S          -9.206000     16.441000      0.557000
C          -8.931000     17.118000     -1.979000
C          -8.629000     17.813000     -4.318000
C          -7.680000     17.196000      0.010000
C          -7.665000     17.459000     -1.388000
N          -7.335000     17.966000     -4.278000
S          -9.340000     18.360000     -5.740000
C          -6.809000     18.570000     -5.366000
C          -7.758000     18.863000     -6.347000
C         -18.883000     14.439000      4.519000
H         -17.868000     12.795000      2.510000
H         -16.046000     13.185000      1.104000
H         -15.682000     17.122000      2.997000
H         -12.970000     16.089000      2.510000
H          -6.962000     17.375000      0.799000
H          -6.762000     17.707000     -1.934000
H          -5.773000     18.881000     -5.389000
H          -7.602000     19.312000     -7.319000
H         -19.436000     15.386000      4.490000
C         -18.534000     14.004000      5.910000
H         -19.507000     13.621000      4.140000
H         -17.674000     14.542000      6.327000
H         -18.244000     12.948000      5.848000
C         -19.793000     14.158000      6.852000
H         -19.861000     15.239000      7.029000
C         -19.645000     13.282000      8.057000
H         -20.707000     13.909000      6.299000
H         -18.788000     13.592000      8.668000
H         -19.410000     12.240000      7.811000
C         -20.869000     13.074000      8.979000
H         -21.663000     12.471000      8.524000
C         -21.328000     14.292000      9.745000
H         -20.541000     12.390000      9.773000
H         -21.735000     15.055000      9.071000
H         -20.491000     14.789000     10.252000
H         -22.058000     13.973000     10.498000
C         -13.959000     23.974000     16.278000
C         -14.899000     23.974000     15.264000
N         -12.636000     23.823000     16.014000
C         -14.567000     23.630000     13.929000
C         -12.285000     23.551000     14.795000
C         -13.199000     23.527000     13.656000
C         -12.744000     23.276000     12.321000
C         -13.414000     22.304000     11.561000
C         -11.784000     24.030000     11.644000
N         -13.071000     21.942000     10.326000
N         -11.093000     25.089000     12.191000
C         -11.278000     23.529000     10.455000
C         -11.885000     22.430000      9.868000
S          -9.868000     25.366000     11.151000
N         -10.130000     24.189000     10.068000
C         -11.459000     21.763000      8.693000
S         -11.651000     19.993000      8.434000
C         -10.789000     22.305000      7.626000
C         -10.873000     20.087000      6.912000
S         -10.379000     23.928000      7.201000
C         -10.476000     21.345000      6.640000
C         -10.765000     18.977000      5.970000
C          -9.833000     23.318000      5.641000
C          -9.820000     21.932000      5.509000
N         -10.268000     19.229000      4.810000
S         -11.542000     17.435000      6.207000
C         -10.553000     18.213000      3.918000
C         -11.293000     17.202000      4.471000
C         -14.321000     24.211000     17.728000
H         -15.942000     23.992000     15.568000
H         -15.327000     23.426000     13.182000
H         -11.201000     23.465000     14.745000
H         -14.267000     21.755000     11.957000
H          -9.287000     23.973000      4.976000
H          -9.536000     21.521000      4.547000
H         -10.262000     18.346000      2.884000
H         -11.553000     16.286000      3.960000
H         -15.378000     23.919000     17.706000
C         -13.998000     25.699000     18.188000
H         -13.677000     23.613000     18.385000
H         -14.726000     26.256000     17.584000
H         -13.002000     25.983000     17.824000
C         -14.129000     25.909000     19.694000
H         -14.818000     25.157000     20.097000
C         -14.510000     27.364000     20.048000
H         -13.214000     25.703000     20.260000
H         -15.353000     27.678000     19.420000
H         -13.695000     28.088000     19.920000
C         -14.850000     27.396000     21.518000
H         -15.569000     26.595000     21.732000
C         -15.405000     28.833000     21.889000
H         -13.958000     27.214000     22.129000
H         -14.607000     29.577000     21.774000
H         -15.658000     28.877000     22.955000
H         -16.198000     29.092000     21.177000
$end

--------------------------------------------------------------

             Standard Nuclear Orientation (Angstroms)
    I     Atom           X                Y                Z
 ----------------------------------------------------------------
    1      C      -3.5052892961    -6.2959191595     0.5488146362
    2      C      -4.7991649371    -6.3391336454     0.0383321843
    3      N      -2.9160004691    -5.1361634134     0.8711906399
    4      C      -5.5306107059    -5.2014433618    -0.1221823200
    5      C      -3.6911889204    -4.0183545451     0.8804209649
    6      C      -4.9839069711    -3.9440026350     0.3103079629
    7      C      -5.8070830302    -2.6528495324     0.2637264081
    8      C      -5.3581424544    -1.5174797009    -0.4114303924
    9      C      -7.2134341194    -2.6310072744     0.6503224888
   10      N      -6.1336049462    -0.4403428733    -0.5880944192
   11      N      -7.7900605306    -3.6175838072     1.3373907001
   12      C      -7.9779214132    -1.4716902921     0.5107255256
   13      C      -7.3919456341    -0.3213020236    -0.0523696864
   14      S      -9.2438176058    -3.0694130223     1.7624179427
   15      N      -9.1995995633    -1.5829624745     1.0703200206
   16      C      -8.0643830743     0.9501266641    -0.1488993767
   17      S      -9.4683226715     1.4725161181     0.8648973810
   18      C      -7.6642525231     1.9675422140    -0.9907486154
   19      C      -9.3146590680     3.0917143056     0.1851983838
   20      S      -6.3456426501     2.0635113499    -2.0797683250
   21      C      -8.3656545569     3.1415970260    -0.7673152130
   22      C     -10.2035865837     4.2151945661     0.4633529742
   23      C      -6.6703042485     3.8137089606    -2.2509792177
   24      C      -7.8169703862     4.2357332439    -1.5223844929
   25      N     -10.2332270773     5.3245169028    -0.2207306423
   26      S     -11.1775904340     4.2290416737     1.8337320303
   27      C     -11.0076081063     6.2926127817     0.3162613418
   28      C     -11.6691339704     5.8890480436     1.4774374840
   29      C      -2.6574512837    -7.5149082870     0.7488176652
   30      H      -5.2663420173    -7.2885757849    -0.2059099076
   31      H      -6.5487091166    -5.3557828834    -0.4675704182
   32      H      -3.2073717839    -3.1386551187     1.3032269459
   33      H      -4.3590204935    -1.4913470990    -0.8460249095
   34      H      -5.9571686194     4.3421654349    -2.8692488428
   35      H      -8.2936077520     5.1974567365    -1.6738234086
   36      H     -11.0005751882     7.2999450397    -0.0784262058
   37      H     -12.3678035652     6.4520830276     2.0820641491
   38      H      -2.2245388940    -7.4012081867     1.7503755267
   39      C      -1.6270727953    -7.7458956655    -0.3146069920
   40      H      -3.2834142663    -8.4139404217     0.7035124191
   41      H      -1.1099736972    -6.8283078522    -0.6205058767
   42      H      -2.1616409033    -8.1148287965    -1.1984651723
   43      C      -0.5872548433    -8.8310483819     0.1726128851
   44      H       0.0389355427    -8.2924764200     0.8953437080
   45      C       0.1084529133    -9.4425069412    -1.0035733875
   46      H      -1.0981703174    -9.5992852292     0.7658948794
   47      H       0.7032482704    -8.6949817781    -1.5432905483
   48      H      -0.5800545902    -9.8130902731    -1.7717728484
   49      C       0.9726546153   -10.7055445869    -0.7812778102
   50      H       0.3870479357   -11.6012737520    -0.5450489390
   51      C       2.2263056016   -10.5071083908     0.0372228194
   52      H       1.3623287545   -10.9870756917    -1.7685823743
   53      H       1.9861477130   -10.2647998443     1.0791943914
   54      H       2.8092051020    -9.6481195963    -0.3191385467
   55      H       2.8413786283   -11.4106334843    -0.0464287032
   56      C      11.4777875088    -0.2570922540    -0.2285321752
   57      C      10.6609543084    -0.8168917375     0.7364569756
   58      N      11.0424489584     0.7555340587    -1.0209299903
   59      C       9.2805239573    -0.5057049176     0.8278889667
   60      C       9.7950569091     1.1020578859    -0.9367853968
   61      C       8.8529785155     0.5721029623     0.0455226399
   62      C       7.4997091134     1.0348176541     0.1280334834
   63      C       6.4702378064     0.0804665237     0.1542393612
   64      C       7.1149089842     2.3586857094     0.3465448856
   65      N       5.1709554760     0.3715287583     0.1868921060
   66      N       7.9877595982     3.4193517803     0.4528006700
   67      C       5.7813526960     2.6903784977     0.1666406877
   68      C       4.8470194270     1.6807032547    -0.0018711694
   69      S       7.0467211974     4.7448700125     0.3247298136
   70      N       5.5983170440     4.0557437894     0.0921519617
   71      C       3.4634721989     1.8502279062    -0.2549491421
   72      S       2.4965222154     0.7216647521    -1.2689500970
   73      C       2.6670337247     2.8930084530     0.1443596205
   74      C       1.0893246095     1.6750954427    -1.0655568423
   75      S       2.9343196691     4.2359892127     1.1968874838
   76      C       1.3401312913     2.7683906426    -0.3199305188
   77      C      -0.2411521680     1.2927036519    -1.5289530690
   78      C       1.2167138410     4.6048815352     1.0643556995
   79      C       0.5067130077     3.8378858998     0.1444614056
   80      N      -1.2271857217     2.0474405636    -1.1909840984
   81      S      -0.6059312816    -0.2603490123    -2.2308260066
   82      C      -2.4329815188     1.3979171115    -1.3735239049
   83      C      -2.2913111313     0.1230896855    -1.8533931948
   84      C      12.9191111008    -0.6752291091    -0.4220802922
   85      H      11.0473566987    -1.6913421445     1.2528082885
   86      H       8.5987568634    -1.0897453162     1.4372455473
   87      H       9.6039668630     1.9228821573    -1.6257586255
   88      H       6.6788117230    -0.9879498668     0.1257904987
   89      H       0.8423901785     5.5403095825     1.4570669981
   90      H      -0.5619805736     4.0033461839     0.0700441786
   91      H      -3.3355566154     1.8968843423    -1.0450183533
   92      H      -3.1144635468    -0.5190357190    -2.1324488625
   93      H      12.8818230684    -1.6799538253     0.0162515997
   94      C      13.9335266429     0.3572209473     0.2375264004
   95      H      13.1902742635    -0.6306428782    -1.4843757347
   96      H      13.7010559596     0.2123932406     1.3005557117
   97      H      13.6264748897     1.3800791175    -0.0167340654
   98      C      15.3903741554     0.0966843155    -0.1353180565
   99      H      15.5022602056    -0.9601286089    -0.4059875128
  100      C      16.3665533239     0.5702124995     0.9648397913
  101      H      15.7191945368     0.6001376301    -1.0509756982
  102      H      16.0206804075     0.1978802001     1.9371409712
  103      H      16.4773024198     1.6602012430     1.0315044517
  104      C      17.7363743300     0.0472907860     0.6075341900
  105      H      17.6604812875    -1.0268249672     0.3957003051
  106      C      18.7377578704     0.3690108015     1.7925920943
  107      H      18.1181995116     0.5380462460    -0.2955037988
  108      H      18.8704279308     1.4546607665     1.8781947144
  109      H      19.7406137446    -0.0032873968     1.5518118061
  110      H      18.2878867625     0.0200964631     2.7300081016
 ----------------------------------------------------------------

   10   -5663.5190541477      3.87E-06 Convergence criterion met
 Total energy in the final basis set = -5663.5190541477

                    Orbital Energies (a.u.)
 --------------------------------------------------------------

 Alpha MOs
 -- Occupied --
-88.992 -88.991 -88.932 -88.926 -88.921 -88.917 -88.913 -88.904
-14.388 -14.384 -14.383 -14.380 -14.349 -14.342 -14.340 -14.332
-14.326 -14.322 -10.268 -10.265 -10.261 -10.257 -10.254 -10.252
-10.251 -10.249 -10.244 -10.242 -10.241 -10.236 -10.235 -10.231
-10.231 -10.229 -10.229 -10.228 -10.227 -10.227 -10.224 -10.224
-10.223 -10.223 -10.222 -10.221 -10.220 -10.216 -10.213 -10.213
-10.211 -10.208 -10.207 -10.204 -10.199 -10.196 -10.191 -10.189
-10.184 -10.180 -10.179 -10.177 -10.177 -10.176 -10.176 -10.174
-10.173 -10.173 -10.172 -10.167  -8.047  -8.047  -7.990  -7.989
 -7.982  -7.977  -7.973  -7.965  -6.012  -6.012  -6.007  -6.006
 -6.006  -6.005  -5.955  -5.953  -5.951  -5.949  -5.947  -5.946
 -5.946  -5.943  -5.941  -5.939  -5.938  -5.937  -5.934  -5.933
 -5.930  -5.929  -5.926  -5.921  -1.046  -1.033  -0.982  -0.972
 -0.960  -0.956  -0.944  -0.936  -0.918  -0.911  -0.909  -0.895
 -0.845  -0.844  -0.836  -0.826  -0.814  -0.813  -0.808  -0.807
 -0.806  -0.800  -0.798  -0.796  -0.786  -0.786  -0.772  -0.763
 -0.754  -0.745  -0.743  -0.736  -0.729  -0.721  -0.714  -0.709
 -0.696  -0.687  -0.677  -0.672  -0.653  -0.653  -0.645  -0.643
 -0.639  -0.632  -0.625  -0.623  -0.613  -0.607  -0.603  -0.598
 -0.591  -0.587  -0.585  -0.580  -0.578  -0.576  -0.574  -0.562
 -0.556  -0.548  -0.542  -0.540  -0.526  -0.521  -0.512  -0.508
 -0.505  -0.503  -0.502  -0.499  -0.491  -0.485  -0.481  -0.475
 -0.474  -0.471  -0.468  -0.464  -0.464  -0.463  -0.450  -0.442
 -0.441  -0.441  -0.440  -0.440  -0.439  -0.434  -0.433  -0.429
 -0.427  -0.424  -0.423  -0.422  -0.420  -0.418  -0.416  -0.414
 -0.414  -0.409  -0.406  -0.403  -0.403  -0.401  -0.400  -0.399
 -0.397  -0.395  -0.394  -0.387  -0.386  -0.385  -0.381  -0.377
 -0.376  -0.376  -0.375  -0.370  -0.367  -0.365  -0.357  -0.356
 -0.353  -0.350  -0.349  -0.349  -0.345  -0.342  -0.341  -0.340
 -0.337  -0.336  -0.334  -0.332  -0.329  -0.329  -0.327  -0.321
 -0.318  -0.316  -0.309  -0.308  -0.304  -0.301  -0.299  -0.297
 -0.297  -0.293  -0.293  -0.286  -0.284  -0.283  -0.277  -0.276
 -0.275  -0.273  -0.267  -0.262  -0.255  -0.251  -0.249  -0.247
 -0.245  -0.239  -0.234  -0.228  -0.198  -0.189

          Ground-State Mulliken Net Atomic Charges

     Atom                 Charge (a.u.)
  ----------------------------------------
      1 C                     0.267083
      2 C                    -0.114153
      3 N                    -0.475676
      4 C                    -0.048255
      5 C                     0.056740
      6 C                     0.013886
      7 C                     0.008313
      8 C                     0.094558
      9 C                     0.206577
     10 N                    -0.548258
     11 N                    -0.529840
     12 C                     0.215107
     13 C                     0.307612
     14 S                     0.602871
     15 N                    -0.574997
     16 C                    -0.214305
     17 S                     0.324043
     18 C                    -0.094160
     19 C                    -0.226516
     20 S                     0.282470
     21 C                     0.151033
     22 C                     0.083057
     23 C                    -0.318610
     24 C                    -0.056176
     25 N                    -0.442966
     26 S                     0.260145
     27 C                     0.127132
     28 C                    -0.320764
     29 C                    -0.216987
     30 H                     0.085665
     31 H                     0.103745
     32 H                     0.105857
     33 H                     0.104804
     34 H                     0.136132
     35 H                     0.134994
     36 H                     0.119500
     37 H                     0.135982
     38 H                     0.116389
     39 C                    -0.174067
     40 H                     0.092792
     41 H                     0.113116
     42 H                     0.088988
     43 C                    -0.172138
     44 H                     0.104076
     45 C                    -0.170816
     46 H                     0.089390
     47 H                     0.091677
     48 H                     0.088476
     49 C                    -0.187390
     50 H                     0.090159
     51 C                    -0.308481
     52 H                     0.087703
     53 H                     0.101459
     54 H                     0.101093
     55 H                     0.098323
     56 C                     0.249992
     57 C                    -0.122322
     58 N                    -0.447261
     59 C                    -0.068431
     60 C                     0.092440
     61 C                     0.009290
     62 C                     0.008329
     63 C                     0.064077
     64 C                     0.224006
     65 N                    -0.485106
     66 N                    -0.541874
     67 C                     0.232379
     68 C                     0.233637
     69 S                     0.626573
     70 N                    -0.559310
     71 C                    -0.220823
     72 S                     0.296477
     73 C                    -0.086834
     74 C                    -0.224959
     75 S                     0.278409
     76 C                     0.142721
     77 C                     0.089261
     78 C                    -0.304043
     79 C                    -0.051752
     80 N                    -0.439565
     81 S                     0.255055
     82 C                     0.121150
     83 C                    -0.324634
     84 C                    -0.226424
     85 H                     0.080993
     86 H                     0.108196
     87 H                     0.102769
     88 H                     0.108733
     89 H                     0.120410
     90 H                     0.132238
     91 H                     0.136200
     92 H                     0.134657
     93 H                     0.088546
     94 C                    -0.174884
     95 H                     0.117386
     96 H                     0.091894
     97 H                     0.117430
     98 C                    -0.184396
     99 H                     0.094562
    100 C                    -0.163589
    101 H                     0.097424
    102 H                     0.090620
    103 H                     0.096094
    104 C                    -0.178184
    105 H                     0.092297
    106 C                    -0.323283
    107 H                     0.093481
    108 H                     0.100796
    109 H                     0.098473
    110 H                     0.104289
  ----------------------------------------
  Sum of atomic charges =     0.000000

                    Cartesian Multipole Moments
 -----------------------------------------------------------------
    Charge (ESU x 10^10)
                 0.0000
    Dipole Moment (Debye)
         X      -3.5711      Y       0.1315      Z       0.9443
       Tot       3.6962
    Quadrupole Moments (Debye-Ang)
        XX    -396.2277     XY     -15.3113     YY    -400.0361
        XZ      -4.7664     YZ       9.9657     ZZ    -446.6072

 Total job time:  87.79s(wall), 1028.71s(cpu)
        *  Thank you very much for using Q-Chem.  Have a nice day.  *
