 Q-Chem 4.4, Q-Chem, Inc., Pleasanton, CA (2016)
 Q-Chem 4.4.2 for Intel X86 Linux

User input:
--------------------------------------------------------------
$comment
SP
$end

$rem
MEM_STATIC 5000
MEM_TOTAL 20000
JOBTYPE SP
EXCHANGE B3LYP
BASIS 6-31g(d,p)
$end

$molecule
0 1
C          -6.835000     27.764000      9.528000
C          -5.669000     27.212000      8.889000
N          -6.910000     27.878000     10.861000
C          -4.589000     26.839000      9.668000
C          -5.875000     27.485000     11.620000
C          -4.665000     27.012000     11.094000
C          -3.526000     26.430000     11.969000
C          -2.626000     25.428000     11.571000
C          -3.120000     26.822000     13.304000
N          -1.519000     24.921000     12.191000
N          -3.883000     27.782000     13.946000
C          -1.929000     26.498000     13.965000
C          -1.136000     25.527000     13.316000
S          -3.114000     28.016000     15.387000
N          -1.708000     27.159000     15.083000
C           0.029000     24.883000     14.005000
S           0.525000     25.164000     15.660000
C           0.843000     23.844000     13.495000
C           1.926000     24.034000     15.559000
S           0.826000     23.075000     11.896000
C           1.858000     23.462000     14.333000
C           2.797000     23.851000     16.649000
C           2.386000     22.322000     12.337000
C           2.727000     22.492000     13.703000
N           4.056000     23.647000     16.410000
S           2.132000     23.758000     18.221000
C           4.675000     23.410000     17.671000
C           3.791000     23.587000     18.728000
C          -8.075000     28.103000      8.764000
H          -5.748000     27.068000      7.815000
H          -3.710000     26.334000      9.281000
H          -5.998000     27.600000     12.696000
H          -2.853000     24.965000     10.613000
H           2.904000     21.619000     11.698000
H           3.550000     22.106000     14.293000
H           5.753000     23.321000     17.646000
H           4.009000     23.701000     19.781000
H          -7.977000     28.209000      7.676000
C          -8.768000     29.399000      9.212000
H          -8.710000     27.209000      8.807000
H          -8.200000     30.292000      8.925000
H          -8.858000     29.534000     10.297000
C         -10.211000     29.533000      8.660000
H         -10.303000     29.482000      7.569000
C         -10.853000     30.821000      9.146000
H         -10.748000     28.624000      8.958000
H         -10.721000     30.885000     10.233000
H         -11.934000     30.677000      9.026000
C         -10.349000     32.069000      8.448000
H          -9.372000     32.328000      8.875000
C         -11.353000     33.333000      8.620000
H         -10.187000     31.891000      7.378000
H         -10.750000     34.202000      8.330000
H         -11.736000     33.409000      9.646000
H         -12.177000     33.329000      7.897000
C         -13.959000     23.974000     16.278000
C         -14.899000     23.974000     15.264000
N         -12.636000     23.823000     16.014000
C         -14.567000     23.630000     13.929000
C         -12.285000     23.551000     14.795000
C         -13.199000     23.527000     13.656000
C         -12.744000     23.276000     12.321000
C         -13.414000     22.304000     11.561000
C         -11.784000     24.030000     11.644000
N         -13.071000     21.942000     10.326000
N         -11.093000     25.089000     12.191000
C         -11.278000     23.529000     10.455000
C         -11.885000     22.430000      9.868000
S          -9.868000     25.366000     11.151000
N         -10.130000     24.189000     10.068000
C         -11.459000     21.763000      8.693000
S         -11.651000     19.993000      8.434000
C         -10.789000     22.305000      7.626000
C         -10.873000     20.087000      6.912000
S         -10.379000     23.928000      7.201000
C         -10.476000     21.345000      6.640000
C         -10.765000     18.977000      5.970000
C          -9.833000     23.318000      5.641000
C          -9.820000     21.932000      5.509000
N         -10.268000     19.229000      4.810000
S         -11.542000     17.435000      6.207000
C         -10.553000     18.213000      3.918000
C         -11.293000     17.202000      4.471000
C         -14.321000     24.211000     17.728000
H         -15.942000     23.992000     15.568000
H         -15.327000     23.426000     13.182000
H         -11.201000     23.465000     14.745000
H         -14.267000     21.755000     11.957000
H          -9.287000     23.973000      4.976000
H          -9.536000     21.521000      4.547000
H         -10.262000     18.346000      2.884000
H         -11.553000     16.286000      3.960000
H         -15.378000     23.919000     17.706000
C         -13.998000     25.699000     18.188000
H         -13.677000     23.613000     18.385000
H         -14.726000     26.256000     17.584000
H         -13.002000     25.983000     17.824000
C         -14.129000     25.909000     19.694000
H         -14.818000     25.157000     20.097000
C         -14.510000     27.364000     20.048000
H         -13.214000     25.703000     20.260000
H         -15.353000     27.678000     19.420000
H         -13.695000     28.088000     19.920000
C         -14.850000     27.396000     21.518000
H         -15.569000     26.595000     21.732000
C         -15.405000     28.833000     21.889000
H         -13.958000     27.214000     22.129000
H         -14.607000     29.577000     21.774000
H         -15.658000     28.877000     22.955000
H         -16.198000     29.092000     21.177000
$end

--------------------------------------------------------------

             Standard Nuclear Orientation (Angstroms)
    I     Atom           X                Y                Z
 ----------------------------------------------------------------
    1      C      -0.1650093258    -0.8898814250    -4.0524698167
    2      C       0.6691299571    -2.0574987114    -3.9364416772
    3      N       0.2160060602     0.2909005658    -3.5464153082
    4      C       1.9079300425    -1.9410587753    -3.3329633514
    5      C       1.4041179211     0.3968670210    -2.9308535189
    6      C       2.3240928090    -0.6564135919    -2.8373059046
    7      C       3.6313003680    -0.5739498501    -2.0090075712
    8      C       4.2548899856    -1.6546690191    -1.3643448172
    9      C       4.4897926244     0.5721148922    -1.7848387681
   10      N       5.4543772897    -1.7391340028    -0.7155044101
   11      N       4.0718797293     1.7902872694    -2.2921235713
   12      C       5.7982070853     0.5755878351    -1.2864237431
   13      C       6.2409943088    -0.6633668404    -0.7747385014
   14      S       5.2922337183     2.8317291283    -1.9064644005
   15      N       6.4352785625     1.7244842894    -1.3857357275
   16      C       7.5054856894    -0.7715444842     0.0227833767
   17      S       8.5444582316     0.5597327300     0.4834774568
   18      C       8.0078942299    -1.9328634312     0.6561402758
   19      C       9.7254556994    -0.5001059421     1.3389825533
   20      S       7.3935299636    -3.5970880620     0.6192089003
   21      C       9.2043568525    -1.7498047244     1.2990708339
   22      C      10.8879544370     0.0292620674     1.9294029082
   23      C       8.9371746041    -4.0919468514     1.3724459163
   24      C       9.7249127403    -2.9980205135     1.8128216603
   25      N      11.9731359495    -0.6819422582     1.9097180852
   26      S      10.7752577709     1.5128106280     2.7710923579
   27      C      12.9506666303     0.0492875094     2.6440121645
   28      C      12.4860648081     1.3005811573     3.0292956364
   29      C      -1.5521955006    -0.9555600718    -4.6071028772
   30      H       0.2264870710    -2.9855565070    -4.2874815661
   31      H       2.5601149537    -2.7826652605    -3.1237066534
   32      H       1.6550689925     1.3812236265    -2.5381760010
   33      H       3.6829420505    -2.5801532549    -1.3684054832
   34      H       9.1490465619    -5.1102849041     1.6706939407
   35      H      10.6585755365    -2.9579460047     2.3615409116
   36      H      13.9469992081    -0.3723868216     2.6320893665
   37      H      13.0496280445     2.1512273754     3.3872432447
   38      H      -1.8107340410    -1.8423417136    -5.1998592714
   39      C      -1.9383612301     0.2291575964    -5.5059293766
   40      H      -2.2148145633    -1.1083309187    -3.7457626156
   41      H      -1.4195308004     0.2017408599    -6.4715925207
   42      H      -1.6516349676     1.2188920163    -5.1294140002
   43      C      -3.4644919303     0.3151607857    -5.7675350672
   44      H      -3.9166124299    -0.5809075305    -6.2079832781
   45      C      -3.7908926826     1.5106958320    -6.6458644485
   46      H      -3.9520002709     0.3341319671    -4.7849722386
   47      H      -3.3013538579     2.3958854743    -6.2217417820
   48      H      -4.8589844407     1.7086993326    -6.4920086393
   49      C      -3.4363046145     1.3234202922    -8.1080269477
   50      H      -2.3539500064     1.4662183821    -8.2178277120
   51      C      -4.2088367290     2.3692458004    -9.0800038705
   52      H      -3.6542991719     0.3027106464    -8.4448625042
   53      H      -3.6602799925     2.3168545284   -10.0282710594
   54      H      -4.2221699762     3.3817526403    -8.6559836778
   55      H      -5.2225224348     2.0443402005    -9.3419172930
   56      C      -4.9633695413     5.3887702194     2.8924742990
   57      C      -6.1819788393     4.8633865940     2.5041967888
   58      N      -3.8215804366     4.6591937165     2.8096385171
   59      C      -6.3429229015     3.4916927543     2.1827344752
   60      C      -3.9198087113     3.4095547199     2.4751245648
   61      C      -5.1575272369     2.7611218042     2.0498239592
   62      C      -5.1945717356     1.3899559647     1.6365650260
   63      C      -6.1628694657     0.5485503721     2.2072839889
   64      C      -4.4491044647     0.8457432634     0.5893992876
   65      N      -6.2819994251    -0.7520428754     1.9461647495
   66      N      -3.5237613422     1.5426545169    -0.1564061900
   67      C      -4.4123923411    -0.5336830974     0.4605849440
   68      C      -5.2756667393    -1.3098155025     1.2176812411
   69      S      -2.6924028603     0.3949172971    -0.9629397286
   70      N      -3.4027910212    -0.9427357873    -0.3859692904
   71      C      -5.3243913432    -2.7253199751     1.2487134972
   72      S      -5.7495961710    -3.6696847812     2.7198426443
   73      C      -4.9994798901    -3.5906699995     0.2354243564
   74      C      -5.5141143915    -5.1491995602     1.8914777789
   75      S      -4.6091153290    -3.3520237086    -1.4299637237
   76      C      -5.1181325456    -4.9431709237     0.6206876394
   77      C      -5.8242530077    -6.4638790709     2.4451562262
   78      C      -4.6674281420    -5.1011560067    -1.6323292834
   79      C      -4.8235100609    -5.8366745029    -0.4604760603
   80      N      -5.7187010932    -7.4784497252     1.6605428305
   81      S      -6.6143006361    -6.6990517408     3.9807930844
   82      C      -6.3729999405    -8.5779096078     2.1822956310
   83      C      -6.9759602542    -8.3254188417     3.3857146242
   84      C      -4.8021605167     6.8177975566     3.3632242539
   85      H      -7.0594696439     5.4726657583     2.7026351611
   86      H      -7.3224148124     3.0357422691     2.0830863368
   87      H      -2.9258452842     2.9665018533     2.4488022758
   88      H      -6.8824075610     0.9160592633     2.9373717538
   89      H      -4.3157758510    -5.5411867062    -2.5554108884
   90      H      -4.9121043804    -6.9132833666    -0.5503949186
   91      H      -6.4299447691    -9.4724716417     1.5756309344
   92      H      -7.4716762064    -9.0726934982     3.9887264668
   93      H      -5.8285757901     7.0225698058     3.6911526188
   94      C      -4.2127239095     7.7583260955     2.2239071103
   95      H      -4.0335217611     6.8782290425     4.1439492368
   96      H      -5.0464103752     7.7515491704     1.5097853069
   97      H      -3.3720919186     7.2505555620     1.7333207863
   98      C      -3.8184188787     9.1442781140     2.7268559598
   99      H      -4.3998380062     9.3715918741     3.6284735354
  100      C      -3.9283299403    10.2179467948     1.6211176895
  101      H      -2.7900986258     9.2144065512     3.0978767945
  102      H      -4.8998302005    10.1207829839     1.1207423922
  103      H      -3.1400473597    10.1637374811     0.8592404531
  104      C      -3.7582650956    11.5642106266     2.2815536393
  105      H      -4.4348277281    11.6229842021     3.1436247913
  106      C      -4.0276126105    12.7021644686     1.2123726585
  107      H      -2.7344972498    11.6900957992     2.6532542193
  108      H      -3.2491978599    12.6733928175     0.4398393789
  109      H      -3.9084686321    13.6899211382     1.6732874816
  110      H      -4.9848940248    12.4939787852     0.7192752897
 ----------------------------------------------------------------

   10   -5663.4971736161      4.80E-06 Convergence criterion met
 Total energy in the final basis set = -5663.4971736161

                    Orbital Energies (a.u.)
 --------------------------------------------------------------

 Alpha MOs
 -- Occupied --
-88.991 -88.986 -88.929 -88.924 -88.919 -88.919 -88.911 -88.907
-14.390 -14.386 -14.383 -14.379 -14.357 -14.345 -14.343 -14.335
-14.332 -14.322 -10.267 -10.264 -10.262 -10.260 -10.258 -10.251
-10.251 -10.249 -10.243 -10.239 -10.238 -10.235 -10.235 -10.233
-10.233 -10.231 -10.231 -10.229 -10.229 -10.228 -10.228 -10.228
-10.228 -10.226 -10.224 -10.224 -10.222 -10.220 -10.218 -10.214
-10.213 -10.211 -10.207 -10.202 -10.201 -10.199 -10.196 -10.191
-10.191 -10.184 -10.182 -10.180 -10.177 -10.176 -10.176 -10.176
-10.174 -10.174 -10.172 -10.171  -8.046  -8.041  -7.992  -7.985
 -7.979  -7.979  -7.969  -7.967  -6.011  -6.006  -6.005  -6.004
 -6.001  -5.999  -5.955  -5.952  -5.949  -5.948  -5.946  -5.943
 -5.943  -5.942  -5.939  -5.939  -5.936  -5.935  -5.934  -5.932
 -5.931  -5.928  -5.926  -5.924  -1.032  -1.032  -0.975  -0.974
 -0.961  -0.960  -0.944  -0.944  -0.913  -0.910  -0.902  -0.894
 -0.845  -0.837  -0.836  -0.830  -0.815  -0.814  -0.808  -0.806
 -0.805  -0.803  -0.797  -0.797  -0.786  -0.785  -0.768  -0.764
 -0.747  -0.746  -0.739  -0.737  -0.723  -0.716  -0.710  -0.708
 -0.693  -0.688  -0.673  -0.672  -0.656  -0.653  -0.645  -0.642
 -0.638  -0.632  -0.626  -0.626  -0.612  -0.608  -0.600  -0.596
 -0.593  -0.588  -0.587  -0.581  -0.578  -0.577  -0.575  -0.565
 -0.556  -0.549  -0.541  -0.538  -0.522  -0.522  -0.517  -0.513
 -0.509  -0.503  -0.503  -0.492  -0.487  -0.485  -0.476  -0.473
 -0.472  -0.471  -0.468  -0.464  -0.463  -0.462  -0.443  -0.442
 -0.440  -0.439  -0.437  -0.436  -0.433  -0.432  -0.430  -0.429
 -0.424  -0.423  -0.423  -0.421  -0.419  -0.418  -0.416  -0.415
 -0.412  -0.410  -0.406  -0.401  -0.400  -0.398  -0.397  -0.397
 -0.394  -0.392  -0.390  -0.389  -0.387  -0.385  -0.383  -0.383
 -0.380  -0.378  -0.374  -0.370  -0.367  -0.365  -0.359  -0.357
 -0.356  -0.350  -0.349  -0.346  -0.343  -0.342  -0.341  -0.337
 -0.335  -0.335  -0.335  -0.333  -0.329  -0.327  -0.326  -0.321
 -0.321  -0.313  -0.308  -0.307  -0.302  -0.301  -0.299  -0.297
 -0.296  -0.293  -0.292  -0.291  -0.288  -0.287  -0.284  -0.284
 -0.278  -0.277  -0.269  -0.263  -0.253  -0.253  -0.250  -0.246
 -0.245  -0.240  -0.233  -0.228  -0.197  -0.191

          Ground-State Mulliken Net Atomic Charges

     Atom                 Charge (a.u.)
  ----------------------------------------
      1 C                     0.279325
      2 C                    -0.120893
      3 N                    -0.489722
      4 C                    -0.074750
      5 C                     0.079064
      6 C                     0.047005
      7 C                     0.072564
      8 C                     0.030025
      9 C                     0.147716
     10 N                    -0.511498
     11 N                    -0.532310
     12 C                     0.285932
     13 C                     0.318595
     14 S                     0.591656
     15 N                    -0.587062
     16 C                    -0.242355
     17 S                     0.305293
     18 C                    -0.129858
     19 C                    -0.253660
     20 S                     0.286877
     21 C                     0.211112
     22 C                     0.061071
     23 C                    -0.318880
     24 C                    -0.059122
     25 N                    -0.422792
     26 S                     0.285809
     27 C                     0.100885
     28 C                    -0.301104
     29 C                    -0.238044
     30 H                     0.094388
     31 H                     0.105673
     32 H                     0.128417
     33 H                     0.095407
     34 H                     0.125983
     35 H                     0.117814
     36 H                     0.119378
     37 H                     0.131509
     38 H                     0.102182
     39 C                    -0.173695
     40 H                     0.126392
     41 H                     0.095618
     42 H                     0.121937
     43 C                    -0.185403
     44 H                     0.083050
     45 C                    -0.174177
     46 H                     0.086040
     47 H                     0.092535
     48 H                     0.087082
     49 C                    -0.173627
     50 H                     0.099888
     51 C                    -0.329161
     52 H                     0.092973
     53 H                     0.100936
     54 H                     0.108385
     55 H                     0.106837
     56 C                     0.249746
     57 C                    -0.121984
     58 N                    -0.446875
     59 C                    -0.067577
     60 C                     0.092880
     61 C                     0.008629
     62 C                     0.008779
     63 C                     0.063339
     64 C                     0.221903
     65 N                    -0.486333
     66 N                    -0.541812
     67 C                     0.230091
     68 C                     0.233541
     69 S                     0.644340
     70 N                    -0.567033
     71 C                    -0.220191
     72 S                     0.296135
     73 C                    -0.086928
     74 C                    -0.225350
     75 S                     0.276116
     76 C                     0.142558
     77 C                     0.089550
     78 C                    -0.304982
     79 C                    -0.050833
     80 N                    -0.438493
     81 S                     0.255980
     82 C                     0.124941
     83 C                    -0.313405
     84 C                    -0.226489
     85 H                     0.080758
     86 H                     0.107607
     87 H                     0.103663
     88 H                     0.108018
     89 H                     0.118428
     90 H                     0.130811
     91 H                     0.115769
     92 H                     0.128458
     93 H                     0.088393
     94 C                    -0.175094
     95 H                     0.117366
     96 H                     0.092043
     97 H                     0.117858
     98 C                    -0.184490
     99 H                     0.094447
    100 C                    -0.163427
    101 H                     0.097355
    102 H                     0.090635
    103 H                     0.096214
    104 C                    -0.178081
    105 H                     0.092200
    106 C                    -0.323253
    107 H                     0.093300
    108 H                     0.100855
    109 H                     0.098366
    110 H                     0.104318
  ----------------------------------------
  Sum of atomic charges =     0.000000

                    Cartesian Multipole Moments
 -----------------------------------------------------------------
    Charge (ESU x 10^10)
                 0.0000
    Dipole Moment (Debye)
         X      -0.0951      Y      -0.6288      Z       0.5517
       Tot       0.8419
    Quadrupole Moments (Debye-Ang)
        XX    -412.6147     XY      19.5767     YY    -406.8075
        XZ      14.2282     YZ       6.9924     ZZ    -433.3751

 Total job time:  88.39s(wall), 1028.75s(cpu)
        *  Thank you very much for using Q-Chem.  Have a nice day.  *
