 Q-Chem 4.4, Q-Chem, Inc., Pleasanton, CA (2016)
 Q-Chem 4.4.2 for Intel X86 Linux

User input:
--------------------------------------------------------------
$comment
SP
$end

$rem
MEM_STATIC 5000
MEM_TOTAL 20000
JOBTYPE SP
EXCHANGE B3LYP
BASIS 6-31g(d,p)
$end

$molecule
0 1
C         -15.039000     14.557000      8.969000
C         -14.291000     15.191000      7.979000
N         -16.300000     14.947000      9.243000
C         -14.767000     16.330000      7.297000
C         -16.768000     16.047000      8.625000
C         -16.042000     16.782000      7.622000
C         -16.725000     17.852000      6.944000
C         -17.909000     17.725000      6.295000
C         -16.041000     19.099000      6.820000
N         -18.448000     18.631000      5.504000
N         -14.903000     19.384000      7.432000
C         -16.645000     20.055000      6.004000
C         -17.910000     19.812000      5.343000
S         -14.614000     20.903000      6.905000
N         -15.836000     21.159000      5.832000
C         -18.435000     20.839000      4.449000
S         -18.586000     22.548000      4.720000
C         -19.105000     20.572000      3.282000
C         -19.404000     22.847000      3.217000
S         -19.126000     19.068000      2.418000
C         -19.567000     21.648000      2.570000
C         -19.995000     24.063000      2.764000
C         -19.938000     19.877000      1.115000
C         -20.151000     21.175000      1.304000
N         -20.382000     24.212000      1.512000
S         -20.093000     25.590000      3.728000
C         -20.899000     25.530000      1.276000
C         -20.805000     26.359000      2.359000
C         -14.614000     13.184000      9.580000
H         -13.370000     14.735000      7.629000
H         -14.092000     16.786000      6.578000
H         -17.797000     16.321000      8.856000
H         -18.412000     16.764000      6.386000
H         -20.211000     19.251000      0.275000
H         -20.648000     21.873000      0.640000
H         -21.330000     25.791000      0.319000
H         -20.969000     27.420000      2.491000
H         -13.705000     12.870000      9.052000
C         -15.597000     11.980000      9.668000
H         -14.169000     13.364000     10.566000
H         -15.084000     11.017000      9.552000
H         -16.304000     12.109000      8.840000
C         -16.405000     11.955000     11.002000
H         -16.778000     12.921000     11.363000
C         -15.416000     11.460000     12.120000
H         -17.230000     11.244000     10.863000
H         -14.420000     11.920000     12.108000
H         -15.082000     10.434000     11.920000
C         -16.089000     11.643000     13.535000
H         -16.734000     12.515000     13.701000
C         -15.103000     11.369000     14.710000
H         -16.815000     10.824000     13.609000
H         -15.553000     11.587000     15.686000
H         -14.298000     12.106000     14.597000
H         -14.767000     10.325000     14.717000
C         -13.959000     23.974000     16.278000
C         -14.899000     23.974000     15.264000
N         -12.636000     23.823000     16.014000
C         -14.567000     23.630000     13.929000
C         -12.285000     23.551000     14.795000
C         -13.199000     23.527000     13.656000
C         -12.744000     23.276000     12.321000
C         -13.414000     22.304000     11.561000
C         -11.784000     24.030000     11.644000
N         -13.071000     21.942000     10.326000
N         -11.093000     25.089000     12.191000
C         -11.278000     23.529000     10.455000
C         -11.885000     22.430000      9.868000
S          -9.868000     25.366000     11.151000
N         -10.130000     24.189000     10.068000
C         -11.459000     21.763000      8.693000
S         -11.651000     19.993000      8.434000
C         -10.789000     22.305000      7.626000
C         -10.873000     20.087000      6.912000
S         -10.379000     23.928000      7.201000
C         -10.476000     21.345000      6.640000
C         -10.765000     18.977000      5.970000
C          -9.833000     23.318000      5.641000
C          -9.820000     21.932000      5.509000
N         -10.268000     19.229000      4.810000
S         -11.542000     17.435000      6.207000
C         -10.553000     18.213000      3.918000
C         -11.293000     17.202000      4.471000
C         -14.321000     24.211000     17.728000
H         -15.942000     23.992000     15.568000
H         -15.327000     23.426000     13.182000
H         -11.201000     23.465000     14.745000
H         -14.267000     21.755000     11.957000
H          -9.287000     23.973000      4.976000
H          -9.536000     21.521000      4.547000
H         -10.262000     18.346000      2.884000
H         -11.553000     16.286000      3.960000
H         -15.378000     23.919000     17.706000
C         -13.998000     25.699000     18.188000
H         -13.677000     23.613000     18.385000
H         -14.726000     26.256000     17.584000
H         -13.002000     25.983000     17.824000
C         -14.129000     25.909000     19.694000
H         -14.818000     25.157000     20.097000
C         -14.510000     27.364000     20.048000
H         -13.214000     25.703000     20.260000
H         -15.353000     27.678000     19.420000
H         -13.695000     28.088000     19.920000
C         -14.850000     27.396000     21.518000
H         -15.569000     26.595000     21.732000
C         -15.405000     28.833000     21.889000
H         -13.958000     27.214000     22.129000
H         -14.607000     29.577000     21.774000
H         -15.658000     28.877000     22.955000
H         -16.198000     29.092000     21.177000
$end

--------------------------------------------------------------

             Standard Nuclear Orientation (Angstroms)
    I     Atom           X                Y                Z
 ----------------------------------------------------------------
    1      C      -2.1076033536     5.9030762875    -0.9452870910
    2      C      -2.5415063283     5.1749152687     0.1606377434
    3      N      -2.1051920530     5.3576116280    -2.1780723484
    4      C      -2.8915659418     3.8119095083     0.0673930965
    5      C      -2.4096527919     4.0515904425    -2.2901451886
    6      C      -2.8263953397     3.2208538881    -1.1903668355
    7      C      -3.2589174945     1.8801365934    -1.4844326804
    8      C      -4.2336943868     1.5590396034    -2.3709385931
    9      C      -2.7288218933     0.8239574501    -0.6833551119
   10      N      -4.7807834581     0.3677349955    -2.5070447260
   11      N      -1.7454613052     0.9772335358     0.1886089902
   12      C      -3.3000833842    -0.4349223358    -0.8663578272
   13      C      -4.3502656505    -0.6683708070    -1.8352819826
   14      S      -1.5963362521    -0.5343242578     0.7899123705
   15      N      -2.8251822585    -1.3459626427     0.0541613089
   16      C      -4.9423586932    -2.0000495993    -1.9104313201
   17      S      -4.1498451500    -3.5440235752    -1.9810687422
   18      C      -6.2722904433    -2.2369033821    -2.1497215740
   19      C      -5.6246723009    -4.4388519623    -2.1852770491
   20      S      -7.5712020306    -1.0956297705    -2.0108827042
   21      C      -6.6668111237    -3.5471625765    -2.2254729850
   22      C      -5.7788790795    -5.8297563790    -2.4586836565
   23      C      -8.6884723105    -2.4052485725    -2.2305181184
   24      C      -8.1308972464    -3.6034165523    -2.3697931696
   25      N      -6.9543215649    -6.4204422927    -2.3643485362
   26      S      -4.4187250769    -6.9876667934    -2.7412673814
   27      C      -6.8580714681    -7.8266540424    -2.6352976710
   28      C      -5.5786678542    -8.2586942389    -2.8484494046
   29      C      -1.9175903407     7.4524815692    -0.8971900248
   30      H      -2.7361481986     5.6884041036     1.0971849973
   31      H      -3.1688427459     3.3147207776     0.9928351206
   32      H      -2.4165621493     3.6499153629    -3.3030061816
   33      H      -4.6390469017     2.3766671612    -2.9642222650
   34      H      -9.7347149231    -2.1277466422    -2.2498591197
   35      H      -8.6253154249    -4.5544629556    -2.5315658605
   36      H      -7.7455926393    -8.4434794739    -2.6748395184
   37      H      -5.1398476899    -9.2426459871    -2.9449730827
   38      H      -2.2242745058     7.7783705889     0.1045096157
   39      C      -2.5540563252     8.3955097918    -1.9598554575
   40      H      -0.8460691047     7.6698156695    -0.8121657367
   41      H      -2.8400539323     9.3657103573    -1.5345200233
   42      H      -3.4556878564     7.8823321156    -2.3145148077
   43      C      -1.6198814087     8.6455142382    -3.1837263666
   44      H      -1.0734094333     7.7743468643    -3.5645698866
   45      C      -0.5042556426     9.6446037348    -2.7038625026
   46      H      -2.2384366835     9.0947739831    -3.9717758915
   47      H      -0.0563284495     9.4202134339    -1.7277630084
   48      H      -0.9403877127    10.6112649785    -2.4217510754
   49      C       0.6148854178     9.7529362388    -3.8104023145
   50      H       0.8740129693     8.8548143594    -4.3850282814
   51      C       1.8574342383    10.5623223188    -3.3320054058
   52      H       0.1773494734    10.3866391534    -4.5916166983
   53      H       2.6656740544    10.5544757746    -4.0731442804
   54      H       2.2553199362    10.0099731094    -2.4714472600
   55      H       1.5994239678    11.6075238856    -3.1225647580
   56      C       7.9954391305    -0.4819515322    -1.5992919127
   57      C       6.8138920179    -0.9786568294    -2.1179693349
   58      N       8.1039442605    -0.1433285832    -0.2891823237
   59      C       5.6075583349    -0.9844021967    -1.3726432076
   60      C       7.0314516850    -0.1778336004     0.4400056351
   61      C       5.7382988538    -0.6837898148    -0.0128266345
   62      C       4.6012411976    -0.7505381690     0.8560206153
   63      C       3.3864284893    -0.2097189614     0.4054335888
   64      C       4.5506024706    -1.4535286498     2.0608795711
   65      N       2.2658944651    -0.1667563542     1.1240960374
   66      N       5.6129492073    -2.1341732292     2.6143354118
   67      C       3.4711065233    -1.2333658530     2.9016975316
   68      C       2.3843894867    -0.5097639554     2.4366541182
   69      S       5.1525920080    -2.4448738867     4.1474663098
   70      N       3.7013705665    -1.7235653339     4.1705379231
   71      C       1.2354074334    -0.1474389628     3.1820069480
   72      S       0.3296550513     1.3853529942     2.9231509289
   73      C       0.6776619243    -0.8289566576     4.2334852306
   74      C      -0.7563276509     1.0090635253     4.1918714679
   75      S       0.9898816104    -2.3819577835     4.9216424588
   76      C      -0.4396463006    -0.1611308494     4.7788255102
   77      C      -1.9482780701     1.7869409795     4.5163539244
   78      C      -0.4451704160    -2.1618098649     5.9196287190
   79      C      -1.0426890902    -0.9064773628     5.8441254533
   80      N      -2.7416568903     1.3120308782     5.4114089189
   81      S      -2.5089034126     3.1321356945     3.5604185689
   82      C      -3.9739083093     1.9350937096     5.3614674686
   83      C      -4.0573633497     2.8867744827     4.3802086024
   84      C       9.2575381042    -0.3486629642    -2.4233388399
   85      H       6.7781855410    -1.1230298640    -3.1942919977
   86      H       4.6456697665    -1.1742835948    -1.8373371248
   87      H       7.2812118569     0.1137482804     1.4586085329
   88      H       3.2911623095     0.2412682226    -0.5811569620
   89      H      -0.6435578172    -2.8553855995     6.7252099622
   90      H      -1.9555682459    -0.7492545043     6.4071117940
   91      H      -4.7585843207     1.5654365605     6.0088955721
   92      H      -4.9088827904     3.5347703144     4.2292349483
   93      H       8.8198658028    -0.3036551356    -3.4280349392
   94      C      10.2824384437    -1.5317227968    -2.1404577222
   95      H       9.8246397947     0.5377911782    -2.1125596158
   96      H       9.7229537792    -2.3817903005    -2.5520535791
   97      H      10.3563117988    -1.6964023773    -1.0575951441
   98      C      11.6539194825    -1.3084606367    -2.7717189742
   99      H      11.5430011042    -0.6319752860    -3.6276971770
  100      C      12.3626130789    -2.6391157126    -3.1102635881
  101      H      12.3582092948    -0.7577536244    -2.1386987164
  102      H      11.6625316305    -3.2938246004    -3.6439968902
  103      H      12.7456283821    -3.1817073162    -2.2363765077
  104      C      13.5774355169    -2.3042500426    -3.9406824144
  105      H      13.2725985622    -1.6443711795    -4.7628699339
  106      C      14.2428965968    -3.6494078140    -4.4489610005
  107      H      14.3231898865    -1.7673749713    -3.3425816052
  108      H      14.6393581943    -4.2103346995    -3.5935405010
  109      H      15.1291872319    -3.4272981763    -5.0551434968
  110      H      13.4639648136    -4.2673158432    -4.9119177422
 ----------------------------------------------------------------

    9   -5663.5017357448      8.95E-06 Convergence criterion met
 Total energy in the final basis set = -5663.5017357448

                    Orbital Energies (a.u.)
 --------------------------------------------------------------

 Alpha MOs
 -- Occupied --
-88.997 -88.978 -88.930 -88.926 -88.925 -88.917 -88.910 -88.898
-14.389 -14.385 -14.385 -14.378 -14.349 -14.344 -14.343 -14.341
-14.328 -14.325 -10.270 -10.270 -10.262 -10.257 -10.256 -10.255
-10.248 -10.245 -10.236 -10.236 -10.236 -10.235 -10.234 -10.234
-10.233 -10.232 -10.230 -10.229 -10.228 -10.227 -10.227 -10.226
-10.225 -10.222 -10.219 -10.219 -10.216 -10.215 -10.215 -10.210
-10.210 -10.209 -10.206 -10.203 -10.199 -10.197 -10.195 -10.190
-10.186 -10.185 -10.182 -10.180 -10.178 -10.177 -10.175 -10.175
-10.174 -10.173 -10.173 -10.168  -8.052  -8.034  -7.991  -7.986
 -7.984  -7.978  -7.971  -7.960  -6.017  -6.012  -6.011  -5.999
 -5.993  -5.991  -5.955  -5.952  -5.950  -5.948  -5.948  -5.946
 -5.945  -5.942  -5.942  -5.941  -5.939  -5.936  -5.935  -5.932
 -5.927  -5.925  -5.921  -5.916  -1.038  -1.034  -0.980  -0.970
 -0.966  -0.955  -0.947  -0.936  -0.920  -0.918  -0.903  -0.900
 -0.852  -0.850  -0.841  -0.838  -0.819  -0.809  -0.808  -0.808
 -0.802  -0.798  -0.794  -0.793  -0.789  -0.776  -0.768  -0.762
 -0.751  -0.744  -0.741  -0.735  -0.728  -0.728  -0.714  -0.706
 -0.691  -0.690  -0.678  -0.671  -0.656  -0.650  -0.649  -0.644
 -0.637  -0.636  -0.630  -0.622  -0.612  -0.610  -0.598  -0.592
 -0.590  -0.587  -0.582  -0.581  -0.580  -0.580  -0.577  -0.565
 -0.554  -0.547  -0.546  -0.542  -0.528  -0.523  -0.514  -0.510
 -0.508  -0.507  -0.505  -0.500  -0.490  -0.489  -0.480  -0.476
 -0.474  -0.472  -0.468  -0.467  -0.464  -0.451  -0.447  -0.447
 -0.442  -0.442  -0.440  -0.438  -0.435  -0.432  -0.428  -0.427
 -0.426  -0.425  -0.423  -0.423  -0.421  -0.420  -0.416  -0.412
 -0.411  -0.409  -0.407  -0.404  -0.404  -0.401  -0.400  -0.398
 -0.395  -0.393  -0.392  -0.390  -0.386  -0.385  -0.384  -0.382
 -0.378  -0.373  -0.372  -0.367  -0.367  -0.362  -0.358  -0.353
 -0.351  -0.348  -0.347  -0.346  -0.344  -0.342  -0.341  -0.339
 -0.338  -0.336  -0.335  -0.333  -0.331  -0.329  -0.327  -0.322
 -0.319  -0.318  -0.312  -0.306  -0.304  -0.303  -0.302  -0.296
 -0.293  -0.289  -0.287  -0.287  -0.286  -0.283  -0.282  -0.280
 -0.277  -0.267  -0.266  -0.263  -0.254  -0.251  -0.250  -0.248
 -0.246  -0.244  -0.234  -0.233  -0.196  -0.196

          Ground-State Mulliken Net Atomic Charges

     Atom                 Charge (a.u.)
  ----------------------------------------
      1 C                     0.271107
      2 C                    -0.134637
      3 N                    -0.471798
      4 C                    -0.024417
      5 C                     0.070677
      6 C                     0.012054
      7 C                     0.024692
      8 C                     0.058607
      9 C                     0.243417
     10 N                    -0.511135
     11 N                    -0.550478
     12 C                     0.159144
     13 C                     0.293446
     14 S                     0.627458
     15 N                    -0.538164
     16 C                    -0.201957
     17 S                     0.326099
     18 C                    -0.112485
     19 C                    -0.237767
     20 S                     0.257616
     21 C                     0.153710
     22 C                     0.072796
     23 C                    -0.306387
     24 C                    -0.029331
     25 N                    -0.450688
     26 S                     0.244891
     27 C                     0.111957
     28 C                    -0.300006
     29 C                    -0.227953
     30 H                     0.086514
     31 H                     0.106016
     32 H                     0.103118
     33 H                     0.107442
     34 H                     0.129284
     35 H                     0.123165
     36 H                     0.117965
     37 H                     0.140090
     38 H                     0.086559
     39 C                    -0.175051
     40 H                     0.115521
     41 H                     0.093774
     42 H                     0.097180
     43 C                    -0.171035
     44 H                     0.120167
     45 C                    -0.177134
     46 H                     0.090254
     47 H                     0.088288
     48 H                     0.085075
     49 C                    -0.187192
     50 H                     0.097179
     51 C                    -0.321328
     52 H                     0.093912
     53 H                     0.096747
     54 H                     0.101583
     55 H                     0.104317
     56 C                     0.250577
     57 C                    -0.122308
     58 N                    -0.446203
     59 C                    -0.067458
     60 C                     0.093464
     61 C                     0.007729
     62 C                     0.009508
     63 C                     0.064984
     64 C                     0.225389
     65 N                    -0.492580
     66 N                    -0.539637
     67 C                     0.232779
     68 C                     0.241095
     69 S                     0.630878
     70 N                    -0.560517
     71 C                    -0.233993
     72 S                     0.302820
     73 C                    -0.087517
     74 C                    -0.230129
     75 S                     0.282068
     76 C                     0.146913
     77 C                     0.087894
     78 C                    -0.303332
     79 C                    -0.050849
     80 N                    -0.437130
     81 S                     0.259679
     82 C                     0.127703
     83 C                    -0.321050
     84 C                    -0.226771
     85 H                     0.082417
     86 H                     0.108355
     87 H                     0.103113
     88 H                     0.111796
     89 H                     0.123189
     90 H                     0.132420
     91 H                     0.119341
     92 H                     0.130798
     93 H                     0.089225
     94 C                    -0.174651
     95 H                     0.118216
     96 H                     0.092003
     97 H                     0.117354
     98 C                    -0.185277
     99 H                     0.095076
    100 C                    -0.163580
    101 H                     0.097925
    102 H                     0.090651
    103 H                     0.096273
    104 C                    -0.178533
    105 H                     0.092578
    106 C                    -0.323199
    107 H                     0.093633
    108 H                     0.100853
    109 H                     0.098828
    110 H                     0.104315
  ----------------------------------------
  Sum of atomic charges =     0.000000

                    Cartesian Multipole Moments
 -----------------------------------------------------------------
    Charge (ESU x 10^10)
                 0.0000
    Dipole Moment (Debye)
         X      -0.2974      Y      -1.6163      Z       1.7709
       Tot       2.4160
    Quadrupole Moments (Debye-Ang)
        XX    -431.1455     XY      -7.9301     YY    -417.8445
        XZ     -16.7532     YZ      10.3002     ZZ    -435.4898

 Total job time:  83.48s(wall), 983.98s(cpu)
        *  Thank you very much for using Q-Chem.  Have a nice day.  *
