 Q-Chem 4.4, Q-Chem, Inc., Pleasanton, CA (2016)
 Q-Chem 4.4.2 for Intel X86 Linux

User input:
--------------------------------------------------------------
$comment
SP
$end

$rem
MEM_STATIC 5000
MEM_TOTAL 20000
JOBTYPE SP
EXCHANGE B3LYP
BASIS 6-31g(d,p)
$end

$molecule
0 1
C          -5.513000     18.744000      6.827000
C          -5.837000     17.551000      7.536000
N          -6.305000     19.873000      7.016000
C          -6.811000     17.504000      8.500000
C          -7.270000     19.791000      7.885000
C          -7.583000     18.715000      8.736000
C          -8.713000     18.836000      9.774000
C          -9.728000     17.885000      9.887000
C          -8.797000     19.851000     10.708000
N         -10.756000     17.926000     10.767000
N          -7.838000     20.772000     10.774000
C          -9.767000     19.905000     11.627000
C         -10.826000     18.964000     11.625000
S          -8.344000     21.744000     11.997000
N          -9.595000     20.853000     12.523000
C         -12.064000     19.109000     12.368000
S         -12.176000     19.825000     13.979000
C         -13.322000     18.687000     12.017000
C         -13.901000     19.690000     14.054000
S         -13.841000     17.771000     10.661000
C         -14.267000     18.967000     12.976000
C         -14.777000     20.038000     15.090000
C         -15.487000     17.882000     11.250000
C         -15.562000     18.522000     12.486000
N         -16.035000     20.381000     14.807000
S         -14.194000     20.474000     16.652000
C         -16.695000     20.564000     16.021000
C         -15.850000     20.669000     17.094000
C          -4.192000     18.858000      6.165000
H          -5.285000     16.649000      7.291000
H          -6.960000     16.681000      9.193000
H          -7.840000     20.711000      8.002000
H          -9.633000     16.977000      9.295000
H         -16.374000     17.564000     10.719000
H         -16.486000     18.523000     13.052000
H         -17.768000     20.705000     15.995000
H         -16.000000     20.982000     18.118000
H          -3.788000     17.866000      5.925000
C          -3.057000     19.597000      6.997000
H          -4.402000     19.376000      5.220000
H          -3.276000     20.662000      7.140000
H          -2.068000     19.547000      6.523000
C          -3.026000     19.021000      8.438000
H          -3.982000     19.211000      8.941000
C          -1.873000     19.584000      9.267000
H          -2.869000     17.936000      8.483000
H          -2.297000     20.428000      9.825000
H          -0.992000     19.958000      8.731000
C          -1.400000     18.452000     10.290000
H          -2.242000     17.972000     10.806000
C          -0.530000     19.029000     11.405000
H          -0.706000     17.808000      9.736000
H          -0.310000     18.222000     12.113000
H          -1.079000     19.870000     11.845000
H           0.435000     19.431000     11.071000
C         -13.959000     23.974000     16.278000
C         -14.899000     23.974000     15.264000
N         -12.636000     23.823000     16.014000
C         -14.567000     23.630000     13.929000
C         -12.285000     23.551000     14.795000
C         -13.199000     23.527000     13.656000
C         -12.744000     23.276000     12.321000
C         -13.414000     22.304000     11.561000
C         -11.784000     24.030000     11.644000
N         -13.071000     21.942000     10.326000
N         -11.093000     25.089000     12.191000
C         -11.278000     23.529000     10.455000
C         -11.885000     22.430000      9.868000
S          -9.868000     25.366000     11.151000
N         -10.130000     24.189000     10.068000
C         -11.459000     21.763000      8.693000
S         -11.651000     19.993000      8.434000
C         -10.789000     22.305000      7.626000
C         -10.873000     20.087000      6.912000
S         -10.379000     23.928000      7.201000
C         -10.476000     21.345000      6.640000
C         -10.765000     18.977000      5.970000
C          -9.833000     23.318000      5.641000
C          -9.820000     21.932000      5.509000
N         -10.268000     19.229000      4.810000
S         -11.542000     17.435000      6.207000
C         -10.553000     18.213000      3.918000
C         -11.293000     17.202000      4.471000
C         -14.321000     24.211000     17.728000
H         -15.942000     23.992000     15.568000
H         -15.327000     23.426000     13.182000
H         -11.201000     23.465000     14.745000
H         -14.267000     21.755000     11.957000
H          -9.287000     23.973000      4.976000
H          -9.536000     21.521000      4.547000
H         -10.262000     18.346000      2.884000
H         -11.553000     16.286000      3.960000
H         -15.378000     23.919000     17.706000
C         -13.998000     25.699000     18.188000
H         -13.677000     23.613000     18.385000
H         -14.726000     26.256000     17.584000
H         -13.002000     25.983000     17.824000
C         -14.129000     25.909000     19.694000
H         -14.818000     25.157000     20.097000
C         -14.510000     27.364000     20.048000
H         -13.214000     25.703000     20.260000
H         -15.353000     27.678000     19.420000
H         -13.695000     28.088000     19.920000
C         -14.850000     27.396000     21.518000
H         -15.569000     26.595000     21.732000
C         -15.405000     28.833000     21.889000
H         -13.958000     27.214000     22.129000
H         -14.607000     29.577000     21.774000
H         -15.658000     28.877000     22.955000
H         -16.198000     29.092000     21.177000
$end

--------------------------------------------------------------

             Standard Nuclear Orientation (Angstroms)
    I     Atom           X                Y                Z
 ----------------------------------------------------------------
    1      C      -7.2436179701     1.4957884572    -0.4906924919
    2      C      -6.9700992753     0.9933748234    -1.7959411518
    3      N      -6.2463123095     1.4258349876     0.4778703256
    4      C      -5.7239733555     0.5692074561    -2.1799115108
    5      C      -5.0885072288     0.9559316110     0.1148438640
    6      C      -4.6731474128     0.5699247348    -1.1729530590
    7      C      -3.2231158790     0.1227618304    -1.4307104795
    8      C      -2.9149915725    -1.0676918811    -2.0904637459
    9      C      -2.1127451428     0.8696877149    -1.0860141619
   10      N      -1.6687492386    -1.5302310932    -2.3469837696
   11      N      -2.2674688873     2.0728178930    -0.5375468999
   12      C      -0.8654465904     0.4751078274    -1.3633768008
   13      C      -0.6142692224    -0.7920843133    -1.9448404785
   14      S      -0.7209317950     2.5750270803    -0.3082916833
   15      N       0.0483020922     1.3842067332    -1.0993568689
   16      C       0.6863396652    -1.4328917982    -2.0040037168
   17      S       2.2058710798    -0.5709209302    -2.2658271358
   18      C       0.9796490600    -2.7719139706    -1.9344463972
   19      C       3.1826215724    -1.9921934071    -2.1063968326
   20      S      -0.0686169490    -4.1294507592    -1.8610621883
   21      C       2.3249526918    -3.0315361278    -2.0521769108
   22      C       4.5710429706    -2.1358351868    -2.2222806541
   23      C       1.3348118981    -5.1754408613    -1.7914189721
   24      C       2.5275377619    -4.4656112511    -1.9197464376
   25      N       5.1936792237    -3.1130471456    -1.5607045936
   26      S       5.5612094468    -0.8550481502    -2.8130292606
   27      C       6.5325491799    -3.0840174688    -1.9473174728
   28      C       6.8917942431    -1.9306435792    -2.5931120650
   29      C      -8.4363907952     2.3490602250    -0.2773822065
   30      H      -7.7912161621     0.9468157010    -2.5044129623
   31      H      -5.4258896749     0.3636069878    -3.2039493845
   32      H      -4.3456932849     0.9450776649     0.9105188206
   33      H      -3.7387456002    -1.6232642859    -2.5339968393
   34      H       1.3237677501    -6.2409679346    -1.6059895170
   35      H       3.4676787427    -4.9862774576    -2.0582189530
   36      H       7.1682100501    -3.8984343696    -1.6239811622
   37      H       7.8501805273    -1.5085435308    -2.8621330296
   38      H      -9.2033553981     2.1456677260    -1.0358522383
   39      C      -8.1880058094     3.9183560725    -0.3241309172
   40      H      -8.8307300294     2.0315317438     0.6968463252
   41      H      -7.5704763769     4.2645080235     0.5134078740
   42      H      -9.1142972310     4.5065134263    -0.2873596050
   43      C      -7.3460388319     4.2627829050    -1.5817794237
   44      H      -6.3657548293     3.7740336413    -1.5251011088
   45      C      -7.1741619617     5.7683782583    -1.7748078503
   46      H      -7.7964685154     3.9324124896    -2.5261667853
   47      H      -6.2139083964     6.0169776237    -1.3062062650
   48      H      -7.9311546031     6.4303829794    -1.3365785835
   49      C      -7.0936948490     6.0603142769    -3.3432403178
   50      H      -6.4121215467     5.3754507416    -3.8648146380
   51      C      -6.5452866599     7.4571132213    -3.6282932373
   52      H      -8.1299480949     6.1187085098    -3.6982858415
   53      H      -6.4377996344     7.5622170858    -4.7137943736
   54      H      -5.6033831102     7.5567340431    -3.0758664142
   55      H      -7.1894170313     8.2792713957    -3.2913407170
   56      C       6.4273233847     0.7181900644     0.2233944856
   57      C       6.2035749229    -0.4424818598     0.9407321398
   58      N       5.4321832254     1.6149394827     0.0034796294
   59      C       4.9007197368    -0.8546403331     1.3195180382
   60      C       4.2309707369     1.2956345292     0.3753383448
   61      C       3.8910856965     0.0958602985     1.1358072491
   62      C       2.5529447071    -0.1763414970     1.5688613741
   63      C       2.0114960690    -1.4438490393     1.3013880065
   64      C       1.7853988113     0.6598121626     2.3813669774
   65      N       0.7701023698    -1.8153481739     1.6093621559
   66      N       2.1886807507     1.8978650338     2.8316555132
   67      C       0.4357858582     0.3772444916     2.5208603035
   68      C      -0.0590109484    -0.8264001932     2.0441690063
   69      S       0.8288100437     2.5950961020     3.4004916035
   70      N      -0.2565644609     1.4389739200     3.0655204330
   71      C      -1.4137464530    -1.2406265770     2.0540793751
   72      S      -2.1431666279    -2.2730067784     0.7738519233
   73      C      -2.3848693712    -0.8859519973     2.9553447191
   74      C      -3.6760049301    -2.2077361647     1.5332928272
   75      S      -2.3392580572    -0.0132931388     4.4450561425
   76      C      -3.6425918645    -1.4446448981     2.6426765687
   77      C      -4.8404425221    -2.9800504797     1.1105119227
   78      C      -4.0264250462    -0.4584389313     4.6882202323
   79      C      -4.6369307783    -1.1069542472     3.6180335027
   80      N      -5.8889825639    -2.9287906969     1.8548567456
   81      S      -4.7896070231    -4.1879579997    -0.1448912695
   82      C      -6.7609887814    -3.9572481616     1.5531525856
   83      C      -6.3028963715    -4.7775498734     0.5567658909
   84      C       7.7933909450     1.1049183559    -0.3000686453
   85      H       7.0224184510    -1.1556442020     0.9792516177
   86      H       4.6995003548    -1.8534609907     1.6924698505
   87      H       3.5527715214     2.1128579640     0.1362908979
   88      H       2.5850518795    -2.2153841453     0.7899260701
   89      H      -4.5882810010     0.0050788328     5.4874918810
   90      H      -5.6604046519    -1.4392318062     3.7488534323
   91      H      -7.6435285104    -4.0743252986     2.1687356999
   92      H      -6.8697704367    -5.5909528117     0.1268746787
   93      H       8.2651797763     0.1154746776    -0.3376652675
   94      C       8.4954904024     2.1992935679     0.6161585358
   95      H       7.7007190680     1.6234060967    -1.2626544263
   96      H       8.6597977512     1.6161000195     1.5315477319
   97      H       7.7686452755     2.9829190227     0.8667484558
   98      C       9.7633372033     2.7828121193    -0.0013911299
   99      H      10.1758394171     2.0575344970    -0.7130429367
  100      C      10.7707406835     3.2526330844     1.0718788683
  101      H       9.5935925766     3.6554599203    -0.6414611082
  102      H      10.8933442020     2.4607644057     1.8212395110
  103      H      10.4812360077     4.1763965984     1.5892114623
  104      C      12.0645472414     3.5753174850     0.3651516449
  105      H      12.3358047264     2.7294242037    -0.2792410408
  106      C      13.1758791294     3.9035990577     1.4458031353
  107      H      11.9498833622     4.4577588524    -0.2753625454
  108      H      12.9128747812     4.8275550387     1.9756135334
  109      H      14.1253128058     4.1415036017     0.9515581334
  110      H      13.1879721044     3.0946867234     2.1863357784
 ----------------------------------------------------------------

   10   -5663.4746168379      8.61E-06 Convergence criterion met
 Total energy in the final basis set = -5663.4746168379

                    Orbital Energies (a.u.)
 --------------------------------------------------------------

 Alpha MOs
 -- Occupied --
-88.993 -88.984 -88.923 -88.921 -88.919 -88.914 -88.904 -88.902
-14.383 -14.381 -14.381 -14.376 -14.347 -14.343 -14.340 -14.332
-14.324 -14.320 -10.263 -10.261 -10.259 -10.251 -10.250 -10.247
-10.245 -10.241 -10.237 -10.232 -10.231 -10.230 -10.229 -10.227
-10.227 -10.227 -10.225 -10.225 -10.225 -10.221 -10.221 -10.220
-10.220 -10.219 -10.217 -10.215 -10.214 -10.213 -10.212 -10.211
-10.210 -10.208 -10.200 -10.197 -10.195 -10.193 -10.191 -10.188
-10.187 -10.185 -10.185 -10.181 -10.178 -10.178 -10.177 -10.175
-10.174 -10.174 -10.171 -10.166  -8.048  -8.040  -7.985  -7.982
 -7.979  -7.973  -7.965  -7.963  -6.012  -6.007  -6.006  -6.005
 -6.000  -5.998  -5.948  -5.946  -5.945  -5.944  -5.943  -5.942
 -5.940  -5.939  -5.938  -5.936  -5.934  -5.930  -5.929  -5.927
 -5.925  -5.924  -5.921  -5.919  -1.051  -1.033  -0.971  -0.970
 -0.958  -0.957  -0.942  -0.934  -0.920  -0.910  -0.910  -0.894
 -0.847  -0.842  -0.834  -0.829  -0.812  -0.810  -0.808  -0.807
 -0.804  -0.800  -0.797  -0.794  -0.785  -0.782  -0.767  -0.762
 -0.746  -0.745  -0.737  -0.735  -0.723  -0.719  -0.710  -0.709
 -0.693  -0.687  -0.674  -0.671  -0.655  -0.653  -0.643  -0.640
 -0.637  -0.632  -0.623  -0.617  -0.610  -0.606  -0.596  -0.593
 -0.590  -0.584  -0.579  -0.579  -0.577  -0.574  -0.573  -0.568
 -0.553  -0.547  -0.539  -0.538  -0.526  -0.520  -0.513  -0.507
 -0.502  -0.500  -0.500  -0.499  -0.487  -0.484  -0.479  -0.475
 -0.472  -0.471  -0.469  -0.467  -0.463  -0.462  -0.445  -0.443
 -0.440  -0.440  -0.437  -0.433  -0.431  -0.431  -0.427  -0.425
 -0.424  -0.423  -0.421  -0.420  -0.417  -0.415  -0.413  -0.411
 -0.410  -0.408  -0.402  -0.401  -0.399  -0.398  -0.395  -0.393
 -0.392  -0.392  -0.388  -0.387  -0.385  -0.385  -0.380  -0.379
 -0.376  -0.375  -0.371  -0.369  -0.366  -0.365  -0.354  -0.353
 -0.350  -0.349  -0.348  -0.343  -0.341  -0.338  -0.338  -0.336
 -0.335  -0.334  -0.331  -0.330  -0.330  -0.329  -0.328  -0.325
 -0.322  -0.310  -0.308  -0.307  -0.305  -0.300  -0.298  -0.296
 -0.294  -0.292  -0.290  -0.285  -0.282  -0.281  -0.276  -0.275
 -0.274  -0.273  -0.262  -0.258  -0.249  -0.248  -0.246  -0.244
 -0.241  -0.236  -0.227  -0.225  -0.193  -0.188

          Ground-State Mulliken Net Atomic Charges

     Atom                 Charge (a.u.)
  ----------------------------------------
      1 C                     0.249910
      2 C                    -0.115255
      3 N                    -0.469661
      4 C                    -0.069895
      5 C                     0.107774
      6 C                     0.023424
      7 C                     0.044074
      8 C                     0.024448
      9 C                     0.232748
     10 N                    -0.508105
     11 N                    -0.543410
     12 C                     0.251730
     13 C                     0.269575
     14 S                     0.586235
     15 N                    -0.566526
     16 C                    -0.224647
     17 S                     0.311105
     18 C                    -0.074399
     19 C                    -0.205481
     20 S                     0.294607
     21 C                     0.120535
     22 C                     0.037682
     23 C                    -0.304517
     24 C                    -0.059723
     25 N                    -0.428379
     26 S                     0.294484
     27 C                     0.109905
     28 C                    -0.308845
     29 C                    -0.226400
     30 H                     0.086628
     31 H                     0.102922
     32 H                     0.110584
     33 H                     0.107936
     34 H                     0.126386
     35 H                     0.110505
     36 H                     0.112759
     37 H                     0.133557
     38 H                     0.098701
     39 C                    -0.177381
     40 H                     0.112870
     41 H                     0.114534
     42 H                     0.095680
     43 C                    -0.183347
     44 H                     0.116341
     45 C                    -0.177558
     46 H                     0.088254
     47 H                     0.093477
     48 H                     0.089336
     49 C                    -0.187147
     50 H                     0.099618
     51 C                    -0.317954
     52 H                     0.097785
     53 H                     0.095700
     54 H                     0.100493
     55 H                     0.097250
     56 C                     0.251796
     57 C                    -0.118785
     58 N                    -0.451421
     59 C                    -0.063370
     60 C                     0.096424
     61 C                     0.002706
     62 C                     0.025101
     63 C                     0.061182
     64 C                     0.218726
     65 N                    -0.485872
     66 N                    -0.544036
     67 C                     0.237084
     68 C                     0.225731
     69 S                     0.621659
     70 N                    -0.565611
     71 C                    -0.239831
     72 S                     0.325506
     73 C                    -0.088915
     74 C                    -0.239143
     75 S                     0.276395
     76 C                     0.136909
     77 C                     0.089596
     78 C                    -0.305094
     79 C                    -0.042470
     80 N                    -0.435538
     81 S                     0.254435
     82 C                     0.125501
     83 C                    -0.315272
     84 C                    -0.230026
     85 H                     0.081848
     86 H                     0.114740
     87 H                     0.104714
     88 H                     0.127875
     89 H                     0.121381
     90 H                     0.131573
     91 H                     0.115192
     92 H                     0.126634
     93 H                     0.087398
     94 C                    -0.176092
     95 H                     0.112647
     96 H                     0.092709
     97 H                     0.118308
     98 C                    -0.184011
     99 H                     0.091433
    100 C                    -0.163455
    101 H                     0.097459
    102 H                     0.090893
    103 H                     0.096783
    104 C                    -0.178184
    105 H                     0.091367
    106 C                    -0.323501
    107 H                     0.093548
    108 H                     0.101285
    109 H                     0.098629
    110 H                     0.104535
  ----------------------------------------
  Sum of atomic charges =     0.000000

                    Cartesian Multipole Moments
 -----------------------------------------------------------------
    Charge (ESU x 10^10)
                 0.0000
    Dipole Moment (Debye)
         X       0.1397      Y      -0.6695      Z      -1.1998
       Tot       1.3810
    Quadrupole Moments (Debye-Ang)
        XX    -391.1449     XY      -0.9934     YY    -430.3225
        XZ       3.0079     YZ       4.1229     ZZ    -442.6604

 Total job time:  119.28s(wall), 1415.73s(cpu)
        *  Thank you very much for using Q-Chem.  Have a nice day.  *
