 Q-Chem 4.4, Q-Chem, Inc., Pleasanton, CA (2016)
 Q-Chem 4.4.2 for Intel X86 Linux

User input:
--------------------------------------------------------------
$comment
SP
$end

$rem
MEM_STATIC 5000
MEM_TOTAL 20000
JOBTYPE SP
EXCHANGE B3LYP
BASIS 6-31g(d,p)
$end

$molecule
0 1
C          26.228000      2.202000      0.891000
C          26.401000      1.599000     -0.304000
N          26.635000      3.465000      1.127000
C          26.953000      2.312000     -1.401000
C          26.999000      4.180000     -0.008000
C          27.154000      3.677000     -1.313000
C          27.483000      4.527000     -2.480000
C          28.251000      4.009000     -3.536000
C          27.038000      5.878000     -2.647000
N          28.375000      4.530000     -4.738000
N          26.488000      6.609000     -1.695000
C          27.249000      6.545000     -3.828000
C          27.970000      5.834000     -4.877000
S          26.393000      8.112000     -2.285000
N          26.982000      7.854000     -3.773000
C          28.286000      6.506000     -6.116000
S          27.716000      8.204000     -6.599000
C          28.758000      5.871000     -7.205000
C          28.112000      7.836000     -8.264000
S          29.225000      4.174000     -7.414000
C          28.637000      6.567000     -8.393000
C          27.766000      8.712000     -9.393000
C          29.420000      4.478000     -9.126000
C          29.091000      5.801000     -9.515000
N          28.219000      8.366000    -10.598000
S          26.587000     10.044000     -9.383000
C          27.771000      9.203000    -11.617000
C          26.914000     10.131000    -11.098000
C          25.732000      1.365000      2.062000
H          26.187000      0.543000     -0.435000
H          27.036000      1.752000     -2.328000
H          27.220000      5.222000      0.222000
H          28.766000      3.059000     -3.397000
H          29.689000      3.681000     -9.806000
H          29.016000      6.148000    -10.539000
H          28.182000      9.126000    -12.616000
H          26.520000     10.970000    -11.654000
H          25.380000      2.055000      2.839000
C          26.764000      0.355000      2.638000
H          24.806000      0.823000      1.832000
H          27.414000      1.052000      3.182000
H          27.383000     -0.144000      1.881000
C          26.167000     -0.632000      3.606000
H          25.201000     -0.255000      3.964000
C          27.167000     -1.059000      4.710000
H          25.814000     -1.478000      3.003000
H          26.677000     -1.854000      5.284000
H          27.353000     -0.116000      5.239000
C          28.471000     -1.729000      4.159000
H          28.227000     -2.694000      3.698000
C          29.548000     -1.830000      5.187000
H          28.803000     -1.092000      3.330000
H          30.484000     -2.013000      4.648000
H          29.235000     -2.635000      5.865000
H          29.694000     -0.903000      5.756000
C          27.408000     13.821000    -14.015000
C          27.262000     15.203000    -14.114000
N          27.433000     13.125000    -12.867000
C          27.122000     15.925000    -12.940000
C          27.443000     13.803000    -11.701000
C          27.298000     15.244000    -11.681000
C          27.222000     15.872000    -10.393000
C          28.094000     15.530000     -9.330000
C          26.211000     16.836000    -10.122000
N          27.975000     16.171000     -8.132000
N          25.267000     17.164000    -11.013000
C          25.991000     17.368000     -8.887000
C          26.943000     16.992000     -7.879000
S          24.125000     18.048000    -10.263000
N          24.821000     18.088000     -8.772000
C          26.681000     17.444000     -6.488000
S          25.788000     18.877000     -5.931000
C          27.383000     16.964000     -5.403000
C          26.224000     18.674000     -4.233000
S          28.419000     15.581000     -5.182000
C          27.090000     17.586000     -4.168000
C          25.800000     19.479000     -3.109000
C          28.395000     15.815000     -3.457000
C          27.674000     16.907000     -3.063000
N          25.782000     18.895000     -1.907000
S          24.777000     20.911000     -3.212000
C          25.049000     19.681000     -1.029000
C          24.577000     20.838000     -1.494000
C          27.557000     12.896000    -15.289000
H          27.131000     15.626000    -15.105000
H          26.936000     16.994000    -12.973000
H          27.510000     13.167000    -10.819000
H          28.863000     14.761000     -9.379000
H          28.804000     15.077000     -2.781000
H          27.561000     17.196000     -2.025000
H          25.025000     19.468000      0.031000
H          24.191000     21.603000     -0.832000
H          26.821000     12.089000    -15.395000
C          28.948000     12.312000    -15.468000
H          27.242000     13.489000    -16.157000
H          29.095000     11.343000    -14.977000
H          29.719000     12.934000    -14.996000
C          29.308000     12.142000    -16.968000
H          29.333000     13.054000    -17.577000
C          28.388000     11.181000    -17.747000
H          30.325000     11.731000    -16.982000
H          28.951000     11.055000    -18.681000
H          27.466000     11.718000    -18.001000
C          28.055000      9.796000    -17.060000
H          28.966000      9.204000    -16.909000
C          26.947000      8.992000    -17.813000
H          27.578000     10.015000    -16.096000
H          26.723000      8.049000    -17.301000
H          27.159000      8.878000    -18.884000
H          26.031000      9.595000    -17.841000
$end

--------------------------------------------------------------

             Standard Nuclear Orientation (Angstroms)
    I     Atom           X                Y                Z
 ----------------------------------------------------------------
    1      C      10.9839553684    -1.2665428885    -1.2353946848
    2      C      10.7867663080     0.0678656690    -1.2804865455
    3      N      10.1142522697    -2.1041369885    -0.6365903396
    4      C       9.5952773792     0.6410627863    -0.7625278623
    5      C       8.8903335056    -1.5333669919    -0.3076671421
    6      C       8.5471211984    -0.1701046755    -0.3691502199
    7      C       7.1933261005     0.3439235594    -0.0598868908
    8      C       7.0354915400     1.6191052951     0.5078135517
    9      C       5.9783281442    -0.3634783281    -0.3327926173
   10      N       5.9190592975     2.3131821788     0.5666125940
   11      N       5.9127806359    -1.6386852455    -0.6685244183
   12      C       4.7595576118     0.2456178876    -0.1661457170
   13      C       4.7603701935     1.6166709706     0.3298137401
   14      S       4.3445429240    -2.0320426295    -0.6234195713
   15      N       3.7160192410    -0.5866328750    -0.2447671957
   16      C       3.5086715021     2.2874922880     0.5940298372
   17      S       1.8222844009     1.6166542211     0.2100144301
   18      C       3.4129639910     3.6053941182     0.8507492140
   19      C       1.1712292978     3.2343355272     0.3639606695
   20      S       4.6913361822     4.8158073818     1.0562808957
   21      C       2.1511936616     4.1473209901     0.6937399747
   22      C      -0.2128440939     3.5884090363     0.0165332718
   23      C       3.4578470437     6.0560106094     1.0985360671
   24      C       2.1418584589     5.5630766856     0.9112363303
   25      N      -0.6116146276     4.8326085265     0.2809187670
   26      S      -1.3434686503     2.6245569286    -0.9617520787
   27      C      -1.9047658172     5.1028520602    -0.1599467833
   28      C      -2.3963438073     4.0126909623    -0.8194116120
   29      C      12.3217841687    -1.8195182328    -1.7068375441
   30      H      11.5583466621     0.7361783211    -1.6494241502
   31      H       9.5148514772     1.7198396474    -0.8604572153
   32      H       8.1880214661    -2.2723251868     0.0773050457
   33      H       7.9117591663     2.1334622547     0.9010538920
   34      H       3.7221672824     7.1017762470     1.1790285670
   35      H       1.2610474444     6.1786483993     0.7703341578
   36      H      -2.4041615909     6.0213171608     0.1226779150
   37      H      -3.4193608847     3.9178721265    -1.1551770773
   38      H      12.1969349102    -2.8968359147    -1.8727660681
   39      C      13.5248636651    -1.5355033818    -0.7640569281
   40      H      12.5853509717    -1.4838903437    -2.7177907875
   41      H      13.3052319650    -2.2589433304     0.0313307491
   42      H      13.5185805321    -0.5373338021    -0.3070787970
   43      C      14.8617890499    -1.8569462202    -1.3779844622
   44      H      14.7190509843    -2.5232866445    -2.2376735244
   45      C      15.8969374573    -2.3345769062    -0.3284694778
   46      H      15.1818803041    -0.9510172177    -1.9078601376
   47      H      16.8537467048    -2.4292864227    -0.8549171688
   48      H      15.4472949281    -3.2642529898     0.0419491711
   49      C      16.1810616918    -1.2891153307     0.8025479905
   50      H      16.6854317712    -0.4115998919     0.3796301760
   51      C      16.9108038973    -1.8773752135     1.9637286929
   52      H      15.1969662045    -0.9261081728     1.1235088527
   53      H      16.7893269383    -1.1803318627     2.8000778518
   54      H      17.9444133890    -2.0201705195     1.6217653627
   55      H      16.4955659744    -2.8369972832     2.2970587858
   56      C      -7.0668335386     4.3537571984    -0.1566714721
   57      C      -8.2536169024     3.6247293044    -0.1234362954
   58      N      -5.8327711096     3.8277667775    -0.0986283976
   59      C      -8.1637628857     2.2453351363    -0.0320142800
   60      C      -5.7048863584     2.5052437447     0.1335747856
   61      C      -6.8703382432     1.6470218933     0.1891009779
   62      C      -6.6348776014     0.2399554968     0.3434591394
   63      C      -5.6985368748    -0.2745862312     1.2739589265
   64      C      -7.3070508560    -0.6969274865    -0.4903822072
   65      N      -5.5279656176    -1.6238032760     1.3777125401
   66      N      -8.1353287173    -0.3252666477    -1.4744680802
   67      C      -7.0311108454    -2.0312683494    -0.4967518201
   68      C      -6.0954359512    -2.4686212479     0.5017365046
   69      S      -8.4700309848    -1.6249902205    -2.3946925237
   70      N      -7.6031947399    -2.7310110665    -1.5377153870
   71      C      -5.6657439043    -3.8904149391     0.4605485895
   72      S      -6.5470468330    -5.3037989774    -0.1614141974
   73      C      -4.6123996155    -4.3732542399     1.2073825863
   74      C      -5.3745082033    -6.4829044486     0.4296631659
   75      S      -3.3126377727    -3.5908884614     2.0637405376
   76      C      -4.4129375609    -5.7710448477     1.1413954246
   77      C      -5.3942960198    -7.9173042025     0.2472274556
   78      C      -2.5006281708    -5.1177513529     2.2644570463
   79      C      -3.1918009431    -6.1771370991     1.7472307521
   80      N      -4.2217867101    -8.5576468012     0.2842041365
   81      S      -6.6646302828    -8.8203479950    -0.5764986938
   82      C      -4.3835144399    -9.8354899074    -0.2324486845
   83      C      -5.6154996017   -10.1972831165    -0.5915812991
   84      C      -7.0495509152     5.9304246777    -0.2780097210
   85      H      -9.1795567477     4.1610873531    -0.3054430165
   86      H      -9.0598005125     1.6339005040    -0.0733695928
   87      H      -4.6723026453     2.1666924648     0.2114394516
   88      H      -5.0668441874     0.3316993748     1.9208786377
   89      H      -1.4891617405    -5.1743826931     2.6421203247
   90      H      -2.8281084734    -7.1967119898     1.7911491957
   91      H      -3.5951860959   -10.5728960218    -0.1667551184
   92      H      -5.8697160568   -11.2302512902    -0.7936103716
   93      H      -6.4898420253     6.3487207897    -1.1241393335
   94      C      -6.6149094194     6.6421014291     0.9918646711
   95      H      -8.0505539365     6.2399898877    -0.6042923164
   96      H      -5.5355471464     6.8211195099     1.0595448775
   97      H      -6.8098946888     6.0397687718     1.8881264156
   98      C      -7.3324898608     8.0083843536     1.1557221711
   99      H      -8.4262145667     7.9859871386     1.2364354449
  100      C      -7.0476079980     9.0251278446     0.0324069892
  101      H      -6.9597221859     8.4254687688     2.0993803990
  102      H      -7.4623663034     9.9448153036     0.4652482139
  103      H      -7.6741676113     8.7686487959    -0.8305012032
  104      C      -5.5386198048     9.2007238890    -0.4071423957
  105      H      -4.9277987494     9.5695370153     0.4259605488
  106      C      -5.3748382320    10.0755350286    -1.6912646900
  107      H      -5.1779660090     8.2187009710    -0.7393258210
  108      H      -4.3215619264    10.1599023598    -1.9829154702
  109      H      -5.8952705065    11.0392286069    -1.6176037455
  110      H      -5.9232942922     9.6005169430    -2.5140664695
 ----------------------------------------------------------------

    9   -5663.5256831358      9.10E-06 Convergence criterion met
 Total energy in the final basis set = -5663.5256831358

                    Orbital Energies (a.u.)
 --------------------------------------------------------------

 Alpha MOs
 -- Occupied --
-88.995 -88.985 -88.928 -88.927 -88.925 -88.922 -88.907 -88.906
-14.389 -14.384 -14.381 -14.374 -14.353 -14.347 -14.347 -14.339
-14.336 -14.326 -10.275 -10.269 -10.268 -10.261 -10.254 -10.253
-10.249 -10.247 -10.247 -10.245 -10.241 -10.241 -10.238 -10.237
-10.236 -10.232 -10.228 -10.227 -10.227 -10.226 -10.226 -10.223
-10.222 -10.222 -10.220 -10.219 -10.219 -10.216 -10.216 -10.216
-10.209 -10.206 -10.206 -10.205 -10.202 -10.191 -10.190 -10.188
-10.187 -10.187 -10.182 -10.182 -10.181 -10.179 -10.177 -10.177
-10.175 -10.174 -10.173 -10.169  -8.050  -8.041  -7.990  -7.987
 -7.984  -7.981  -7.966  -7.966  -6.015  -6.010  -6.008  -6.006
 -6.000  -5.999  -5.954  -5.951  -5.950  -5.948  -5.948  -5.947
 -5.945  -5.945  -5.944  -5.942  -5.941  -5.937  -5.931  -5.931
 -5.927  -5.927  -5.923  -5.922  -1.047  -1.039  -0.970  -0.958
 -0.957  -0.957  -0.943  -0.927  -0.911  -0.911  -0.905  -0.899
 -0.845  -0.837  -0.835  -0.831  -0.814  -0.809  -0.809  -0.808
 -0.806  -0.799  -0.798  -0.792  -0.787  -0.780  -0.766  -0.761
 -0.751  -0.748  -0.739  -0.734  -0.724  -0.722  -0.714  -0.707
 -0.696  -0.691  -0.680  -0.670  -0.659  -0.650  -0.650  -0.640
 -0.639  -0.632  -0.630  -0.621  -0.619  -0.606  -0.602  -0.596
 -0.594  -0.586  -0.584  -0.582  -0.579  -0.576  -0.559  -0.552
 -0.550  -0.549  -0.541  -0.539  -0.525  -0.521  -0.513  -0.510
 -0.503  -0.502  -0.502  -0.490  -0.490  -0.482  -0.482  -0.477
 -0.475  -0.470  -0.468  -0.465  -0.461  -0.461  -0.457  -0.452
 -0.445  -0.443  -0.440  -0.434  -0.430  -0.429  -0.429  -0.428
 -0.428  -0.426  -0.425  -0.421  -0.419  -0.418  -0.415  -0.412
 -0.412  -0.410  -0.408  -0.406  -0.405  -0.402  -0.399  -0.395
 -0.393  -0.392  -0.392  -0.390  -0.387  -0.387  -0.386  -0.383
 -0.383  -0.381  -0.374  -0.369  -0.367  -0.360  -0.358  -0.355
 -0.352  -0.351  -0.349  -0.347  -0.343  -0.341  -0.340  -0.338
 -0.335  -0.334  -0.334  -0.333  -0.330  -0.328  -0.320  -0.314
 -0.312  -0.309  -0.309  -0.306  -0.306  -0.304  -0.303  -0.300
 -0.299  -0.297  -0.290  -0.288  -0.287  -0.286  -0.281  -0.278
 -0.275  -0.272  -0.268  -0.261  -0.258  -0.255  -0.251  -0.249
 -0.246  -0.245  -0.233  -0.225  -0.195  -0.188

          Ground-State Mulliken Net Atomic Charges

     Atom                 Charge (a.u.)
  ----------------------------------------
      1 C                     0.274323
      2 C                    -0.100792
      3 N                    -0.485246
      4 C                    -0.098002
      5 C                     0.055153
      6 C                     0.064574
      7 C                     0.042503
      8 C                     0.047442
      9 C                     0.226229
     10 N                    -0.510801
     11 N                    -0.553954
     12 C                     0.217333
     13 C                     0.287034
     14 S                     0.598771
     15 N                    -0.554195
     16 C                    -0.227101
     17 S                     0.310600
     18 C                    -0.112998
     19 C                    -0.234889
     20 S                     0.303011
     21 C                     0.167112
     22 C                     0.068433
     23 C                    -0.320276
     24 C                    -0.052454
     25 N                    -0.444219
     26 S                     0.262527
     27 C                     0.132259
     28 C                    -0.318390
     29 C                    -0.255344
     30 H                     0.086690
     31 H                     0.096855
     32 H                     0.116264
     33 H                     0.107370
     34 H                     0.127314
     35 H                     0.125241
     36 H                     0.128309
     37 H                     0.150199
     38 H                     0.114264
     39 C                    -0.166852
     40 H                     0.096115
     41 H                     0.106826
     42 H                     0.098708
     43 C                    -0.187341
     44 H                     0.090896
     45 C                    -0.172371
     46 H                     0.085373
     47 H                     0.088827
     48 H                     0.097157
     49 C                    -0.182127
     50 H                     0.092054
     51 C                    -0.305314
     52 H                     0.095201
     53 H                     0.100921
     54 H                     0.102334
     55 H                     0.104594
     56 C                     0.257783
     57 C                    -0.118724
     58 N                    -0.481741
     59 C                    -0.035461
     60 C                     0.072431
     61 C                     0.002301
     62 C                     0.027791
     63 C                     0.059059
     64 C                     0.236498
     65 N                    -0.522630
     66 N                    -0.565982
     67 C                     0.218681
     68 C                     0.302190
     69 S                     0.612110
     70 N                    -0.569974
     71 C                    -0.226516
     72 S                     0.320279
     73 C                    -0.110376
     74 C                    -0.221922
     75 S                     0.280187
     76 C                     0.135495
     77 C                     0.039962
     78 C                    -0.317657
     79 C                    -0.036958
     80 N                    -0.423679
     81 S                     0.268069
     82 C                     0.117424
     83 C                    -0.289585
     84 C                    -0.213102
     85 H                     0.098849
     86 H                     0.114034
     87 H                     0.113321
     88 H                     0.129399
     89 H                     0.129453
     90 H                     0.126177
     91 H                     0.113049
     92 H                     0.138094
     93 H                     0.113604
     94 C                    -0.165508
     95 H                     0.088477
     96 H                     0.107655
     97 H                     0.094244
     98 C                    -0.191084
     99 H                     0.091040
    100 C                    -0.176067
    101 H                     0.088235
    102 H                     0.091804
    103 H                     0.089142
    104 C                    -0.179101
    105 H                     0.096502
    106 C                    -0.321593
    107 H                     0.100282
    108 H                     0.103571
    109 H                     0.103381
    110 H                     0.100936
  ----------------------------------------
  Sum of atomic charges =     0.000000

                    Cartesian Multipole Moments
 -----------------------------------------------------------------
    Charge (ESU x 10^10)
                 0.0000
    Dipole Moment (Debye)
         X      -4.8014      Y       0.1578      Z      -1.9681
       Tot       5.1915
    Quadrupole Moments (Debye-Ang)
        XX    -398.5580     XY      12.2611     YY    -396.7303
        XZ       6.6489     YZ       3.5008     ZZ    -450.8601

 Total job time:  81.26s(wall), 955.14s(cpu)
        *  Thank you very much for using Q-Chem.  Have a nice day.  *
