 Q-Chem 4.4, Q-Chem, Inc., Pleasanton, CA (2016)
 Q-Chem 4.4.2 for Intel X86 Linux

User input:
--------------------------------------------------------------
$comment
SP
$end

$rem
MEM_STATIC 5000
MEM_TOTAL 20000
JOBTYPE SP
EXCHANGE B3LYP
BASIS 6-31g(d,p)
$end

$molecule
0 1
C          26.200000     26.098000     -2.199000
C          25.686000     24.819000     -2.498000
N          25.322000     27.086000     -1.913000
C          24.292000     24.627000     -2.521000
C          23.987000     26.928000     -1.825000
C          23.409000     25.667000     -2.015000
C          21.931000     25.418000     -1.831000
C          21.477000     24.189000     -1.317000
C          20.809000     26.246000     -2.139000
N          20.227000     23.723000     -1.029000
N          20.937000     27.456000     -2.674000
C          19.493000     25.796000     -1.948000
C          19.206000     24.545000     -1.341000
S          19.418000     27.966000     -2.824000
N          18.588000     26.694000     -2.361000
C          17.843000     23.995000     -1.257000
S          16.432000     24.491000     -2.227000
C          17.465000     22.890000     -0.495000
C          15.409000     23.201000     -1.612000
S          18.379000     22.081000      0.689000
C          16.167000     22.499000     -0.689000
C          14.009000     22.941000     -2.070000
C          16.959000     21.050000      0.929000
C          15.853000     21.431000      0.145000
N          13.165000     22.364000     -1.209000
S          13.726000     22.617000     -3.768000
C          12.059000     21.931000     -1.907000
C          12.228000     21.893000     -3.265000
C          27.666000     26.378000     -2.014000
H          26.451000     24.075000     -2.700000
H          23.971000     23.652000     -2.876000
H          23.399000     27.795000     -1.528000
H          22.216000     23.395000     -1.220000
H          17.021000     20.212000      1.610000
H          14.875000     20.970000      0.210000
H          11.228000     21.493000     -1.369000
H          11.500000     21.527000     -3.977000
H          27.894000     27.338000     -1.535000
C          28.375000     26.479000     -3.370000
H          28.165000     25.619000     -1.400000
H          27.985000     27.279000     -4.011000
H          28.244000     25.527000     -3.900000
C          29.904000     26.734000     -3.167000
H          29.992000     27.655000     -2.577000
C          30.687000     26.988000     -4.526000
H          30.461000     25.995000     -2.577000
H          30.066000     27.703000     -5.080000
H          30.670000     26.088000     -5.153000
C          32.070000     27.602000     -4.268000
H          32.003000     28.692000     -4.167000
C          32.914000     27.199000     -5.516000
H          32.539000     27.271000     -3.334000
H          32.414000     27.386000     -6.474000
H          33.055000     26.112000     -5.472000
H          33.845000     27.769000     -5.408000
C          27.408000     13.821000    -14.015000
C          27.262000     15.203000    -14.114000
N          27.433000     13.125000    -12.867000
C          27.122000     15.925000    -12.940000
C          27.443000     13.803000    -11.701000
C          27.298000     15.244000    -11.681000
C          27.222000     15.872000    -10.393000
C          28.094000     15.530000     -9.330000
C          26.211000     16.836000    -10.122000
N          27.975000     16.171000     -8.132000
N          25.267000     17.164000    -11.013000
C          25.991000     17.368000     -8.887000
C          26.943000     16.992000     -7.879000
S          24.125000     18.048000    -10.263000
N          24.821000     18.088000     -8.772000
C          26.681000     17.444000     -6.488000
S          25.788000     18.877000     -5.931000
C          27.383000     16.964000     -5.403000
C          26.224000     18.674000     -4.233000
S          28.419000     15.581000     -5.182000
C          27.090000     17.586000     -4.168000
C          25.800000     19.479000     -3.109000
C          28.395000     15.815000     -3.457000
C          27.674000     16.907000     -3.063000
N          25.782000     18.895000     -1.907000
S          24.777000     20.911000     -3.212000
C          25.049000     19.681000     -1.029000
C          24.577000     20.838000     -1.494000
C          27.557000     12.896000    -15.289000
H          27.131000     15.626000    -15.105000
H          26.936000     16.994000    -12.973000
H          27.510000     13.167000    -10.819000
H          28.863000     14.761000     -9.379000
H          28.804000     15.077000     -2.781000
H          27.561000     17.196000     -2.025000
H          25.025000     19.468000      0.031000
H          24.191000     21.603000     -0.832000
H          26.821000     12.089000    -15.395000
C          28.948000     12.312000    -15.468000
H          27.242000     13.489000    -16.157000
H          29.095000     11.343000    -14.977000
H          29.719000     12.934000    -14.996000
C          29.308000     12.142000    -16.968000
H          29.333000     13.054000    -17.577000
C          28.388000     11.181000    -17.747000
H          30.325000     11.731000    -16.982000
H          28.951000     11.055000    -18.681000
H          27.466000     11.718000    -18.001000
C          28.055000      9.796000    -17.060000
H          28.966000      9.204000    -16.909000
C          26.947000      8.992000    -17.813000
H          27.578000     10.015000    -16.096000
H          26.723000      8.049000    -17.301000
H          27.159000      8.878000    -18.884000
H          26.031000      9.595000    -17.841000
$end

--------------------------------------------------------------

             Standard Nuclear Orientation (Angstroms)
    I     Atom           X                Y                Z
 ----------------------------------------------------------------
    1      C      -4.2066603327     5.5618438656    -0.7452222534
    2      C      -3.5246463246     4.4416348823    -0.2261589369
    3      N      -5.4122966482     5.3611564674    -1.3240051512
    4      C      -4.1012500136     3.1645973898    -0.3578116196
    5      C      -6.0491641978     4.1755828883    -1.3852261673
    6      C      -5.4788634848     3.0346192721    -0.8079358389
    7      C      -6.1949763991     1.7058807841    -0.7634687241
    8      C      -6.0251622744     0.8446911338     0.3366533370
    9      C      -7.0548065566     1.0870089786    -1.7210812703
   10      N      -6.5639891753    -0.3724509555     0.6380346656
   11      N      -7.3648546403     1.6585234013    -2.8803700395
   12      C      -7.5751760370    -0.2001981792    -1.5133546790
   13      C      -7.3667446833    -0.9096970504    -0.3013370542
   14      S      -8.3377238628     0.5860483409    -3.5827116377
   15      N      -8.3003386450    -0.6254940362    -2.5570311739
   16      C      -7.7844584414    -2.3091890447    -0.1162360711
   17      S      -8.1770418933    -3.4827808307    -1.3993563123
   18      C      -7.8057632702    -2.9900407672     1.1005383683
   19      C      -8.3224748809    -4.8318399092    -0.2823322084
   20      S      -7.6150161296    -2.3395386583     2.6600881542
   21      C      -8.1088063043    -4.3207178132     0.9874697219
   22      C      -8.5875552003    -6.2453096292    -0.6936712110
   23      C      -7.8768035809    -3.9842285799     3.2629342310
   24      C      -8.1650031427    -4.9132598184     2.2446538323
   25      N      -9.2175649613    -7.0428859082     0.1743989360
   26      S      -7.4681830579    -7.0257135395    -1.7919629497
   27      C      -9.0808305034    -8.3455884374    -0.2524485878
   28      C      -8.1160790143    -8.5285415178    -1.2063624909
   29      C      -3.7477293382     6.9789721615    -0.5380731883
   30      H      -2.5727452539     4.6836139427     0.2374092736
   31      H      -3.4653721340     2.3417791938    -0.0442505594
   32      H      -7.0440214050     4.1642383645    -1.8276879611
   33      H      -5.2456537152     1.1082438217     1.0500062559
   34      H      -7.7819182973    -4.1823000011     4.3219967859
   35      H      -8.4286463759    -5.9484222580     2.4239886284
   36      H      -9.5822632958    -9.1381840590     0.2881125422
   37      H      -7.8190138133    -9.4823286117    -1.6222067477
   38      H      -4.5000082185     7.7439650948    -0.7658610244
   39      C      -2.5933004010     7.3203582801    -1.4880033684
   40      H      -3.4363276418     7.1735134130     0.4950099085
   41      H      -2.8567406726     7.2317007980    -2.5490029320
   42      H      -1.7645482775     6.6297253807    -1.2866054633
   43      C      -2.0991881194     8.7827761717    -1.2404918262
   44      H      -2.9692760096     9.4356538404    -1.3846542795
   45      C      -0.9955584955     9.2599710927    -2.2791316389
   46      H      -1.7551170093     9.0306003104    -0.2282328339
   47      H      -1.3805479912     8.9545747568    -3.2600996129
   48      H      -0.0786191082     8.6689110594    -2.1638571965
   49      C      -0.8212505403    10.7847433957    -2.2485512382
   50      H      -1.5605242519    11.2773966636    -2.8916353206
   51      C       0.6299218938    11.0213530411    -2.7685160851
   52      H      -0.9789165229    11.2330964000    -1.2606246106
   53      H       0.8718486934    10.4717943579    -3.6862250135
   54      H       1.3133016985    10.6255787546    -2.0071089950
   55      H       0.6964772551    12.1085855427    -2.8982113867
   56      C      11.0879928516    -2.0219292526    -1.3467355645
   57      C      10.2631285769    -1.5003601746    -2.3410220550
   58      N      10.7858751697    -2.0769516784    -0.0395850610
   59      C       9.0264700608    -1.0041883113    -1.9620112418
   60      C       9.6559378429    -1.4769673289     0.3877326403
   61      C       8.7217458509    -0.8991065336    -0.5563373906
   62      C       7.5008103382    -0.3683839165    -0.0208432475
   63      C       7.4717772749     0.4447429998     1.1390268742
   64      C       6.2515870571    -0.6965561938    -0.6180049932
   65      N       6.2782656822     0.9249911294     1.5919482936
   66      N       6.1439460379    -1.5383922695    -1.6535369496
   67      C       5.0478762860    -0.3460032482    -0.0842990705
   68      C       5.1139792938     0.5059133399     1.0705223525
   69      S       4.5733575204    -1.9075286424    -1.8659282083
   70      N       3.9604311955    -0.9618405434    -0.6663064597
   71      C       3.8377003357     0.8176318616     1.7646207494
   72      S       2.1914884431     0.8805574402     1.0958803093
   73      C       3.7901529431     1.4252973375     3.0011121221
   74      C       1.4596495899     1.5358425897     2.5620052241
   75      S       4.9881786748     1.6836690739     4.2391768991
   76      C       2.4965841134     1.7575726388     3.4639628613
   77      C       0.0622259255     1.8205609391     2.8014202687
   78      C       3.7496761241     2.1670474520     5.3631937030
   79      C       2.4939624058     2.1738453032     4.8240482247
   80      N      -0.3616260869     1.7954909514     4.0686633264
   81      S      -1.2325478175     1.6235746636     1.6213696927
   82      C      -1.7487023304     1.7539575678     4.0848951781
   83      C      -2.3748025492     1.8082249241     2.9090076112
   84      C      12.5118135412    -2.6311810109    -1.6668120227
   85      H      10.5733391223    -1.6312948475    -3.3729118403
   86      H       8.3240142189    -0.6526791816    -2.7113063252
   87      H       9.5075818614    -1.5277266677     1.4658434845
   88      H       8.3438604910     0.7126807388     1.7329992913
   89      H       3.9641260476     2.3096471844     6.4132306293
   90      H       1.6116800292     2.4529234521     5.3874550002
   91      H      -2.3043812441     1.8708403195     5.0052779067
   92      H      -3.4379216406     2.0011366723     2.8381002421
   93      H      12.6820197551    -3.6674892954    -1.3485731435
   94      C      13.6712175535    -1.7772223150    -1.1825446565
   95      H      12.5513766357    -2.8077867861    -2.7491904970
   96      H      14.0060656247    -2.0096976135    -0.1649578028
   97      H      13.3966244294    -0.7177735233    -1.1033242422
   98      C      14.8997721598    -1.8945330332    -2.1234972454
   99      H      14.7598306902    -1.5708273056    -3.1621892051
  100      C      15.4924157883    -3.3132687629    -2.2362999883
  101      H      15.6642824378    -1.2359936887    -1.6930835297
  102      H      16.4404143098    -3.1094414889    -2.7510370529
  103      H      14.8708465884    -3.8912917859    -2.9309294684
  104      C      15.7060110846    -4.1082781671    -0.8859592547
  105      H      16.4194045167    -3.5894497781    -0.2339830942
  106      C      16.0948552021    -5.6043146963    -1.1134761892
  107      H      14.7277713984    -4.1876520404    -0.3944992822
  108      H      16.2137411050    -6.1332819190    -0.1607806348
  109      H      16.9449475073    -5.7226066139    -1.7978233926
  110      H      15.2948368628    -6.0942036641    -1.6821838962
 ----------------------------------------------------------------

    9   -5663.5187672790      6.55E-06 Convergence criterion met
 Total energy in the final basis set = -5663.5187672790

                    Orbital Energies (a.u.)
 --------------------------------------------------------------

 Alpha MOs
 -- Occupied --
-88.994 -88.987 -88.934 -88.930 -88.925 -88.925 -88.909 -88.906
-14.388 -14.386 -14.379 -14.378 -14.353 -14.352 -14.352 -14.348
-14.327 -14.322 -10.277 -10.276 -10.267 -10.265 -10.256 -10.254
-10.253 -10.251 -10.245 -10.244 -10.244 -10.241 -10.240 -10.237
-10.234 -10.233 -10.232 -10.231 -10.230 -10.228 -10.227 -10.227
-10.226 -10.226 -10.225 -10.224 -10.224 -10.223 -10.220 -10.218
-10.216 -10.215 -10.206 -10.202 -10.201 -10.200 -10.194 -10.189
-10.186 -10.184 -10.183 -10.182 -10.179 -10.179 -10.177 -10.177
-10.177 -10.176 -10.173 -10.173  -8.049  -8.043  -7.995  -7.992
 -7.984  -7.984  -7.970  -7.966  -6.014  -6.008  -6.008  -6.007
 -6.003  -6.001  -5.959  -5.956  -5.955  -5.952  -5.952  -5.949
 -5.948  -5.948  -5.944  -5.944  -5.941  -5.941  -5.934  -5.931
 -5.930  -5.927  -5.927  -5.922  -1.056  -1.037  -0.972  -0.970
 -0.958  -0.955  -0.936  -0.931  -0.919  -0.915  -0.911  -0.897
 -0.845  -0.845  -0.834  -0.831  -0.813  -0.812  -0.809  -0.807
 -0.804  -0.802  -0.796  -0.792  -0.784  -0.784  -0.767  -0.763
 -0.753  -0.750  -0.745  -0.736  -0.722  -0.721  -0.711  -0.708
 -0.694  -0.694  -0.678  -0.671  -0.656  -0.651  -0.647  -0.644
 -0.637  -0.634  -0.626  -0.623  -0.615  -0.610  -0.599  -0.595
 -0.591  -0.590  -0.586  -0.583  -0.580  -0.579  -0.578  -0.557
 -0.550  -0.547  -0.542  -0.539  -0.525  -0.524  -0.517  -0.513
 -0.508  -0.506  -0.503  -0.501  -0.488  -0.486  -0.480  -0.479
 -0.475  -0.474  -0.471  -0.466  -0.462  -0.456  -0.454  -0.448
 -0.443  -0.442  -0.441  -0.439  -0.433  -0.432  -0.431  -0.430
 -0.429  -0.428  -0.427  -0.426  -0.422  -0.415  -0.414  -0.412
 -0.411  -0.408  -0.408  -0.405  -0.404  -0.402  -0.400  -0.398
 -0.397  -0.395  -0.391  -0.391  -0.387  -0.386  -0.386  -0.384
 -0.381  -0.377  -0.376  -0.374  -0.365  -0.362  -0.359  -0.358
 -0.353  -0.353  -0.350  -0.348  -0.347  -0.346  -0.342  -0.341
 -0.337  -0.336  -0.335  -0.335  -0.333  -0.329  -0.323  -0.317
 -0.315  -0.315  -0.308  -0.305  -0.304  -0.303  -0.302  -0.301
 -0.301  -0.295  -0.291  -0.289  -0.287  -0.285  -0.283  -0.281
 -0.279  -0.274  -0.271  -0.270  -0.258  -0.255  -0.250  -0.247
 -0.245  -0.235  -0.233  -0.231  -0.195  -0.195

          Ground-State Mulliken Net Atomic Charges

     Atom                 Charge (a.u.)
  ----------------------------------------
      1 C                     0.284539
      2 C                    -0.115749
      3 N                    -0.494512
      4 C                    -0.092732
      5 C                     0.095624
      6 C                     0.020064
      7 C                     0.070455
      8 C                     0.032967
      9 C                     0.193960
     10 N                    -0.510629
     11 N                    -0.544587
     12 C                     0.196180
     13 C                     0.298349
     14 S                     0.598136
     15 N                    -0.538451
     16 C                    -0.222481
     17 S                     0.313368
     18 C                    -0.103481
     19 C                    -0.250733
     20 S                     0.287602
     21 C                     0.191386
     22 C                     0.034335
     23 C                    -0.314990
     24 C                    -0.074537
     25 N                    -0.401513
     26 S                     0.297188
     27 C                     0.119154
     28 C                    -0.303531
     29 C                    -0.223127
     30 H                     0.097160
     31 H                     0.101471
     32 H                     0.120351
     33 H                     0.088007
     34 H                     0.123484
     35 H                     0.118905
     36 H                     0.117520
     37 H                     0.135263
     38 H                     0.121284
     39 C                    -0.185527
     40 H                     0.107595
     41 H                     0.109880
     42 H                     0.092876
     43 C                    -0.192286
     44 H                     0.091760
     45 C                    -0.175375
     46 H                     0.090209
     47 H                     0.093746
     48 H                     0.092349
     49 C                    -0.178262
     50 H                     0.098021
     51 C                    -0.319299
     52 H                     0.095614
     53 H                     0.106628
     54 H                     0.107656
     55 H                     0.094748
     56 C                     0.252902
     57 C                    -0.117759
     58 N                    -0.466620
     59 C                    -0.036996
     60 C                     0.073725
     61 C                    -0.001295
     62 C                     0.032204
     63 C                     0.057653
     64 C                     0.235114
     65 N                    -0.521918
     66 N                    -0.562868
     67 C                     0.219211
     68 C                     0.300312
     69 S                     0.612661
     70 N                    -0.571445
     71 C                    -0.225193
     72 S                     0.319512
     73 C                    -0.111095
     74 C                    -0.222436
     75 S                     0.278707
     76 C                     0.135634
     77 C                     0.031396
     78 C                    -0.317419
     79 C                    -0.037403
     80 N                    -0.422781
     81 S                     0.268173
     82 C                     0.117149
     83 C                    -0.297546
     84 C                    -0.210480
     85 H                     0.096327
     86 H                     0.111358
     87 H                     0.110309
     88 H                     0.127068
     89 H                     0.128870
     90 H                     0.125716
     91 H                     0.114919
     92 H                     0.146074
     93 H                     0.115465
     94 C                    -0.166141
     95 H                     0.085607
     96 H                     0.112718
     97 H                     0.091250
     98 C                    -0.190150
     99 H                     0.089204
    100 C                    -0.176187
    101 H                     0.086355
    102 H                     0.089760
    103 H                     0.088530
    104 C                    -0.178627
    105 H                     0.095410
    106 C                    -0.321375
    107 H                     0.105899
    108 H                     0.102764
    109 H                     0.101359
    110 H                     0.100382
  ----------------------------------------
  Sum of atomic charges =     0.000000

                    Cartesian Multipole Moments
 -----------------------------------------------------------------
    Charge (ESU x 10^10)
                 0.0000
    Dipole Moment (Debye)
         X       0.0879      Y      -2.2581      Z      -1.5755
       Tot       2.7548
    Quadrupole Moments (Debye-Ang)
        XX    -460.9144     XY      21.4060     YY    -414.9300
        XZ     -16.7320     YZ      14.4273     ZZ    -425.9286

 Total job time:  79.08s(wall), 923.20s(cpu)
        *  Thank you very much for using Q-Chem.  Have a nice day.  *
