 Q-Chem 4.4, Q-Chem, Inc., Pleasanton, CA (2016)
 Q-Chem 4.4.2 for Intel X86 Linux

User input:
--------------------------------------------------------------
$comment
SP
$end

$rem
MEM_STATIC 5000
MEM_TOTAL 20000
JOBTYPE SP
EXCHANGE B3LYP
BASIS 6-31g(d,p)
$end

$molecule
0 1
C          17.259000     15.213000    -13.091000
C          18.184000     14.177000    -13.305000
N          17.360000     16.038000    -12.056000
C          19.307000     14.022000    -12.518000
C          18.370000     15.834000    -11.178000
C          19.442000     14.950000    -11.430000
C          20.653000     14.788000    -10.556000
C          20.632000     15.261000     -9.222000
C          21.924000     14.432000    -11.030000
N          21.744000     15.251000     -8.435000
N          22.234000     14.061000    -12.301000
C          23.033000     14.417000    -10.171000
C          22.907000     14.856000     -8.872000
S          23.778000     13.777000    -12.364000
N          24.149000     13.896000    -10.749000
C          23.957000     14.625000     -7.865000
S          25.431000     13.690000     -8.132000
C          23.837000     14.954000     -6.546000
C          25.685000     13.455000     -6.502000
S          22.741000     16.095000     -5.717000
C          24.764000     14.257000     -5.810000
C          26.833000     12.736000     -5.984000
C          23.566000     15.540000     -4.199000
C          24.625000     14.642000     -4.431000
N          27.639000     12.197000     -6.908000
S          26.976000     12.176000     -4.391000
C          28.499000     11.397000     -6.314000
C          28.219000     11.151000     -4.997000
C          16.012000     15.363000    -14.044000
H          17.984000     13.580000    -14.190000
H          20.016000     13.212000    -12.664000
H          18.544000     16.581000    -10.407000
H          19.672000     15.601000     -8.838000
H          23.133000     15.988000     -3.314000
H          25.355000     14.320000     -3.696000
H          29.364000     11.077000     -6.879000
H          28.791000     10.591000     -4.268000
H          15.444000     14.424000    -14.051000
C          16.350000     15.757000    -15.527000
H          15.296000     16.051000    -13.579000
H          17.195000     15.196000    -15.944000
H          16.615000     16.820000    -15.572000
C          15.162000     15.428000    -16.492000
H          14.991000     14.353000    -16.362000
C          15.386000     15.890000    -17.956000
H          14.200000     15.747000    -16.072000
H          16.275000     15.408000    -18.381000
H          15.665000     16.950000    -17.942000
C          14.220000     15.781000    -18.936000
H          13.372000     16.364000    -18.555000
C          13.882000     14.251000    -19.221000
H          14.457000     16.196000    -19.924000
H          14.802000     13.677000    -19.391000
H          13.253000     14.234000    -20.121000
H          13.253000     13.771000    -18.462000
C          27.408000     13.821000    -14.015000
C          27.262000     15.203000    -14.114000
N          27.433000     13.125000    -12.867000
C          27.122000     15.925000    -12.940000
C          27.443000     13.803000    -11.701000
C          27.298000     15.244000    -11.681000
C          27.222000     15.872000    -10.393000
C          28.094000     15.530000     -9.330000
C          26.211000     16.836000    -10.122000
N          27.975000     16.171000     -8.132000
N          25.267000     17.164000    -11.013000
C          25.991000     17.368000     -8.887000
C          26.943000     16.992000     -7.879000
S          24.125000     18.048000    -10.263000
N          24.821000     18.088000     -8.772000
C          26.681000     17.444000     -6.488000
S          25.788000     18.877000     -5.931000
C          27.383000     16.964000     -5.403000
C          26.224000     18.674000     -4.233000
S          28.419000     15.581000     -5.182000
C          27.090000     17.586000     -4.168000
C          25.800000     19.479000     -3.109000
C          28.395000     15.815000     -3.457000
C          27.674000     16.907000     -3.063000
N          25.782000     18.895000     -1.907000
S          24.777000     20.911000     -3.212000
C          25.049000     19.681000     -1.029000
C          24.577000     20.838000     -1.494000
C          27.557000     12.896000    -15.289000
H          27.131000     15.626000    -15.105000
H          26.936000     16.994000    -12.973000
H          27.510000     13.167000    -10.819000
H          28.863000     14.761000     -9.379000
H          28.804000     15.077000     -2.781000
H          27.561000     17.196000     -2.025000
H          25.025000     19.468000      0.031000
H          24.191000     21.603000     -0.832000
H          26.821000     12.089000    -15.395000
C          28.948000     12.312000    -15.468000
H          27.242000     13.489000    -16.157000
H          29.095000     11.343000    -14.977000
H          29.719000     12.934000    -14.996000
C          29.308000     12.142000    -16.968000
H          29.333000     13.054000    -17.577000
C          28.388000     11.181000    -17.747000
H          30.325000     11.731000    -16.982000
H          28.951000     11.055000    -18.681000
H          27.466000     11.718000    -18.001000
C          28.055000      9.796000    -17.060000
H          28.966000      9.204000    -16.909000
C          26.947000      8.992000    -17.813000
H          27.578000     10.015000    -16.096000
H          26.723000      8.049000    -17.301000
H          27.159000      8.878000    -18.884000
H          26.031000      9.595000    -17.841000
$end

--------------------------------------------------------------

             Standard Nuclear Orientation (Angstroms)
    I     Atom           X                Y                Z
 ----------------------------------------------------------------
    1      C       6.5270746818    -4.2848644317     0.9567623763
    2      C       6.4397989403    -2.9767196790     1.4625857159
    3      N       5.4464165929    -4.9770050393     0.6173946196
    4      C       5.2410269618    -2.2969405752     1.5358599526
    5      C       4.2371541671    -4.3982317972     0.8052933146
    6      C       4.0789287137    -3.0301303216     1.1173943535
    7      C       2.7638877305    -2.3088999003     1.2018626425
    8      C       1.5597941096    -3.0433707424     1.3220172690
    9      C       2.5918587094    -0.9484612604     0.9078120976
   10      N       0.3388773920    -2.4408118485     1.2740782651
   11      N       3.5779720853    -0.0542834813     0.6299479055
   12      C       1.3127203774    -0.3726314438     0.8932467366
   13      C       0.1974474051    -1.1620815237     1.0633430871
   14      S       2.9084266069     1.3382241619     0.3450052517
   15      N       1.3378331617     0.9802206999     0.7513262468
   16      C      -1.1355150212    -0.5863862362     1.3117300958
   17      S      -1.4736271756     1.1329262526     1.5304416336
   18      C      -2.2496658313    -1.3265447225     1.5823504710
   19      C      -2.9304194589     0.8428074749     2.2855762827
   20      S      -2.6147511004    -3.0489937537     1.2819838930
   21      C      -3.2033719475    -0.5289028109     2.1663419306
   22      C      -3.8073791371     1.9084294897     2.7311999405
   23      C      -4.2033550454    -2.6898201471     2.0821750116
   24      C      -4.3692241886    -1.3329255594     2.4183795704
   25      N      -3.3312271717     3.1500393702     2.5711461669
   26      S      -5.1150965823     1.6965861015     3.7879380644
   27      C      -4.1118752445     3.9953215616     3.2103038965
   28      C      -5.0340739026     3.3992331731     4.0273921831
   29      C       7.9291051510    -4.9999479490     0.8635737143
   30      H       7.4003170075    -2.5269621250     1.6965882482
   31      H       5.1619752176    -1.2934357375     1.9443031706
   32      H       3.3571695014    -4.8973115445     0.4062038583
   33      H       1.6542556435    -4.1141099198     1.4930454325
   34      H      -4.8169382658    -3.5756471649     2.1833882824
   35      H      -5.2945520668    -0.8694558092     2.7436073497
   36      H      -4.0097990315     5.0477187479     2.9825087933
   37      H      -5.8294151412     3.8508367329     4.6067983782
   38      H       8.4000401924    -5.0086506983     1.8548044891
   39      C       8.9337830914    -4.3657659650    -0.1646307630
   40      H       7.7660972114    -6.0697298081     0.6868813667
   41      H       8.9671847874    -3.2705080371    -0.1207058494
   42      H       8.6354593383    -4.6386888309    -1.1838142831
   43      C      10.4076794660    -4.8031795767     0.1305112526
   44      H      10.5893555027    -4.4809049275     1.1624506249
   45      C      11.4407212459    -4.2993232505    -0.9115393620
   46      H      10.4768132698    -5.8789537501     0.3343137186
   47      H      11.4436468421    -3.2031789246    -0.9531212999
   48      H      11.0861977055    -4.5815007700    -1.9097006249
   49      C      12.8741949454    -4.8173881021    -0.8188087712
   50      H      12.8684458214    -5.9120827227    -0.8947339652
   51      C      13.5765369690    -4.2601787657     0.4974747991
   52      H      13.5084690608    -4.4573952620    -1.6389547957
   53      H      13.3664992204    -3.1903456720     0.6244287116
   54      H      14.6548304136    -4.4217282767     0.3666504783
   55      H      13.3449180385    -4.8182020827     1.4123981012
   56      C       2.4651570503     4.8333156572    -1.5238137710
   57      C       2.3582461899     4.1010984467    -2.7042666606
   58      N       1.6178424515     4.7562001105    -0.4850374894
   59      C       1.3013516071     3.2132449534    -2.8219527486
   60      C       0.5006179359     4.0120687962    -0.6170146415
   61      C       0.2816416239     3.2087012597    -1.8021542857
   62      C      -0.8855958964     2.3741441032    -1.8153801581
   63      C      -2.1550090148     2.8390651251    -1.3914040052
   64      C      -0.7893479988     1.0100483630    -2.2088736824
   65      N      -3.2272359258     1.9973358778    -1.4368718569
   66      N       0.3739932253     0.4303801276    -2.5301569425
   67      C      -1.8211354566     0.1252411866    -2.1130618730
   68      C      -3.0779529968     0.6905898796    -1.7074333165
   69      S       0.1476974736    -1.1783144235    -2.6250888884
   70      N      -1.4668242631    -1.1930884389    -2.3054042151
   71      C      -4.2048222045    -0.2478916243    -1.4681693290
   72      S      -4.4985303749    -1.8449095170    -2.1923629227
   73      C      -5.3809000539     0.1379981454    -0.8612434870
   74      C      -6.1103180207    -2.0297402937    -1.4977499594
   75      S      -5.8244271880     1.5374334223     0.0766747328
   76      C      -6.3931380839    -0.8476743983    -0.8190320277
   77      C      -6.9980202373    -3.1654149097    -1.6135296691
   78      C      -7.3109442199     0.7684052487     0.5560699580
   79      C      -7.4887141713    -0.4696925404     0.0055677247
   80      N      -7.8905935749    -3.3497943314    -0.6360323209
   81      S      -6.6698445411    -4.6213116027    -2.5518406686
   82      C      -8.4118543030    -4.6325067615    -0.7303990259
   83      C      -8.0033038820    -5.3836758856    -1.7533797200
   84      C       3.6405598454     5.8612250530    -1.2733491162
   85      H       3.1786797542     4.1640414422    -3.4121493810
   86      H       1.2186874558     2.5722588145    -3.6941622463
   87      H      -0.1550830894     4.0388390211     0.2526108644
   88      H      -2.3538330178     3.8352659582    -1.0000270564
   89      H      -7.9456224548     1.1932524924     1.3213080632
   90      H      -8.3619092446    -1.0812172845     0.1987045969
   91      H      -9.2525444056    -4.9441126520    -0.1256784951
   92      H      -8.5130912698    -6.2988258992    -2.0273911647
   93      H       4.2542683762     5.6925386357    -0.3794320440
   94      C       3.2030345643     7.3158961530    -1.2952949398
   95      H       4.4174496759     5.6511644454    -2.0194152878
   96      H       2.9002049254     7.7087284477    -0.3177326665
   97      H       2.2985462304     7.4642099599    -1.8986297295
   98      C       4.3186349418     8.2401113529    -1.8518576604
   99      H       4.6452609973     8.0555088366    -2.8826279213
  100      C       5.6215608640     8.2463623418    -1.0277781943
  101      H       3.8971912587     9.2528016957    -1.8360623593
  102      H       6.1495676100     9.1024068424    -1.4677755684
  103      H       6.1970381706     7.3495540669    -1.2876431353
  104      C       5.4744533428     8.3788559512     0.5412622197
  105      H       5.0018237173     9.3309966612     0.8118824436
  106      C       6.8200865905     8.1509930999     1.3018137851
  107      H       4.8601373756     7.5366046258     0.8847947471
  108      H       6.6812612780     8.2269858932     2.3864896022
  109      H       7.6378782082     8.7713699789     0.9128017057
  110      H       7.1894610482     7.1440691598     1.0713453736
 ----------------------------------------------------------------

   10   -5663.5085926545      3.62E-06 Convergence criterion met
 Total energy in the final basis set = -5663.5085926545

                    Orbital Energies (a.u.)
 --------------------------------------------------------------

 Alpha MOs
 -- Occupied --
-88.989 -88.984 -88.928 -88.926 -88.920 -88.913 -88.904 -88.903
-14.383 -14.375 -14.374 -14.374 -14.346 -14.344 -14.340 -14.334
-14.329 -14.326 -10.273 -10.262 -10.260 -10.250 -10.249 -10.247
-10.246 -10.242 -10.240 -10.239 -10.237 -10.237 -10.229 -10.229
-10.228 -10.227 -10.226 -10.226 -10.224 -10.224 -10.223 -10.222
-10.222 -10.220 -10.219 -10.218 -10.215 -10.215 -10.215 -10.214
-10.213 -10.207 -10.203 -10.200 -10.199 -10.198 -10.194 -10.190
-10.187 -10.187 -10.184 -10.183 -10.182 -10.181 -10.179 -10.177
-10.176 -10.176 -10.174 -10.173  -8.044  -8.039  -7.990  -7.987
 -7.979  -7.972  -7.962  -7.962  -6.009  -6.004  -6.003  -6.002
 -5.999  -5.997  -5.953  -5.951  -5.950  -5.948  -5.947  -5.944
 -5.944  -5.940  -5.937  -5.936  -5.933  -5.929  -5.927  -5.927
 -5.923  -5.923  -5.919  -5.918  -1.036  -1.032  -0.980  -0.967
 -0.962  -0.950  -0.939  -0.935  -0.911  -0.907  -0.895  -0.893
 -0.842  -0.835  -0.832  -0.830  -0.817  -0.809  -0.805  -0.802
 -0.800  -0.799  -0.794  -0.792  -0.781  -0.779  -0.764  -0.761
 -0.747  -0.745  -0.734  -0.733  -0.720  -0.718  -0.709  -0.701
 -0.692  -0.686  -0.674  -0.667  -0.653  -0.652  -0.649  -0.643
 -0.634  -0.629  -0.623  -0.622  -0.613  -0.608  -0.601  -0.597
 -0.590  -0.587  -0.583  -0.583  -0.576  -0.570  -0.568  -0.547
 -0.546  -0.543  -0.536  -0.535  -0.524  -0.519  -0.519  -0.507
 -0.505  -0.502  -0.498  -0.492  -0.486  -0.483  -0.478  -0.474
 -0.472  -0.469  -0.462  -0.461  -0.455  -0.454  -0.451  -0.448
 -0.446  -0.438  -0.437  -0.437  -0.435  -0.431  -0.430  -0.429
 -0.426  -0.424  -0.423  -0.420  -0.418  -0.414  -0.414  -0.409
 -0.409  -0.407  -0.405  -0.402  -0.400  -0.398  -0.394  -0.393
 -0.391  -0.390  -0.387  -0.386  -0.385  -0.384  -0.383  -0.380
 -0.376  -0.375  -0.372  -0.369  -0.361  -0.360  -0.354  -0.353
 -0.349  -0.347  -0.346  -0.345  -0.345  -0.340  -0.336  -0.335
 -0.333  -0.332  -0.332  -0.330  -0.328  -0.325  -0.319  -0.315
 -0.314  -0.307  -0.306  -0.305  -0.304  -0.302  -0.300  -0.298
 -0.296  -0.294  -0.287  -0.285  -0.284  -0.282  -0.281  -0.279
 -0.271  -0.269  -0.266  -0.261  -0.252  -0.250  -0.248  -0.248
 -0.238  -0.236  -0.228  -0.224  -0.191  -0.185

          Ground-State Mulliken Net Atomic Charges

     Atom                 Charge (a.u.)
  ----------------------------------------
      1 C                     0.266163
      2 C                    -0.110072
      3 N                    -0.480880
      4 C                    -0.053023
      5 C                     0.059844
      6 C                     0.035922
      7 C                     0.027975
      8 C                     0.046644
      9 C                     0.213781
     10 N                    -0.538184
     11 N                    -0.542843
     12 C                     0.212394
     13 C                     0.327898
     14 S                     0.626757
     15 N                    -0.591850
     16 C                    -0.268406
     17 S                     0.367289
     18 C                    -0.089239
     19 C                    -0.208653
     20 S                     0.281951
     21 C                     0.123592
     22 C                     0.078735
     23 C                    -0.305571
     24 C                    -0.085040
     25 N                    -0.430500
     26 S                     0.290917
     27 C                     0.142161
     28 C                    -0.331032
     29 C                    -0.236656
     30 H                     0.084087
     31 H                     0.122489
     32 H                     0.098334
     33 H                     0.116420
     34 H                     0.132699
     35 H                     0.105741
     36 H                     0.111840
     37 H                     0.125431
     38 H                     0.104612
     39 C                    -0.178489
     40 H                     0.119747
     41 H                     0.098227
     42 H                     0.105978
     43 C                    -0.181970
     44 H                     0.092141
     45 C                    -0.172576
     46 H                     0.090413
     47 H                     0.088898
     48 H                     0.089472
     49 C                    -0.180414
     50 H                     0.095501
     51 C                    -0.320618
     52 H                     0.095544
     53 H                     0.104473
     54 H                     0.096940
     55 H                     0.105749
     56 C                     0.244811
     57 C                    -0.116363
     58 N                    -0.472197
     59 C                    -0.046984
     60 C                     0.070285
     61 C                    -0.000623
     62 C                     0.056651
     63 C                     0.059751
     64 C                     0.234368
     65 N                    -0.519991
     66 N                    -0.574684
     67 C                     0.231559
     68 C                     0.297087
     69 S                     0.610793
     70 N                    -0.574352
     71 C                    -0.219991
     72 S                     0.330070
     73 C                    -0.112694
     74 C                    -0.223382
     75 S                     0.283669
     76 C                     0.139694
     77 C                     0.038300
     78 C                    -0.325523
     79 C                    -0.040407
     80 N                    -0.426537
     81 S                     0.267251
     82 C                     0.115049
     83 C                    -0.291152
     84 C                    -0.209854
     85 H                     0.095357
     86 H                     0.111732
     87 H                     0.131493
     88 H                     0.129363
     89 H                     0.124982
     90 H                     0.124010
     91 H                     0.110723
     92 H                     0.136823
     93 H                     0.113261
     94 C                    -0.165715
     95 H                     0.084997
     96 H                     0.113008
     97 H                     0.091768
     98 C                    -0.189627
     99 H                     0.089080
    100 C                    -0.176207
    101 H                     0.086174
    102 H                     0.089637
    103 H                     0.088125
    104 C                    -0.178434
    105 H                     0.095493
    106 C                    -0.321271
    107 H                     0.105933
    108 H                     0.102836
    109 H                     0.101397
    110 H                     0.099712
  ----------------------------------------
  Sum of atomic charges =     0.000000

                    Cartesian Multipole Moments
 -----------------------------------------------------------------
    Charge (ESU x 10^10)
                 0.0000
    Dipole Moment (Debye)
         X      -0.9935      Y      -0.0494      Z      -0.3640
       Tot       1.0593
    Quadrupole Moments (Debye-Ang)
        XX    -395.2532     XY      18.4029     YY    -431.8473
        XZ     -16.7595     YZ       4.7895     ZZ    -436.6583

 Total job time:  110.07s(wall), 1278.11s(cpu)
        *  Thank you very much for using Q-Chem.  Have a nice day.  *
