 Q-Chem 4.4, Q-Chem, Inc., Pleasanton, CA (2016)
 Q-Chem 4.4.2 for Intel X86 Linux

User input:
--------------------------------------------------------------
$comment
SP
$end

$rem
MEM_STATIC 5000
MEM_TOTAL 20000
JOBTYPE SP
EXCHANGE B3LYP
BASIS 6-31g(d,p)
$end

$molecule
0 1
C         -21.925000      0.864000    -13.102000
C         -21.351000     -0.341000    -13.591000
N         -21.184000      1.819000    -12.534000
C         -19.975000     -0.562000    -13.350000
C         -19.896000      1.593000    -12.301000
C         -19.219000      0.397000    -12.675000
C         -17.828000      0.244000    -12.280000
C         -17.000000     -0.442000    -13.166000
C         -17.215000      0.629000    -11.060000
N         -15.708000     -0.808000    -12.897000
N         -17.895000      1.442000    -10.170000
C         -15.926000      0.290000    -10.751000
C         -15.170000     -0.562000    -11.683000
S         -16.675000      1.826000     -9.109000
N         -15.451000      0.847000     -9.609000
C         -13.741000     -0.917000    -11.419000
S         -12.907000     -0.863000     -9.814000
C         -12.947000     -1.679000    -12.227000
C         -11.394000     -1.471000    -10.452000
S         -13.178000     -2.135000    -13.883000
C         -11.658000     -1.934000    -11.727000
C         -10.099000     -1.468000     -9.825000
C         -11.575000     -2.899000    -13.883000
C         -10.909000     -2.725000    -12.690000
N          -9.206000     -2.364000    -10.213000
S          -9.749000     -0.551000     -8.438000
C          -8.038000     -2.150000     -9.574000
C          -8.060000     -1.221000     -8.629000
C         -23.361000      1.279000    -13.336000
H         -22.001000     -1.160000    -13.883000
H         -19.476000     -1.518000    -13.475000
H         -19.381000      2.413000    -11.805000
H         -17.378000     -0.886000    -14.086000
H         -11.184000     -3.476000    -14.709000
H          -9.875000     -3.012000    -12.539000
H          -7.147000     -2.647000     -9.935000
H          -7.169000     -0.842000     -8.147000
H         -23.431000      2.230000    -13.878000
C         -24.173000      1.260000    -12.043000
H         -23.719000      0.544000    -14.067000
H         -23.857000      2.089000    -11.397000
H         -23.903000      0.349000    -11.494000
C         -25.684000      1.251000    -12.230000
H         -26.049000      0.480000    -12.919000
C         -26.127000      2.647000    -12.699000
H         -26.133000      1.075000    -11.244000
H         -25.580000      2.924000    -13.609000
H         -25.794000      3.372000    -11.945000
C         -27.691000      2.648000    -12.874000
H         -27.878000      2.260000    -13.883000
C         -28.201000      4.021000    -12.765000
H         -28.174000      2.018000    -12.117000
H         -27.813000      4.675000    -13.556000
H         -28.067000      4.525000    -11.801000
H         -29.274000      4.012000    -12.994000
C         -14.903000     -4.041000    -10.942000
C         -15.227000     -3.457000     -9.668000
N         -15.835000     -4.055000    -11.902000
C         -16.515000     -2.988000     -9.342000
C         -17.039000     -3.580000    -11.647000
C         -17.461000     -3.026000    -10.399000
C         -18.918000     -2.649000    -10.247000
C         -19.314000     -1.518000     -9.502000
C         -20.029000     -3.430000    -10.694000
N         -20.614000     -1.130000     -9.219000
N         -19.871000     -4.644000    -11.367000
C         -21.301000     -3.113000    -10.376000
C         -21.639000     -1.911000     -9.678000
S         -21.405000     -5.157000    -11.671000
N         -22.213000     -4.018000    -10.850000
C         -23.018000     -1.443000     -9.363000
S         -24.460000     -2.377000     -9.619000
C         -23.378000     -0.157000     -8.913000
C         -25.551000     -1.021000     -9.327000
S         -22.323000      1.205000     -8.612000
C         -24.736000      0.118000     -8.965000
C         -26.986000     -1.097000     -9.224000
C         -23.869000      2.216000     -8.443000
C         -25.011000      1.452000     -8.588000
N         -27.436000     -2.364000     -9.112000
S         -28.154000      0.202000     -9.262000
C         -28.806000     -2.330000     -9.279000
C         -29.282000     -1.078000     -9.501000
C         -13.646000     -4.888000    -11.129000
H         -14.435000     -3.442000     -8.925000
H         -16.730000     -2.649000     -8.332000
H         -17.727000     -3.509000    -12.489000
H         -18.535000     -0.895000     -9.064000
H         -23.712000      3.225000     -8.088000
H         -26.050000      1.757000     -8.540000
H         -29.511000     -3.151000     -9.272000
H         -30.292000     -0.803000     -9.778000
H         -12.758000     -4.245000    -11.095000
C         -13.683000     -5.857000    -12.324000
H         -13.597000     -5.489000    -10.213000
H         -13.671000     -5.405000    -13.324000
H         -14.543000     -6.534000    -12.247000
C         -12.390000     -6.653000    -12.454000
H         -11.515000     -6.000000    -12.341000
C         -12.351000     -7.489000    -13.819000
H         -12.259000     -7.273000    -11.558000
H         -13.335000     -7.922000    -14.034000
H         -11.638000     -8.317000    -13.713000
C         -11.836000     -6.638000    -15.011000
H         -12.135000     -7.206000    -15.902000
C         -10.390000     -6.260000    -14.954000
H         -12.420000     -5.712000    -15.070000
H         -10.188000     -5.648000    -14.065000
H         -10.047000     -5.695000    -15.829000
H          -9.813000     -7.186000    -14.843000
$end

--------------------------------------------------------------

             Standard Nuclear Orientation (Angstroms)
    I     Atom           X                Y                Z
 ----------------------------------------------------------------
    1      C       3.6046709000    -0.6063419571    -2.7047685521
    2      C       2.7517911962     0.5289651126    -2.7703129535
    3      N       3.1283402879    -1.8353878226    -2.4896281129
    4      C       1.3806934635     0.3422920317    -2.4778370257
    5      C       1.8413202253    -1.9949483726    -2.2025239692
    6      C       0.8980622650    -0.9284890321    -2.1631552593
    7      C      -0.4622681014    -1.2309119136    -1.7479966209
    8      C      -1.4782927539    -0.5012471234    -2.3615593312
    9      C      -0.8914246113    -2.1186125538    -0.7280915942
   10      N      -2.7968836629    -0.5447767560    -1.9941301735
   11      N       0.0081038221    -2.9997464978    -0.1537044684
   12      C      -2.1984890085    -2.1992226885    -0.3318496634
   13      C      -3.1833723288    -1.2858686763    -0.9333920924
   14      S      -1.0235549706    -3.9724761502     0.7129293404
   15      N      -2.4615829613    -3.1883970406     0.5582928381
   16      C      -4.6333784475    -1.3689069802    -0.5751339510
   17      S      -5.3223490474    -2.1273342633     0.9163768833
   18      C      -5.6272418453    -0.5870007904    -1.0897233570
   19      C      -6.9714908034    -1.7047819622     0.5069162363
   20      S      -5.6158060911     0.4206607233    -2.4997306255
   21      C      -6.9029044363    -0.8066476435    -0.5411012520
   22      C      -8.1885400424    -2.2039213016     1.0898519701
   23      C      -7.3418331651     0.7594398101    -2.2560827851
   24      C      -7.8699772808     0.0623018156    -1.1920605063
   25      N      -9.2784849017    -1.4574108154     1.0153449393
   26      S      -8.2352247724    -3.5748441993     2.0926226041
   27      C     -10.3255142450    -2.1254957217     1.5404478932
   28      C     -10.0380457344    -3.2800084561     2.1244103933
   29      C       5.0765175049    -0.5865514231    -3.0545583550
   30      H       3.1880151128     1.5230644976    -2.7706404408
   31      H       0.6798763967     1.1479371341    -2.2819967646
   32      H       1.5510007552    -3.0254835746    -2.0092552376
   33      H      -1.2698661187     0.2902431093    -3.0802536676
   34      H      -7.9045445280     1.4685035007    -2.8465661504
   35      H      -8.9284575820     0.0428583053    -0.9606141800
   36      H     -11.3256177003    -1.7537877137     1.3592374207
   37      H     -10.7906333847    -3.9860668149     2.4483539419
   38      H       5.3119860043    -1.2686688426    -3.8805943178
   39      C       5.9533052131    -0.8041027264    -1.8235145925
   40      H       5.2158862533     0.4064836827    -3.4986390129
   41      H       5.8691926456    -1.8464351658    -1.4905263617
   42      H       5.5321461162    -0.2062866206    -1.0053074556
   43      C       7.4100697326    -0.3930818561    -1.9880441604
   44      H       7.5514190178     0.6210003800    -2.3805293168
   45      C       8.1098530838    -1.4231436083    -2.8904310220
   46      H       7.8780817248    -0.4491641761    -0.9967860968
   47      H       7.5734513128    -1.5066503573    -3.8440230537
   48      H       7.9942794820    -2.4087828459    -2.4211890420
   49      C       9.6212307498    -1.0131938937    -3.0466385193
   50      H       9.6495004370    -0.2875634499    -3.8689859421
   51      C      10.4215428059    -2.1942071590    -3.3956632751
   52      H      10.0085497325    -0.5703595119    -2.1208309173
   53      H      10.1295615856    -2.6265592265    -4.3609402596
   54      H      10.4667699702    -2.9998109669    -2.6538917413
   55      H      11.4487704419    -1.8687668294    -3.6024070194
   56      C      -4.1418414314     1.6093066898     0.9167721109
   57      C      -3.6116986166     0.7335048580     1.9272312873
   58      N      -3.3039036333     2.1442272368     0.0211492801
   59      C      -2.2333877017     0.4887578500     2.0870403105
   60      C      -2.0110571791     1.8979480785     0.1114854420
   61      C      -1.3937388123     1.0803188508     1.1079313663
   62      C       0.1172355502     1.0147205065     1.1350483928
   63      C       0.7986075939    -0.1758561595     1.4655954249
   64      C       0.9998791166     2.1285241683     0.9786107444
   65      N       2.1681522359    -0.3295513226     1.6117401149
   66      N       0.5374384969     3.4259126793     0.7448999730
   67      C       2.3292818562     2.0223678350     1.1811352830
   68      C       2.9661962726     0.7686648272     1.4434724599
   69      S       1.8998124148     4.3430036885     0.6370927895
   70      N       2.9894882287     3.2137564458     1.0391292127
   71      C       4.4321603677     0.5490073349     1.5937716878
   72      S       5.6175098774     1.8164311344     1.6701879960
   73      C       5.0913503833    -0.6965303414     1.5944198793
   74      C       6.9927901699     0.7233181516     1.5028884928
   75      S       4.3783382209    -2.2840414848     1.4209493456
   76      C       6.4697114199    -0.6247652103     1.4622698930
   77      C       8.3812708366     1.0847230352     1.6337240706
   78      C       6.1138563204    -2.9173644645     1.2545854982
   79      C       7.0513778980    -1.9099933921     1.3776375773
   80      N       8.5542349299     2.3141683878     2.1618154900
   81      S       9.7962937647     0.1683133904     1.1744066686
   82      C       9.8843266003     2.6472815226     2.0010772314
   83      C      10.6024004986     1.6769474333     1.3796388743
   84      C      -5.5617710001     2.1632612860     1.0135260528
   85      H      -4.3281634455     0.2996694735     2.6186089035
   86      H      -1.8806013822    -0.1011521003     2.9289393920
   87      H      -1.3842397260     2.2613078211    -0.7024055691
   88      H       0.2046461517    -1.0664276572     1.6678482685
   89      H       6.2031602392    -3.9947593496     1.2543180506
   90      H       8.1324589095    -1.9704205935     1.3280150044
   91      H      10.3944999072     3.5588078936     2.2838454612
   92      H      11.6261482446     1.7427982699     1.0331446898
   93      H      -6.2857056757     1.3605162401     0.8273326672
   94      C      -5.8177961988     3.4488684409     0.2072876631
   95      H      -5.6753040551     2.4074732643     2.0766011936
   96      H      -5.8016443511     3.3549222279    -0.8860381012
   97      H      -5.1207375898     4.2405440857     0.5093091343
   98      C      -7.2578284242     3.9293578159     0.3407123628
   99      H      -7.9614469245     3.0947778731     0.2258196950
  100      C      -7.5710384741     5.1306588075    -0.6704342102
  101      H      -7.4567177057     4.1789325886     1.3907278324
  102      H      -6.7209263496     5.8208817576    -0.7240220361
  103      H      -8.4366212965     5.6954304458    -0.3003148051
  104      C      -7.9721595217     4.6184987033    -2.0800738567
  105      H      -7.8653920301     5.4966064439    -2.7307915364
  106      C      -9.2951147884     3.9253612975    -2.1600669753
  107      H      -7.2078257142     3.9192685591    -2.4390780854
  108      H      -9.2980578288     3.0294505956    -1.5252407372
  109      H      -9.5682983394     3.6121651186    -3.1748467056
  110      H     -10.0490113815     4.6093305112    -1.7519590955
 ----------------------------------------------------------------

   10   -5663.5038430708      3.63E-06 Convergence criterion met
 Total energy in the final basis set = -5663.5038430708

                    Orbital Energies (a.u.)
 --------------------------------------------------------------

 Alpha MOs
 -- Occupied --
-88.989 -88.987 -88.934 -88.931 -88.924 -88.923 -88.907 -88.906
-14.393 -14.390 -14.381 -14.378 -14.351 -14.349 -14.344 -14.339
-14.320 -14.318 -10.271 -10.271 -10.269 -10.266 -10.258 -10.256
-10.252 -10.251 -10.244 -10.243 -10.242 -10.240 -10.237 -10.235
-10.231 -10.229 -10.229 -10.228 -10.227 -10.226 -10.225 -10.224
-10.224 -10.223 -10.221 -10.220 -10.219 -10.217 -10.215 -10.214
-10.211 -10.210 -10.209 -10.208 -10.207 -10.201 -10.197 -10.194
-10.182 -10.177 -10.175 -10.173 -10.172 -10.171 -10.168 -10.168
-10.167 -10.166 -10.165 -10.164  -8.044  -8.042  -7.995  -7.992
 -7.983  -7.981  -7.965  -7.965  -6.009  -6.007  -6.003  -6.002
 -6.001  -6.000  -5.959  -5.956  -5.956  -5.953  -5.952  -5.949
 -5.947  -5.946  -5.943  -5.942  -5.939  -5.939  -5.930  -5.930
 -5.926  -5.926  -5.922  -5.922  -1.033  -1.029  -0.980  -0.967
 -0.949  -0.943  -0.937  -0.937  -0.913  -0.905  -0.903  -0.887
 -0.843  -0.837  -0.835  -0.827  -0.813  -0.806  -0.804  -0.803
 -0.802  -0.798  -0.797  -0.792  -0.781  -0.779  -0.769  -0.764
 -0.752  -0.745  -0.740  -0.738  -0.722  -0.719  -0.708  -0.705
 -0.693  -0.689  -0.671  -0.668  -0.653  -0.651  -0.644  -0.638
 -0.635  -0.632  -0.622  -0.620  -0.614  -0.610  -0.595  -0.593
 -0.590  -0.589  -0.583  -0.579  -0.578  -0.575  -0.561  -0.552
 -0.550  -0.544  -0.539  -0.533  -0.521  -0.520  -0.516  -0.508
 -0.505  -0.503  -0.497  -0.495  -0.483  -0.479  -0.475  -0.471
 -0.470  -0.468  -0.467  -0.464  -0.461  -0.460  -0.449  -0.449
 -0.444  -0.442  -0.440  -0.438  -0.437  -0.432  -0.431  -0.430
 -0.428  -0.425  -0.420  -0.417  -0.416  -0.414  -0.411  -0.410
 -0.408  -0.406  -0.400  -0.398  -0.397  -0.394  -0.393  -0.392
 -0.392  -0.391  -0.390  -0.388  -0.387  -0.385  -0.384  -0.381
 -0.380  -0.380  -0.370  -0.367  -0.366  -0.363  -0.353  -0.351
 -0.348  -0.348  -0.347  -0.346  -0.344  -0.342  -0.339  -0.338
 -0.336  -0.333  -0.332  -0.329  -0.327  -0.326  -0.320  -0.319
 -0.318  -0.313  -0.304  -0.302  -0.301  -0.298  -0.297  -0.295
 -0.295  -0.291  -0.289  -0.287  -0.285  -0.283  -0.281  -0.280
 -0.274  -0.271  -0.265  -0.259  -0.256  -0.251  -0.245  -0.243
 -0.241  -0.239  -0.231  -0.225  -0.196  -0.191

          Ground-State Mulliken Net Atomic Charges

     Atom                 Charge (a.u.)
  ----------------------------------------
      1 C                     0.262034
      2 C                    -0.142019
      3 N                    -0.467771
      4 C                    -0.084424
      5 C                     0.095698
      6 C                     0.039827
      7 C                     0.044926
      8 C                     0.032063
      9 C                     0.211305
     10 N                    -0.516246
     11 N                    -0.541703
     12 C                     0.215844
     13 C                     0.320902
     14 S                     0.594813
     15 N                    -0.556152
     16 C                    -0.207516
     17 S                     0.292884
     18 C                    -0.124192
     19 C                    -0.232772
     20 S                     0.302340
     21 C                     0.142164
     22 C                     0.062836
     23 C                    -0.309218
     24 C                    -0.058317
     25 N                    -0.429088
     26 S                     0.260271
     27 C                     0.149704
     28 C                    -0.311013
     29 C                    -0.208805
     30 H                     0.097899
     31 H                     0.101575
     32 H                     0.114717
     33 H                     0.116557
     34 H                     0.132524
     35 H                     0.121934
     36 H                     0.115741
     37 H                     0.126299
     38 H                     0.115871
     39 C                    -0.181651
     40 H                     0.082445
     41 H                     0.120253
     42 H                     0.094343
     43 C                    -0.175729
     44 H                     0.086780
     45 C                    -0.174402
     46 H                     0.088374
     47 H                     0.092092
     48 H                     0.088828
     49 C                    -0.174327
     50 H                     0.095198
     51 C                    -0.312296
     52 H                     0.097615
     53 H                     0.099908
     54 H                     0.099769
     55 H                     0.087090
     56 C                     0.279675
     57 C                    -0.129190
     58 N                    -0.467827
     59 C                    -0.072075
     60 C                     0.112530
     61 C                     0.005410
     62 C                     0.026427
     63 C                     0.056528
     64 C                     0.214429
     65 N                    -0.541721
     66 N                    -0.551640
     67 C                     0.209365
     68 C                     0.327353
     69 S                     0.611486
     70 N                    -0.561772
     71 C                    -0.224275
     72 S                     0.367743
     73 C                    -0.121635
     74 C                    -0.217571
     75 S                     0.289331
     76 C                     0.125009
     77 C                     0.059193
     78 C                    -0.317692
     79 C                    -0.059861
     80 N                    -0.441651
     81 S                     0.285400
     82 C                     0.132612
     83 C                    -0.304680
     84 C                    -0.248668
     85 H                     0.091763
     86 H                     0.107803
     87 H                     0.098448
     88 H                     0.104026
     89 H                     0.131869
     90 H                     0.101306
     91 H                     0.120247
     92 H                     0.126125
     93 H                     0.128745
     94 C                    -0.151209
     95 H                     0.111302
     96 H                     0.119498
     97 H                     0.099974
     98 C                    -0.193694
     99 H                     0.095970
    100 C                    -0.186864
    101 H                     0.075873
    102 H                     0.094622
    103 H                     0.085579
    104 C                    -0.174546
    105 H                     0.089694
    106 C                    -0.314836
    107 H                     0.091829
    108 H                     0.110780
    109 H                     0.098314
    110 H                     0.099368
  ----------------------------------------
  Sum of atomic charges =     0.000000

                    Cartesian Multipole Moments
 -----------------------------------------------------------------
    Charge (ESU x 10^10)
                 0.0000
    Dipole Moment (Debye)
         X      -0.2178      Y      -0.9614      Z       0.7305
       Tot       1.2269
    Quadrupole Moments (Debye-Ang)
        XX    -370.6752     XY      16.1913     YY    -433.0591
        XZ     -12.5786     YZ     -14.0459     ZZ    -449.5470

 Total job time:  116.63s(wall), 1417.12s(cpu)
        *  Thank you very much for using Q-Chem.  Have a nice day.  *
