 Q-Chem 4.4, Q-Chem, Inc., Pleasanton, CA (2016)
 Q-Chem 4.4.2 for Intel X86 Linux

User input:
--------------------------------------------------------------
$comment
SP
$end

$rem
MEM_STATIC 5000
MEM_TOTAL 20000
JOBTYPE SP
EXCHANGE B3LYP
BASIS 6-31g(d,p)
$end

$molecule
0 1
C          -2.020000      6.673000     15.370000
C          -2.965000      5.662000     15.608000
N          -1.372000      6.694000     14.215000
C          -3.189000      4.609000     14.724000
C          -1.563000      5.641000     13.389000
C          -2.408000      4.546000     13.533000
C          -2.380000      3.357000     12.559000
C          -1.149000      2.868000     12.125000
C          -3.556000      2.893000     11.958000
N          -1.065000      1.916000     11.236000
N          -4.789000      3.377000     12.155000
C          -3.444000      1.893000     10.991000
C          -2.155000      1.414000     10.585000
S          -5.778000      2.510000     11.203000
N          -4.641000      1.464000     10.514000
C          -1.764000      0.765000      9.311000
S          -0.124000      0.850000      8.694000
C          -2.535000      0.061000      8.375000
C          -0.596000      0.220000      7.142000
S          -4.265000     -0.442000      8.377000
C          -1.909000     -0.184000      7.186000
C           0.228000      0.382000      5.960000
C          -3.983000     -1.103000      6.787000
C          -2.780000     -0.782000      6.227000
N          -0.236000      0.011000      4.840000
S           1.493000      1.519000      5.983000
C           0.522000      0.603000      3.865000
C           1.537000      1.375000      4.255000
C          -1.575000      7.808000     16.315000
H          -3.525000      5.848000     16.518000
H          -3.898000      3.826000     14.976000
H          -0.807000      5.547000     12.609000
H          -0.234000      3.257000     12.569000
H          -4.716000     -1.794000      6.391000
H          -2.554000     -1.205000      5.253000
H           0.265000      0.401000      2.833000
H           2.165000      2.051000      3.691000
H          -0.989000      8.589000     15.816000
C          -0.709000      7.196000     17.487000
H          -2.464000      8.302000     16.725000
H           0.014000      6.476000     17.084000
H          -1.298000      6.510000     18.108000
C           0.046000      8.224000     18.389000
H           0.564000      8.957000     17.757000
C           1.174000      7.503000     19.208000
H          -0.679000      8.815000     18.962000
H           1.729000      6.859000     18.514000
H           0.674000      6.971000     20.025000
C           2.013000      8.572000     19.889000
H           2.618000      9.080000     19.128000
C           2.848000      8.054000     21.101000
H           1.375000      9.410000     20.197000
H           3.666000      7.365000     20.858000
H           2.239000      7.344000     21.674000
H           3.338000      8.758000     21.784000
C           6.463000      8.069000     12.144000
C           5.267000      7.740000     11.464000
N           7.229000      7.174000     12.790000
C           4.914000      6.364000     11.422000
C           6.770000      5.913000     12.792000
C           5.632000      5.402000     12.050000
C           5.275000      3.980000     11.684000
C           4.797000      3.567000     10.413000
C           5.255000      3.045000     12.714000
N           4.405000      2.297000     10.120000
N           5.851000      3.295000     13.911000
C           4.819000      1.766000     12.396000
C           4.426000      1.357000     11.111000
S           5.674000      1.855000     14.653000
N           4.887000      0.949000     13.488000
C           3.652000      0.096000     10.851000
S           2.646000     -0.746000     12.012000
C           3.507000     -0.443000      9.575000
C           2.078000     -1.864000     10.714000
S           4.289000     -0.033000      8.127000
C           2.664000     -1.501000      9.524000
C           1.136000     -2.903000     10.898000
C           3.338000     -1.221000      7.293000
C           2.541000     -1.983000      8.184000
N           0.717000     -3.617000      9.866000
S           0.443000     -3.233000     12.467000
C          -0.284000     -4.523000     10.342000
C          -0.683000     -4.344000     11.630000
C           7.038000      9.453000     11.976000
H           4.599000      8.493000     11.057000
H           4.033000      6.064000     10.863000
H           7.332000      5.170000     13.356000
H           4.711000      4.328000      9.639000
H           3.263000     -1.240000      6.214000
H           1.956000     -2.871000      7.975000
H          -0.589000     -5.222000      9.573000
H          -1.441000     -4.806000     12.250000
H           7.931000      9.391000     11.342000
C           7.285000     10.319000     13.241000
H           6.339000     10.095000     11.425000
H           8.242000      9.922000     13.604000
H           6.498000     10.368000     14.003000
C           7.479000     11.766000     12.811000
H           8.053000     11.859000     11.880000
C           8.354000     12.599000     13.807000
H           6.520000     12.226000     12.542000
H           8.623000     13.519000     13.273000
H           9.301000     12.065000     13.953000
C           7.548000     12.787000     15.132000
H           6.551000     13.149000     14.851000
C           8.272000     13.655000     16.059000
H           7.321000     11.816000     15.590000
H           7.920000     14.691000     15.981000
H           9.327000     13.458000     15.835000
H           8.065000     13.346000     17.093000
$end

--------------------------------------------------------------

             Standard Nuclear Orientation (Angstroms)
    I     Atom           X                Y                Z
 ----------------------------------------------------------------
    1      C       3.1318371888    -5.4688792310     0.7046557345
    2      C       2.0876557993    -6.2225942862     0.1448443006
    3      N       2.8471566825    -4.3454518530     1.3459340949
    4      C       0.7613638887    -5.7967089900     0.1413112728
    5      C       1.5649614427    -3.9204021535     1.2923232738
    6      C       0.4552364217    -4.5281687015     0.7153343651
    7      C      -0.9056643042    -3.8203391988     0.6147977588
    8      C      -0.9423472101    -2.4751571510     0.2515105133
    9      C      -2.0746294214    -4.4437271191     1.0668829892
   10      N      -2.0601971909    -1.8016298182     0.2302184428
   11      N      -2.1630019752    -5.6716488711     1.5939052493
   12      C      -3.2551832114    -3.6994878253     1.0610844945
   13      C      -3.2445635059    -2.3205909824     0.6682375544
   14      S      -3.7252375556    -5.8937143537     1.9762936814
   15      N      -4.3445626914    -4.4083895838     1.4548987215
   16      C      -4.1983903814    -1.2446014669     1.0282637400
   17      S      -3.7230422214     0.4438795456     1.0525535945
   18      C      -5.5355700044    -1.3164077458     1.4441333277
   19      C      -5.1863035879     0.9211053791     1.8646556061
   20      S      -6.6721290372    -2.7051209181     1.6042029689
   21      C      -6.0437390625    -0.1503315878     1.9417803936
   22      C      -5.3026338364     2.1841685330     2.5671388745
   23      C      -7.8437215432    -1.5623514166     2.2091772380
   24      C      -7.3586021784    -0.3134442686     2.4713606425
   25      N      -6.3514562433     2.4096314548     3.2427682326
   26      S      -3.8910133577     3.0589783108     2.9353215424
   27      C      -6.0741949398     3.4415714110     4.0994356689
   28      C      -4.8562994382     3.9817334980     4.0423001544
   29      C       4.6475636546    -5.7508566705     0.6563131602
   30      H       2.4396469507    -7.1836116337    -0.2141040065
   31      H      -0.0027996873    -6.3947093591    -0.3462577866
   32      H       1.4337958781    -2.8728056009     1.5645530621
   33      H      -0.0241599126    -1.9830251123    -0.0653808612
   34      H      -8.8799682820    -1.8731515379     2.2435571897
   35      H      -8.0660712508     0.4349140103     2.8150587630
   36      H      -6.8618002662     3.7710473299     4.7650184726
   37      H      -4.3656346980     4.6842031872     4.7020277106
   38      H       5.2302235877    -5.1340472784     1.3508717079
   39      C       5.1748042055    -5.4961116149    -0.8117489496
   40      H       4.8271817347    -6.7939723902     0.9428510121
   41      H       4.7583176410    -4.5599625515    -1.2037972538
   42      H       4.7229988517    -6.1921444435    -1.5290830585
   43      C       6.7269160281    -5.4750728244    -0.9875876815
   44      H       7.1764032112    -4.8418051844    -0.2117201875
   45      C       7.1102238477    -4.8032993062    -2.3531576928
   46      H       7.1336578217    -6.4761146566    -0.7986131767
   47      H       6.5275494393    -3.8777167027    -2.4436252442
   48      H       6.9112056308    -5.5470267793    -3.1327564326
   49      C       8.6174705039    -4.6074961696    -2.3708112795
   50      H       8.8737253430    -3.7983495061    -1.6759550827
   51      C       9.2207442572    -4.4147562704    -3.7967864230
   52      H       9.1104566129    -5.4436895194    -1.8590521779
   53      H       8.9505557363    -3.4827153387    -4.3078557577
   54      H       8.7179562434    -5.0998710560    -4.4904231750
   55      H      10.3048827118    -4.4558948197    -3.9553942124
   56      C       6.2793821871     3.1224102875     1.4791787448
   57      C       5.1611104948     2.4988411620     2.0805829085
   58      N       6.2859347911     3.6015135326     0.2239838819
   59      C       3.9671567790     2.4492480455     1.3113208939
   60      C       5.1523468180     3.4206124768    -0.4710406611
   61      C       3.8938191069     2.9076773114     0.0386008956
   62      C       2.4994167034     3.0238524231    -0.5320428466
   63      C       1.3366148643     3.3196810872     0.2261598206
   64      C       2.3235771445     2.6495903635    -1.8604002383
   65      N       0.0760874771     3.3443151525    -0.2865553723
   66      N       3.3806247929     2.5182460065    -2.7065231188
   67      C       1.0242101518     2.6507571596    -2.3489747535
   68      C      -0.1051149295     3.0252052523    -1.6024036004
   69      S       2.6158767497     2.2382975074    -4.1180054136
   70      N       1.0060081834     2.3007501526    -3.6687250266
   71      C      -1.5113748263     2.7069214308    -2.0242157760
   72      S      -1.9885482513     1.4130470037    -3.1045469703
   73      C      -2.6223226818     3.3095649356    -1.4391194862
   74      C      -3.7256294771     1.7634938454    -2.7623659860
   75      S      -2.7093014045     4.6280678483    -0.3759577999
   76      C      -3.8029610874     2.7945142993    -1.8555685194
   77      C      -4.8166131799     1.0439213957    -3.3033937579
   78      C      -4.4318108441     4.4331165620    -0.2968614885
   79      C      -4.8946016608     3.4382543160    -1.1945294513
   80      N      -6.0541088116     1.3210798071    -2.9263410074
   81      S      -4.5696280559    -0.2725374671    -4.4244844817
   82      C      -6.9245513408     0.3835671082    -3.5688460601
   83      C      -6.3142841262    -0.6277235499    -4.2434208386
   84      C       7.4707976178     3.4641919950     2.3382593789
   85      H       5.2145685208     2.0076944939     3.0474330468
   86      H       3.0712997718     2.0284971090     1.7574720703
   87      H       5.1391459191     3.7416624597    -1.5115893840
   88      H       1.4671381115     3.5052273913     1.2911148670
   89      H      -5.0275553774     4.9102876338     0.4697043726
   90      H      -5.9157528691     3.1930479411    -1.4620627079
   91      H      -7.9667936179     0.6241146128    -3.3989786591
   92      H      -6.6759908677    -1.5044304553    -4.7658777604
   93      H       7.4981500957     4.5502207411     2.4900566273
   94      C       8.8628373488     2.8991987471     1.9455788255
   95      H       7.3553445454     3.0369820950     3.3425144707
   96      H       9.1779210876     3.5986818773     1.1602937892
   97      H       8.9378893008     1.8417164532     1.6653781784
   98      C       9.7988858369     3.0369315764     3.1377146801
   99      H       9.6484835222     3.9737371490     3.6896752429
  100      C      11.3078958058     3.1457641193     2.7345095319
  101      H       9.5772312814     2.2783750972     3.8987030675
  102      H      11.8350547022     3.4871360723     3.6342237574
  103      H      11.4070554670     3.9677753155     2.0149638732
  104      C      11.7633935215     1.7682943998     2.1551098403
  105      H      11.4464308129     0.9997568785     2.8712793173
  106      C      13.1963133878     1.7772183059     1.8659904519
  107      H      11.1785311491     1.5090482942     1.2635598069
  108      H      13.7659639662     1.3436541885     2.6971368738
  109      H      13.4041130672     2.8192487644     1.5958019681
  110      H      13.4020537881     1.1373499610     0.9966657778
 ----------------------------------------------------------------

   10   -5663.4744926557      7.46E-06 Convergence criterion met
 Total energy in the final basis set = -5663.4744926557

                    Orbital Energies (a.u.)
 --------------------------------------------------------------

 Alpha MOs
 -- Occupied --
-88.989 -88.986 -88.927 -88.919 -88.918 -88.917 -88.906 -88.906
-14.391 -14.389 -14.387 -14.380 -14.355 -14.340 -14.338 -14.337
-14.332 -14.321 -10.266 -10.266 -10.262 -10.259 -10.257 -10.254
-10.252 -10.252 -10.243 -10.243 -10.242 -10.234 -10.234 -10.233
-10.230 -10.229 -10.229 -10.229 -10.227 -10.225 -10.224 -10.224
-10.224 -10.223 -10.219 -10.218 -10.217 -10.216 -10.212 -10.211
-10.210 -10.203 -10.202 -10.199 -10.197 -10.195 -10.194 -10.191
-10.189 -10.183 -10.181 -10.181 -10.180 -10.180 -10.176 -10.175
-10.172 -10.171 -10.169 -10.164  -8.044  -8.041  -7.985  -7.981
 -7.978  -7.978  -7.968  -7.965  -6.009  -6.006  -6.004  -6.002
 -6.001  -5.999  -5.950  -5.946  -5.945  -5.943  -5.942  -5.942
 -5.942  -5.939  -5.939  -5.938  -5.935  -5.935  -5.932  -5.930
 -5.928  -5.926  -5.924  -5.922  -1.036  -1.031  -0.992  -0.959
 -0.956  -0.953  -0.940  -0.939  -0.916  -0.915  -0.906  -0.899
 -0.847  -0.846  -0.837  -0.828  -0.816  -0.807  -0.805  -0.804
 -0.800  -0.798  -0.794  -0.793  -0.782  -0.779  -0.767  -0.764
 -0.749  -0.748  -0.742  -0.737  -0.725  -0.724  -0.707  -0.706
 -0.691  -0.690  -0.675  -0.671  -0.652  -0.652  -0.645  -0.640
 -0.635  -0.632  -0.626  -0.623  -0.609  -0.605  -0.596  -0.594
 -0.590  -0.589  -0.586  -0.581  -0.579  -0.578  -0.576  -0.561
 -0.552  -0.550  -0.541  -0.534  -0.521  -0.520  -0.514  -0.510
 -0.504  -0.503  -0.501  -0.499  -0.487  -0.485  -0.474  -0.473
 -0.471  -0.470  -0.465  -0.465  -0.458  -0.457  -0.450  -0.448
 -0.445  -0.442  -0.434  -0.434  -0.433  -0.432  -0.430  -0.427
 -0.425  -0.425  -0.424  -0.421  -0.415  -0.414  -0.411  -0.411
 -0.409  -0.406  -0.403  -0.400  -0.399  -0.399  -0.397  -0.394
 -0.393  -0.392  -0.390  -0.388  -0.385  -0.385  -0.382  -0.381
 -0.373  -0.372  -0.371  -0.370  -0.366  -0.363  -0.358  -0.354
 -0.350  -0.350  -0.348  -0.348  -0.346  -0.346  -0.343  -0.341
 -0.338  -0.336  -0.335  -0.329  -0.328  -0.324  -0.319  -0.317
 -0.316  -0.315  -0.309  -0.305  -0.304  -0.302  -0.301  -0.298
 -0.297  -0.289  -0.289  -0.287  -0.286  -0.283  -0.279  -0.279
 -0.276  -0.266  -0.264  -0.262  -0.255  -0.254  -0.251  -0.245
 -0.243  -0.242  -0.235  -0.232  -0.191  -0.189

          Ground-State Mulliken Net Atomic Charges

     Atom                 Charge (a.u.)
  ----------------------------------------
      1 C                     0.260537
      2 C                    -0.115579
      3 N                    -0.471284
      4 C                    -0.065312
      5 C                     0.052339
      6 C                     0.048621
      7 C                    -0.017645
      8 C                     0.086090
      9 C                     0.270753
     10 N                    -0.513557
     11 N                    -0.551594
     12 C                     0.214127
     13 C                     0.296602
     14 S                     0.593801
     15 N                    -0.571557
     16 C                    -0.237972
     17 S                     0.336526
     18 C                    -0.127515
     19 C                    -0.251008
     20 S                     0.287788
     21 C                     0.173187
     22 C                     0.092498
     23 C                    -0.304569
     24 C                    -0.055663
     25 N                    -0.430484
     26 S                     0.279723
     27 C                     0.112926
     28 C                    -0.309853
     29 C                    -0.218086
     30 H                     0.083715
     31 H                     0.104074
     32 H                     0.083917
     33 H                     0.117573
     34 H                     0.127702
     35 H                     0.122480
     36 H                     0.105903
     37 H                     0.136529
     38 H                     0.123123
     39 C                    -0.190192
     40 H                     0.097485
     41 H                     0.101647
     42 H                     0.092773
     43 C                    -0.188360
     44 H                     0.093978
     45 C                    -0.168041
     46 H                     0.095021
     47 H                     0.102864
     48 H                     0.096126
     49 C                    -0.175115
     50 H                     0.094738
     51 C                    -0.331602
     52 H                     0.097094
     53 H                     0.101245
     54 H                     0.099251
     55 H                     0.102631
     56 C                     0.272909
     57 C                    -0.119219
     58 N                    -0.473380
     59 C                    -0.107128
     60 C                     0.088731
     61 C                     0.054900
     62 C                    -0.004362
     63 C                     0.071402
     64 C                     0.223914
     65 N                    -0.492414
     66 N                    -0.526288
     67 C                     0.192350
     68 C                     0.266767
     69 S                     0.604911
     70 N                    -0.550462
     71 C                    -0.194637
     72 S                     0.333271
     73 C                    -0.114340
     74 C                    -0.249076
     75 S                     0.284423
     76 C                     0.191014
     77 C                     0.093347
     78 C                    -0.317438
     79 C                    -0.068673
     80 N                    -0.462811
     81 S                     0.242354
     82 C                     0.128106
     83 C                    -0.308207
     84 C                    -0.240979
     85 H                     0.096600
     86 H                     0.093883
     87 H                     0.111743
     88 H                     0.114046
     89 H                     0.138210
     90 H                     0.131292
     91 H                     0.114466
     92 H                     0.136769
     93 H                     0.120769
     94 C                    -0.156816
     95 H                     0.091649
     96 H                     0.111648
     97 H                     0.101464
     98 C                    -0.197033
     99 H                     0.080189
    100 C                    -0.185321
    101 H                     0.089614
    102 H                     0.089707
    103 H                     0.094408
    104 C                    -0.169934
    105 H                     0.088740
    106 C                    -0.310450
    107 H                     0.100109
    108 H                     0.105146
    109 H                     0.105081
    110 H                     0.094642
  ----------------------------------------
  Sum of atomic charges =     0.000000

                    Cartesian Multipole Moments
 -----------------------------------------------------------------
    Charge (ESU x 10^10)
                 0.0000
    Dipole Moment (Debye)
         X      -1.9806      Y      -1.5319      Z       0.9163
       Tot       2.6663
    Quadrupole Moments (Debye-Ang)
        XX    -430.0177     XY      -2.5058     YY    -427.3070
        XZ      -1.4442     YZ      23.4063     ZZ    -429.4637

 Total job time:  95.07s(wall), 1136.11s(cpu)
        *  Thank you very much for using Q-Chem.  Have a nice day.  *
