 Q-Chem 4.4, Q-Chem, Inc., Pleasanton, CA (2016)
 Q-Chem 4.4.2 for Intel X86 Linux

User input:
--------------------------------------------------------------
$comment
SP
$end

$rem
MEM_STATIC 5000
MEM_TOTAL 20000
JOBTYPE SP
EXCHANGE B3LYP
BASIS 6-31g(d,p)
$end

$molecule
0 1
C         -27.283000    -21.450000    -15.173000
C         -26.494000    -22.538000    -15.487000
N         -27.050000    -20.665000    -14.086000
C         -25.297000    -22.773000    -14.744000
C         -25.972000    -20.989000    -13.300000
C         -25.118000    -22.053000    -13.511000
C         -24.029000    -22.415000    -12.605000
C         -23.749000    -23.685000    -12.107000
C         -23.207000    -21.379000    -12.029000
N         -22.870000    -23.965000    -11.060000
N         -23.156000    -20.104000    -12.506000
C         -22.209000    -21.687000    -11.081000
C         -22.137000    -23.036000    -10.534000
S         -21.902000    -19.408000    -11.815000
N         -21.520000    -20.585000    -10.714000
C         -21.303000    -23.423000     -9.370000
S         -20.575000    -22.362000     -8.106000
C         -21.161000    -24.725000     -8.873000
C         -20.067000    -23.704000     -7.147000
S         -21.763000    -26.274000     -9.511000
C         -20.456000    -24.829000     -7.709000
C         -19.304000    -23.614000     -5.942000
C         -20.824000    -27.120000     -8.238000
C         -20.222000    -26.233000     -7.407000
N         -19.684000    -22.638000     -5.148000
S         -18.299000    -24.882000     -5.314000
C         -18.969000    -22.792000     -3.983000
C         -18.285000    -23.967000     -3.837000
C         -28.556000    -21.083000    -15.956000
H         -26.658000    -23.113000    -16.395000
H         -24.625000    -23.607000    -14.921000
H         -25.911000    -20.422000    -12.371000
H         -24.282000    -24.523000    -12.553000
H         -20.836000    -28.201000     -8.205000
H         -19.774000    -26.697000     -6.536000
H         -19.045000    -22.021000     -3.227000
H         -17.561000    -24.250000     -3.084000
H         -29.379000    -21.736000    -15.640000
C         -28.269000    -21.131000    -17.499000
H         -28.789000    -20.097000    -15.534000
H         -28.578000    -22.156000    -17.737000
H         -27.200000    -21.021000    -17.720000
C         -29.125000    -19.995000    -18.161000
H         -30.209000    -20.050000    -18.003000
C         -29.027000    -19.988000    -19.720000
H         -28.745000    -19.038000    -17.782000
H         -29.169000    -21.027000    -20.042000
H         -28.008000    -19.649000    -19.943000
C         -30.070000    -19.065000    -20.393000
H         -29.952000    -19.039000    -21.484000
C         -29.904000    -17.619000    -19.951000
H         -31.109000    -19.370000    -20.220000
H         -28.842000    -17.346000    -19.978000
H         -30.230000    -17.389000    -18.929000
H         -30.433000    -16.973000    -20.662000
C         -22.052000    -21.247000      2.146000
C         -22.067000    -22.034000      0.919000
N         -21.624000    -19.984000      2.149000
C         -21.516000    -21.436000     -0.230000
C         -21.149000    -19.495000      0.985000
C         -20.955000    -20.130000     -0.237000
C         -20.278000    -19.594000     -1.501000
C         -20.849000    -19.655000     -2.775000
C         -19.164000    -18.732000     -1.341000
N         -20.347000    -19.089000     -3.886000
N         -18.457000    -18.404000     -0.181000
C         -18.646000    -18.132000     -2.452000
C         -19.281000    -18.316000     -3.750000
S         -17.366000    -17.291000     -0.605000
N         -17.614000    -17.346000     -2.219000
C         -18.878000    -17.497000     -4.911000
S         -17.803000    -16.023000     -4.851000
C         -19.203000    -17.813000     -6.195000
C         -17.714000    -15.966000     -6.602000
S         -20.044000    -19.145000     -6.917000
C         -18.565000    -16.948000     -7.161000
C         -16.671000    -15.313000     -7.383000
C         -19.432000    -18.643000     -8.491000
C         -18.753000    -17.452000     -8.445000
N         -15.602000    -15.051000     -6.658000
S         -16.284000    -15.423000     -9.119000
C         -14.532000    -14.575000     -7.476000
C         -14.681000    -14.765000     -8.810000
C         -22.621000    -22.009000      3.409000
H         -22.378000    -23.073000      0.985000
H         -21.576000    -22.013000     -1.148000
H         -20.856000    -18.453000      1.103000
H         -21.822000    -20.140000     -2.834000
H         -19.680000    -19.226000     -9.369000
H         -18.375000    -16.854000     -9.268000
H         -13.650000    -14.211000     -6.966000
H         -13.967000    -14.565000     -9.598000
H         -23.705000    -22.070000      3.250000
C         -22.278000    -21.376000      4.808000
H         -22.305000    -23.059000      3.384000
H         -22.725000    -20.374000      4.795000
H         -21.185000    -21.348000      4.903000
C         -22.821000    -22.096000      6.059000
H         -22.362000    -23.079000      6.217000
C         -24.307000    -22.304000      6.101000
H         -22.654000    -21.503000      6.965000
H         -24.539000    -23.003000      5.287000
H         -24.816000    -21.374000      5.818000
C         -24.902000    -22.757000      7.441000
H         -24.545000    -22.097000      8.241000
C         -24.516000    -24.237000      7.775000
H         -25.998000    -22.787000      7.383000
H         -23.492000    -24.362000      8.150000
H         -24.398000    -24.883000      6.895000
H         -25.165000    -24.712000      8.520000
$end

--------------------------------------------------------------

             Standard Nuclear Orientation (Angstroms)
    I     Atom           X                Y                Z
 ----------------------------------------------------------------
    1      C      -9.7312472209    -2.7299849283     1.5408466093
    2      C      -9.8086878131    -2.8498871474     0.1680802736
    3      N      -8.6131940251    -2.2838717475     2.1756875982
    4      C      -8.7429218398    -2.3487984022    -0.6400880007
    5      C      -7.5436130635    -1.9360188203     1.3883814903
    6      C      -7.5029098956    -2.0181117998     0.0108703306
    7      C      -6.3161662023    -1.7161222968    -0.7880306311
    8      C      -5.7755932757    -2.5008461199    -1.8035568161
    9      C      -5.5040353947    -0.5719140712    -0.4533859126
   10      N      -4.5165327807    -2.3215044729    -2.3778853316
   11      N      -5.9247271936     0.4415065352     0.3539257279
   12      C      -4.3038929861    -0.3060995908    -1.1451755203
   13      C      -3.7804693414    -1.3005101672    -2.0732753499
   14      S      -4.8777069992     1.6280845233     0.1801603961
   15      N      -3.7301433659     0.8387136906    -0.7161907605
   16      C      -2.4249999300    -1.2522547480    -2.6737710528
   17      S      -0.9849277670    -0.3148392772    -2.1252772966
   18      C      -1.9274525097    -2.1544809577    -3.6228819162
   19      C       0.0628255675    -1.0962448972    -3.2523652289
   20      S      -2.7398867038    -3.4807358748    -4.4888193131
   21      C      -0.6067252108    -2.0032292357    -3.9319762684
   22      C       1.4429694527    -0.7820242110    -3.4492464535
   23      C      -1.2555735455    -3.6970996012    -5.4726725471
   24      C      -0.2688429868    -2.8660275582    -5.0538455377
   25      N       2.0996845135    -0.5645733382    -2.3317257840
   26      S       2.3260760086    -1.0912685347    -4.9110001124
   27      C       3.4236470721    -0.4406425230    -2.6837631349
   28      C       3.7518234989    -0.7987288643    -3.9619929285
   29      C     -10.8561249099    -3.1848263276     2.4874597754
   30      H     -10.7322097197    -3.1462739741    -0.3230888795
   31      H      -8.7213012724    -2.4086601711    -1.7237937356
   32      H      -6.6312394157    -1.7215268226     1.9449949197
   33      H      -6.3737595855    -3.3392566827    -2.1564219375
   34      H      -1.2435738796    -4.4490557012    -6.2499833162
   35      H       0.6897945059    -3.0710828820    -5.5160224211
   36      H       4.1327772806    -0.1426589806    -1.9221246670
   37      H       4.6838233251    -0.6614800467    -4.4947340346
   38      H     -10.8125445301    -4.2744051925     2.6079282259
   39      C     -12.2413440948    -2.6625854093     1.9640534008
   40      H     -10.5095977019    -2.7726852612     3.4438214411
   41      H     -12.5764220578    -3.5204869346     1.3686730755
   42      H     -12.1281513898    -1.7935627970     1.3039858961
   43      C     -13.1138802940    -2.3317911554     3.2252955436
   44      H     -13.2908508037    -3.1592849574     3.9231353866
   45      C     -14.5705253819    -1.8998207449     2.8623621443
   46      H     -12.6239703626    -1.5033003977     3.7520605040
   47      H     -14.9355451488    -2.6317999557     2.1313792412
   48      H     -14.4709566738    -0.9091826741     2.4022172921
   49      C     -15.5130456582    -1.8415292697     4.0875007621
   50      H     -16.5172092424    -1.4905073114     3.8167239522
   51      C     -15.0204219009    -0.8433913172     5.1242642171
   52      H     -15.6658136056    -2.8114070814     4.5758387441
   53      H     -14.7219981972     0.0870629689     4.6259670020
   54      H     -14.1409944460    -1.1488332536     5.7047576065
   55      H     -15.8482731719    -0.6075858615     5.8037758506
   56      C       8.3600110730    -2.9438125303     1.6547856276
   57      C       7.1741787303    -3.2074771321     0.8489285480
   58      N       8.5104122838    -1.7870051497     2.3009575551
   59      C       6.2536410015    -2.1525980390     0.7031671376
   60      C       7.5510646930    -0.8557246075     2.1220420677
   61      C       6.4352345936    -0.8717415310     1.2920952938
   62      C       5.4421369650     0.2550129734     0.9962872700
   63      C       4.0545187393     0.1099182475     1.0756672445
   64      C       5.9431486293     1.5795786534     0.9318429417
   65      N       3.1549676456     1.1001900992     0.9458578089
   66      N       7.2669970114     2.0272748108     0.9370016016
   67      C       5.0489194072     2.6041239037     0.8164907478
   68      C       3.6173235319     2.3363144862     0.8428794892
   69      S       7.2079899636     3.6412532452     0.9574413110
   70      N       5.5936919292     3.8031197807     0.7641382308
   71      C       2.6439666736     3.4415304118     0.9531753826
   72      S       3.0468544428     5.1787011215     1.3428167190
   73      C       1.3172395428     3.2961515014     0.6833660190
   74      C       1.4051833539     5.6826788823     0.9849152627
   75      S       0.3558515496     1.9708248845     0.1158878388
   76      C       0.6013084668     4.5511594144     0.7120510849
   77      C       0.9846133128     7.0323126777     0.6301921891
   78      C      -0.9528824150     3.1006378381    -0.2228777144
   79      C      -0.6868724122     4.3730281835     0.2151856226
   80      N       2.0019146044     7.7869433439     0.2659661057
   81      S      -0.5553663093     7.6263173816    -0.0415117449
   82      C       1.5516157072     9.0433581798    -0.2432024945
   83      C       0.2321262450     9.1176487455    -0.5453373499
   84      C       9.3814019575    -4.1491241905     1.7144384802
   85      H       7.1281147945    -4.1463186325     0.3039030890
   86      H       5.3519092473    -2.3757369324     0.1407243602
   87      H       7.7671647787     0.0302659555     2.7169021146
   88      H       3.6978297120    -0.8831937204     1.3438771565
   89      H      -1.8732443510     2.7334931323    -0.6592441565
   90      H      -1.3487686651     5.2325438321     0.2458971888
   91      H       2.3090637809     9.7869431414    -0.4526632795
   92      H      -0.3009409985     9.9317253344    -1.0184743505
   93      H       8.9021276366    -4.9076916134     2.3460472121
   94      C      10.8278383538    -3.8018840973     2.2270641419
   95      H       9.4374437754    -4.6385715341     0.7344988838
   96      H      10.6953724224    -3.4274443080     3.2499178075
   97      H      11.2483270678    -3.0447873478     1.5529337737
   98      C      11.8462427332    -4.9577590701     2.2981666547
   99      H      12.1208423456    -5.3443158698     1.3096815038
  100      C      11.4352480022    -6.1421999469     3.1236405430
  101      H      12.7690261474    -4.6465703126     2.8001689733
  102      H      10.5790246614    -6.5919411480     2.6043762145
  103      H      11.0256277005    -5.7977015388     4.0815560169
  104      C      12.5267383619    -7.1729363439     3.4415481942
  105      H      13.4067270290    -6.6596175026     3.8479626537
  106      C      12.9398380368    -7.9891718110     2.1710914571
  107      H      12.1405903267    -7.9420024351     4.1233891157
  108      H      13.6042242090    -7.4487092931     1.4845659434
  109      H      12.1269847753    -8.1442871193     1.4493928937
  110      H      13.4474758537    -8.9353903064     2.3920561736
 ----------------------------------------------------------------

    9   -5663.5006831433      7.23E-06 Convergence criterion met
 Total energy in the final basis set = -5663.5006831433

                    Orbital Energies (a.u.)
 --------------------------------------------------------------

 Alpha MOs
 -- Occupied --
-88.989 -88.988 -88.932 -88.924 -88.923 -88.920 -88.906 -88.906
-14.387 -14.383 -14.376 -14.376 -14.354 -14.349 -14.347 -14.339
-14.331 -14.329 -10.270 -10.269 -10.267 -10.263 -10.260 -10.259
-10.251 -10.247 -10.245 -10.243 -10.240 -10.239 -10.236 -10.235
-10.234 -10.230 -10.230 -10.230 -10.229 -10.228 -10.227 -10.227
-10.226 -10.226 -10.225 -10.223 -10.221 -10.220 -10.219 -10.215
-10.214 -10.209 -10.204 -10.204 -10.202 -10.202 -10.199 -10.194
-10.194 -10.191 -10.185 -10.182 -10.182 -10.180 -10.179 -10.177
-10.173 -10.170 -10.170 -10.169  -8.045  -8.043  -7.994  -7.984
 -7.983  -7.977  -7.965  -7.965  -6.011  -6.008  -6.005  -6.003
 -6.003  -6.001  -5.957  -5.954  -5.951  -5.948  -5.947  -5.944
 -5.944  -5.942  -5.940  -5.940  -5.938  -5.934  -5.930  -5.930
 -5.926  -5.926  -5.922  -5.921  -1.040  -1.037  -0.980  -0.964
 -0.964  -0.957  -0.936  -0.932  -0.920  -0.903  -0.902  -0.892
 -0.845  -0.841  -0.837  -0.834  -0.817  -0.805  -0.804  -0.803
 -0.802  -0.798  -0.797  -0.791  -0.785  -0.775  -0.769  -0.761
 -0.750  -0.744  -0.739  -0.738  -0.729  -0.718  -0.710  -0.706
 -0.697  -0.694  -0.673  -0.672  -0.655  -0.655  -0.645  -0.642
 -0.637  -0.633  -0.631  -0.621  -0.613  -0.611  -0.604  -0.596
 -0.596  -0.589  -0.585  -0.583  -0.576  -0.572  -0.563  -0.552
 -0.549  -0.544  -0.538  -0.537  -0.528  -0.521  -0.521  -0.510
 -0.507  -0.502  -0.502  -0.491  -0.487  -0.479  -0.479  -0.478
 -0.476  -0.470  -0.469  -0.467  -0.465  -0.457  -0.452  -0.446
 -0.446  -0.444  -0.444  -0.440  -0.439  -0.435  -0.434  -0.433
 -0.430  -0.427  -0.425  -0.424  -0.421  -0.418  -0.416  -0.413
 -0.411  -0.409  -0.403  -0.401  -0.400  -0.399  -0.397  -0.395
 -0.392  -0.392  -0.389  -0.388  -0.387  -0.382  -0.380  -0.378
 -0.376  -0.375  -0.371  -0.369  -0.365  -0.364  -0.354  -0.350
 -0.349  -0.347  -0.345  -0.344  -0.343  -0.342  -0.338  -0.336
 -0.335  -0.335  -0.334  -0.331  -0.330  -0.327  -0.324  -0.316
 -0.316  -0.314  -0.306  -0.305  -0.304  -0.304  -0.300  -0.299
 -0.299  -0.296  -0.295  -0.288  -0.285  -0.284  -0.280  -0.277
 -0.275  -0.271  -0.269  -0.260  -0.256  -0.254  -0.251  -0.251
 -0.249  -0.241  -0.239  -0.230  -0.202  -0.191

          Ground-State Mulliken Net Atomic Charges

     Atom                 Charge (a.u.)
  ----------------------------------------
      1 C                     0.262803
      2 C                    -0.105424
      3 N                    -0.488224
      4 C                    -0.093254
      5 C                     0.092531
      6 C                     0.053735
      7 C                     0.040985
      8 C                     0.049697
      9 C                     0.178525
     10 N                    -0.537860
     11 N                    -0.514817
     12 C                     0.212898
     13 C                     0.350236
     14 S                     0.609244
     15 N                    -0.593991
     16 C                    -0.253931
     17 S                     0.363747
     18 C                    -0.118189
     19 C                    -0.238565
     20 S                     0.261883
     21 C                     0.185606
     22 C                     0.031344
     23 C                    -0.306717
     24 C                    -0.075970
     25 N                    -0.397306
     26 S                     0.284079
     27 C                     0.116487
     28 C                    -0.305473
     29 C                    -0.240795
     30 H                     0.092928
     31 H                     0.099186
     32 H                     0.104499
     33 H                     0.112878
     34 H                     0.132352
     35 H                     0.115295
     36 H                     0.111676
     37 H                     0.138350
     38 H                     0.117431
     39 C                    -0.188488
     40 H                     0.127189
     41 H                     0.098938
     42 H                     0.106722
     43 C                    -0.179547
     44 H                     0.096475
     45 C                    -0.177864
     46 H                     0.105816
     47 H                     0.086640
     48 H                     0.089950
     49 C                    -0.178409
     50 H                     0.093083
     51 C                    -0.316414
     52 H                     0.092607
     53 H                     0.099957
     54 H                     0.106177
     55 H                     0.096877
     56 C                     0.276243
     57 C                    -0.112010
     58 N                    -0.485264
     59 C                    -0.113332
     60 C                     0.067748
     61 C                     0.074950
     62 C                     0.000215
     63 C                     0.070110
     64 C                     0.230806
     65 N                    -0.511243
     66 N                    -0.552108
     67 C                     0.215900
     68 C                     0.310445
     69 S                     0.610927
     70 N                    -0.574224
     71 C                    -0.225970
     72 S                     0.363137
     73 C                    -0.114862
     74 C                    -0.207749
     75 S                     0.330632
     76 C                     0.115635
     77 C                     0.048420
     78 C                    -0.334631
     79 C                    -0.067020
     80 N                    -0.416498
     81 S                     0.259126
     82 C                     0.110161
     83 C                    -0.309394
     84 C                    -0.247281
     85 H                     0.090677
     86 H                     0.094851
     87 H                     0.099662
     88 H                     0.119383
     89 H                     0.150516
     90 H                     0.099640
     91 H                     0.115448
     92 H                     0.143141
     93 H                     0.123290
     94 C                    -0.168275
     95 H                     0.104088
     96 H                     0.114577
     97 H                     0.103013
     98 C                    -0.178368
     99 H                     0.088121
    100 C                    -0.173847
    101 H                     0.089406
    102 H                     0.086128
    103 H                     0.084299
    104 C                    -0.172895
    105 H                     0.097430
    106 C                    -0.328201
    107 H                     0.098018
    108 H                     0.100276
    109 H                     0.099522
    110 H                     0.099644
  ----------------------------------------
  Sum of atomic charges =     0.000000

                    Cartesian Multipole Moments
 -----------------------------------------------------------------
    Charge (ESU x 10^10)
                 0.0000
    Dipole Moment (Debye)
         X      -2.2703      Y      -0.6099      Z      -4.7690
       Tot       5.3169
    Quadrupole Moments (Debye-Ang)
        XX    -418.5580     XY      -5.5422     YY    -410.5403
        XZ      -6.5649     YZ       4.0477     ZZ    -439.3797

 Total job time:  81.39s(wall), 954.24s(cpu)
        *  Thank you very much for using Q-Chem.  Have a nice day.  *
