 Q-Chem 4.4, Q-Chem, Inc., Pleasanton, CA (2016)
 Q-Chem 4.4.2 for Intel X86 Linux

User input:
--------------------------------------------------------------
$comment
SP
$end

$rem
MEM_STATIC 5000
MEM_TOTAL 20000
JOBTYPE SP
EXCHANGE B3LYP
BASIS 6-31g(d,p)
$end

$molecule
0 1
C           8.410000    -18.595000     -1.460000
C           9.673000    -18.402000     -0.886000
N           8.171000    -18.326000     -2.751000
C          10.720000    -18.053000     -1.765000
C           9.144000    -17.805000     -3.504000
C          10.470000    -17.692000     -3.081000
C          11.550000    -17.182000     -3.977000
C          12.857000    -17.649000     -3.716000
C          11.338000    -16.184000     -4.994000
N          13.920000    -17.279000     -4.532000
N          10.199000    -15.602000     -5.283000
C          12.378000    -15.719000     -5.772000
C          13.665000    -16.339000     -5.529000
S          10.540000    -14.520000     -6.450000
N          12.148000    -14.685000     -6.622000
C          14.920000    -15.947000     -6.288000
S          15.077000    -14.470000     -7.266000
C          16.150000    -16.572000     -6.299000
C          16.869000    -14.566000     -7.237000
S          16.658000    -18.048000     -5.480000
C          17.169000    -15.782000     -6.733000
C          17.734000    -13.544000     -7.724000
C          18.338000    -17.666000     -5.950000
C          18.387000    -16.514000     -6.730000
N          17.164000    -12.695000     -8.538000
S          19.406000    -13.357000     -7.283000
C          18.176000    -11.900000     -9.045000
C          19.404000    -12.070000     -8.501000
C           7.237000    -19.088000     -0.670000
H           9.744000    -18.559000      0.186000
H          11.697000    -17.964000     -1.300000
H           8.894000    -17.535000     -4.529000
H          13.120000    -18.255000     -2.849000
H          19.085000    -18.391000     -5.653000
H          19.336000    -16.077000     -7.019000
H          17.868000    -11.132000     -9.743000
H          20.335000    -11.546000     -8.668000
H           7.144000    -18.467000      0.229000
C           7.528000    -20.592000     -0.314000
H           6.304000    -19.040000     -1.244000
H           8.456000    -20.556000      0.270000
H           7.939000    -21.164000     -1.156000
C           6.473000    -21.436000      0.454000
H           5.728000    -21.914000     -0.193000
C           5.523000    -20.630000      1.426000
H           6.998000    -22.209000      1.030000
H           4.717000    -21.240000      1.850000
H           4.948000    -19.850000      0.912000
C           6.273000    -20.033000      2.613000
H           6.799000    -20.795000      3.200000
C           5.468000    -19.230000      3.579000
H           7.016000    -19.306000      2.263000
H           4.791000    -18.504000      3.110000
H           6.122000    -18.682000      4.267000
H           4.922000    -19.926000      4.227000
C          13.047000    -20.784000     -6.707000
C          14.297000    -21.288000     -6.222000
N          12.927000    -19.990000     -7.782000
C          15.459000    -20.953000     -6.921000
C          14.072000    -19.577000     -8.361000
C          15.381000    -20.030000     -8.032000
C          16.585000    -19.570000     -8.868000
C          16.705000    -18.223000     -9.293000
C          17.568000    -20.509000     -9.254000
N          17.931000    -17.785000     -9.786000
N          17.580000    -21.841000     -9.181000
C          18.734000    -19.994000     -9.914000
C          18.875000    -18.614000    -10.168000
S          19.034000    -22.401000     -9.731000
N          19.658000    -20.931000    -10.277000
C          20.110000    -18.036000    -10.751000
S          21.656000    -18.847000    -11.265000
C          20.357000    -16.676000    -10.850000
C          22.467000    -17.310000    -11.574000
S          19.236000    -15.356000    -10.687000
C          21.579000    -16.305000    -11.369000
C          23.864000    -17.160000    -11.992000
C          20.547000    -14.212000    -11.051000
C          21.663000    -14.936000    -11.485000
N          24.473000    -18.294000    -12.232000
S          24.873000    -15.803000    -11.907000
C          25.729000    -18.035000    -12.687000
C          26.200000    -16.739000    -12.619000
C          11.826000    -21.360000     -6.025000
H          14.280000    -22.007000     -5.407000
H          16.422000    -21.438000     -6.789000
H          13.972000    -18.894000     -9.203000
H          15.939000    -17.517000     -8.977000
H          20.333000    -13.163000    -10.897000
H          22.599000    -14.449000    -11.737000
H          26.251000    -18.917000    -13.032000
H          27.181000    -16.319000    -12.796000
H          10.958000    -20.831000     -6.438000
C          11.749000    -21.160000     -4.434000
H          11.706000    -22.437000     -6.195000
H          11.580000    -20.095000     -4.234000
H          12.666000    -21.486000     -3.928000
C          10.465000    -21.875000     -3.935000
H           9.572000    -21.330000     -4.265000
C          10.338000    -22.040000     -2.376000
H          10.383000    -22.911000     -4.289000
H           9.436000    -22.610000     -2.122000
H          10.258000    -21.016000     -1.990000
C          11.654000    -22.740000     -1.740000
H          11.521000    -23.725000     -2.202000
C          11.647000    -22.803000     -0.199000
H          12.595000    -22.259000     -2.036000
H          12.477000    -23.429000      0.153000
H          10.783000    -23.408000      0.102000
H          11.807000    -21.842000      0.307000
$end

--------------------------------------------------------------

             Standard Nuclear Orientation (Angstroms)
    I     Atom           X                Y                Z
 ----------------------------------------------------------------
    1      C      -8.7476024415    -0.7929116499    -0.0032131244
    2      C      -8.0518162995    -0.8143082107    -1.2186627662
    3      N      -8.1328657920    -1.0095621581     1.1678224895
    4      C      -6.6475156015    -0.9264183439    -1.1410620718
    5      C      -6.8314056858    -1.3116100182     1.1799749401
    6      C      -6.0109601053    -1.2337220641     0.0526877025
    7      C      -4.5428302514    -1.4977061547     0.1176733309
    8      C      -3.7423133334    -0.8411977004    -0.8428620998
    9      C      -3.9418740828    -2.4458708713     1.0204869073
   10      N      -2.3586990075    -0.9756081214    -0.8264232495
   11      N      -4.5732191112    -3.1860761790     1.8997283744
   12      C      -2.5823834214    -2.6801178256     1.0157428535
   13      C      -1.8134951526    -1.8751068277     0.0880650413
   14      S      -3.4322286644    -4.1159704147     2.5942292822
   15      N      -2.0874516569    -3.6779603275     1.7928586042
   16      C      -0.3076187231    -2.0035004105    -0.0555360275
   17      S       0.6449596965    -3.3651092582     0.5779288102
   18      C       0.5643406577    -1.1857483845    -0.7444587098
   19      C       2.0292772948    -2.9783879863    -0.4969816256
   20      S       0.2313916060     0.2948087203    -1.6413960478
   21      C       1.7613813266    -1.7665442211    -1.0283369107
   22      C       3.1755456419    -3.8091961783    -0.6573082441
   23      C       1.9022470874     0.2264863494    -2.2681320480
   24      C       2.5971929869    -0.8464094936    -1.7169064074
   25      N       3.3484581339    -4.6832339580     0.2989638039
   26      S       4.2719458415    -3.7485438934    -2.0061084156
   27      C       4.5836540417    -5.2651624168     0.0779019616
   28      C       5.2067961163    -4.9330445594    -1.0771788510
   29      C     -10.2241920702    -0.5537569829     0.0713932669
   30      H      -8.6516820048    -0.7206484359    -2.1188088556
   31      H      -6.1319866876    -0.8850506761    -2.0956267134
   32      H      -6.3812736896    -1.5490408548     2.1428003572
   33      H      -4.1473547992    -0.2602858590    -1.6714614261
   34      H       2.1940954924     1.0425202083    -2.9167893146
   35      H       3.5929399981    -1.1011139513    -2.0614416434
   36      H       4.8818472953    -6.0243179101     0.7896994894
   37      H       6.1317106353    -5.2845729152    -1.5132831362
   38      H     -10.7182446012    -1.2409591515    -0.6258558106
   39      C     -10.4620003646     0.9500422829    -0.3229010187
   40      H     -10.6173438054    -0.7153518255     1.0821295430
   41      H     -10.0641970040     1.0274747215    -1.3423580819
   42      H      -9.7413385747     1.6373768454     0.1389288025
   43      C     -11.8928026083     1.5554803271    -0.2850234026
   44      H     -12.1850139246     1.9473297621     0.6963962665
   45      C     -13.0758877819     0.5405796616    -0.5442648174
   46      H     -11.9485789540     2.3634343006    -1.0259885678
   47      H     -14.0675117453     0.9798821900    -0.3854970509
   48      H     -13.0948444819    -0.2866652262     0.1758237459
   49      C     -13.0760547672    -0.0040794614    -1.9694751218
   50      H     -13.1355984954     0.7924695299    -2.7203767458
   51      C     -14.1414087515    -0.9918161013    -2.3091620635
   52      H     -12.1575351012    -0.5738708456    -2.1558548462
   53      H     -14.2767793403    -1.7857087692    -1.5629883333
   54      H     -13.9331927534    -1.4702663807    -3.2730580269
   55      H     -15.0735642084    -0.4403434107    -2.4806265659
   56      C      -2.3772680797     2.4774679667     1.5930187769
   57      C      -1.7596573017     3.1458805970     0.4868892716
   58      N      -1.7046421006     1.7490886794     2.4971752379
   59      C      -0.3723918386     3.0542546819     0.3520959981
   60      C      -0.3877953312     1.5697952940     2.2722230923
   61      C       0.3768180798     2.2082555623     1.2550378499
   62      C       1.8992391771     2.0097771382     1.2007026143
   63      C       2.4756716070     0.7326271053     1.4152893038
   64      C       2.7416846776     3.1213495775     0.9733300329
   65      N       3.8104558828     0.5362130577     1.0721545504
   66      N       2.4788122216     4.4292162022     0.9643877787
   67      C       4.1402503250     2.8506030248     0.7970023996
   68      C       4.6386522069     1.5328599714     0.8598180765
   69      S       3.8554613455     5.2562310710     0.5756724631
   70      N       4.9228630883     3.9489651576     0.5857397952
   71      C       6.0574896309     1.2062351504     0.5780121316
   72      S       7.4425555669     2.2929311298     0.1167993810
   73      C       6.5453698684    -0.0849058232     0.4541660172
   74      C       8.5304042013     0.9344023844    -0.1774046242
   75      S       5.7902340822    -1.5789985222     0.9264656585
   76      C       7.8806988685    -0.2142828129     0.1372369147
   77      C       9.9068531805     1.0444139369    -0.6694601757
   78      C       7.2382431750    -2.4649631846     0.3989343476
   79      C       8.2511348747    -1.5398921355     0.1227424599
   80      N      10.3341128331     2.2766105395    -0.7859836576
   81      S      10.8891697048    -0.1311149735    -1.3905295392
   82      C      11.6394917471     2.2587073887    -1.1697900775
   83      C      12.1955918097     1.0560307950    -1.5576079877
   84      C      -3.8427712030     2.7977274490     1.7866045711
   85      H      -2.3752038746     3.7955436686    -0.1299699588
   86      H       0.2285314435     3.6807242503    -0.3009316345
   87      H       0.1448162510     0.9381773370     2.9813328574
   88      H       1.8058426378    -0.1092868135     1.5812956452
   89      H       7.1593299664    -3.5428435328     0.3558105663
   90      H       9.2235026598    -1.8484387867    -0.2461326605
   91      H      12.1029482689     3.2357263094    -1.1611251521
   92      H      13.1480133822     0.8157350689    -2.0106434302
   93      H      -4.1960711888     2.1625587818     2.6085375879
   94      C      -4.8027381238     2.4806604619     0.5395512296
   95      H      -4.0235645087     3.8494093148     2.0405888891
   96      H      -4.8702791593     1.3913113062     0.4321146180
   97      H      -4.4302534555     2.9178098584    -0.3949842577
   98      C      -6.2346675586     2.9397446437     0.9238711588
   99      H      -6.6536906311     2.2791122605     1.6928695457
  100      C      -7.2783180923     2.9758328791    -0.2522777275
  101      H      -6.2703684143     3.9697612005     1.3021929022
  102      H      -8.2392605478     3.3715074151     0.0985089010
  103      H      -7.3916394175     1.9288644541    -0.5604779780
  104      C      -6.7308599550     3.8377542197    -1.5107423438
  105      H      -6.7347566268     4.8165124028    -1.0174115877
  106      C      -7.6514250563     3.7943821233    -2.7474224784
  107      H      -5.7297533149     3.5389089492    -1.8468003737
  108      H      -7.3091157350     4.5228961940    -3.4935937572
  109      H      -8.6159091608     4.2275605457    -2.4554483931
  110      H      -7.6561177281     2.8406995563    -3.2911361349
 ----------------------------------------------------------------

    9   -5663.4909201422      8.35E-06 Convergence criterion met
 Total energy in the final basis set = -5663.4909201422

                    Orbital Energies (a.u.)
 --------------------------------------------------------------

 Alpha MOs
 -- Occupied --
-88.990 -88.984 -88.930 -88.929 -88.921 -88.916 -88.903 -88.901
-14.397 -14.388 -14.384 -14.380 -14.356 -14.349 -14.341 -14.337
-14.327 -14.324 -10.271 -10.267 -10.267 -10.261 -10.259 -10.258
-10.256 -10.252 -10.245 -10.245 -10.241 -10.239 -10.237 -10.234
-10.232 -10.231 -10.230 -10.229 -10.229 -10.228 -10.227 -10.227
-10.226 -10.225 -10.222 -10.222 -10.221 -10.221 -10.214 -10.214
-10.213 -10.209 -10.202 -10.200 -10.199 -10.198 -10.197 -10.196
-10.186 -10.185 -10.185 -10.184 -10.184 -10.183 -10.179 -10.178
-10.178 -10.176 -10.173 -10.169  -8.046  -8.039  -7.991  -7.991
 -7.978  -7.974  -7.963  -7.961  -6.011  -6.005  -6.005  -6.004
 -5.999  -5.997  -5.955  -5.955  -5.952  -5.952  -5.948  -5.947
 -5.943  -5.939  -5.939  -5.935  -5.935  -5.931  -5.927  -5.925
 -5.924  -5.922  -5.919  -5.918  -1.053  -1.021  -0.980  -0.977
 -0.954  -0.943  -0.938  -0.932  -0.920  -0.914  -0.913  -0.895
 -0.838  -0.838  -0.833  -0.824  -0.810  -0.809  -0.809  -0.806
 -0.799  -0.797  -0.796  -0.789  -0.788  -0.777  -0.767  -0.763
 -0.749  -0.748  -0.740  -0.738  -0.719  -0.718  -0.710  -0.705
 -0.692  -0.689  -0.675  -0.671  -0.660  -0.650  -0.648  -0.643
 -0.639  -0.631  -0.625  -0.621  -0.612  -0.607  -0.604  -0.603
 -0.596  -0.595  -0.587  -0.584  -0.579  -0.572  -0.559  -0.554
 -0.547  -0.543  -0.539  -0.533  -0.528  -0.523  -0.523  -0.518
 -0.511  -0.498  -0.497  -0.495  -0.486  -0.484  -0.478  -0.475
 -0.475  -0.467  -0.465  -0.463  -0.461  -0.459  -0.455  -0.450
 -0.449  -0.447  -0.445  -0.440  -0.437  -0.436  -0.434  -0.433
 -0.425  -0.425  -0.424  -0.419  -0.417  -0.415  -0.413  -0.413
 -0.412  -0.408  -0.407  -0.404  -0.401  -0.399  -0.397  -0.395
 -0.395  -0.391  -0.389  -0.387  -0.385  -0.385  -0.384  -0.382
 -0.382  -0.378  -0.370  -0.368  -0.367  -0.363  -0.362  -0.354
 -0.352  -0.349  -0.347  -0.345  -0.343  -0.343  -0.342  -0.338
 -0.336  -0.333  -0.332  -0.329  -0.328  -0.327  -0.323  -0.321
 -0.317  -0.309  -0.306  -0.304  -0.303  -0.299  -0.299  -0.298
 -0.297  -0.296  -0.295  -0.291  -0.288  -0.286  -0.280  -0.279
 -0.277  -0.269  -0.266  -0.263  -0.255  -0.251  -0.249  -0.246
 -0.242  -0.241  -0.232  -0.228  -0.193  -0.191

          Ground-State Mulliken Net Atomic Charges

     Atom                 Charge (a.u.)
  ----------------------------------------
      1 C                     0.268107
      2 C                    -0.112285
      3 N                    -0.486578
      4 C                    -0.097063
      5 C                     0.082905
      6 C                     0.051271
      7 C                     0.041280
      8 C                     0.063021
      9 C                     0.265099
     10 N                    -0.525233
     11 N                    -0.553912
     12 C                     0.203192
     13 C                     0.278435
     14 S                     0.607562
     15 N                    -0.537085
     16 C                    -0.232899
     17 S                     0.330771
     18 C                    -0.140190
     19 C                    -0.227296
     20 S                     0.276212
     21 C                     0.166362
     22 C                     0.082510
     23 C                    -0.303729
     24 C                    -0.069091
     25 N                    -0.432280
     26 S                     0.279501
     27 C                     0.123178
     28 C                    -0.311252
     29 C                    -0.220934
     30 H                     0.096773
     31 H                     0.096877
     32 H                     0.118117
     33 H                     0.121227
     34 H                     0.131809
     35 H                     0.103861
     36 H                     0.114798
     37 H                     0.131903
     38 H                     0.107881
     39 C                    -0.193076
     40 H                     0.121350
     41 H                     0.094750
     42 H                     0.112307
     43 C                    -0.188700
     44 H                     0.095654
     45 C                    -0.176458
     46 H                     0.096676
     47 H                     0.086041
     48 H                     0.093365
     49 C                    -0.164456
     50 H                     0.089263
     51 C                    -0.318827
     52 H                     0.086411
     53 H                     0.100414
     54 H                     0.097245
     55 H                     0.098516
     56 C                     0.277927
     57 C                    -0.104731
     58 N                    -0.486108
     59 C                    -0.060534
     60 C                     0.063608
     61 C                     0.050216
     62 C                     0.002011
     63 C                     0.066627
     64 C                     0.287601
     65 N                    -0.540303
     66 N                    -0.570065
     67 C                     0.186210
     68 C                     0.341121
     69 S                     0.589474
     70 N                    -0.571739
     71 C                    -0.227850
     72 S                     0.352027
     73 C                    -0.141987
     74 C                    -0.247091
     75 S                     0.289728
     76 C                     0.208784
     77 C                     0.064376
     78 C                    -0.315721
     79 C                    -0.099034
     80 N                    -0.418253
     81 S                     0.272460
     82 C                     0.123029
     83 C                    -0.319923
     84 C                    -0.244982
     85 H                     0.093351
     86 H                     0.103707
     87 H                     0.095696
     88 H                     0.138033
     89 H                     0.129616
     90 H                     0.095869
     91 H                     0.110724
     92 H                     0.143013
     93 H                     0.115315
     94 C                    -0.193265
     95 H                     0.116340
     96 H                     0.111098
     97 H                     0.095143
     98 C                    -0.184458
     99 H                     0.105531
    100 C                    -0.199727
    101 H                     0.084946
    102 H                     0.093792
    103 H                     0.098171
    104 C                    -0.176260
    105 H                     0.095068
    106 C                    -0.318708
    107 H                     0.092578
    108 H                     0.098112
    109 H                     0.103180
    110 H                     0.102952
  ----------------------------------------
  Sum of atomic charges =     0.000000

                    Cartesian Multipole Moments
 -----------------------------------------------------------------
    Charge (ESU x 10^10)
                 0.0000
    Dipole Moment (Debye)
         X       1.8113      Y      -0.5042      Z      -5.0658
       Tot       5.4035
    Quadrupole Moments (Debye-Ang)
        XX    -390.6060     XY     -22.9548     YY    -431.2094
        XZ      -5.0691     YZ      -4.5746     ZZ    -447.4018

 Total job time:  96.45s(wall), 1179.46s(cpu)
        *  Thank you very much for using Q-Chem.  Have a nice day.  *
