 Q-Chem 4.4, Q-Chem, Inc., Pleasanton, CA (2016)
 Q-Chem 4.4.2 for Intel X86 Linux

User input:
--------------------------------------------------------------
$comment
SP
$end

$rem
MEM_STATIC 5000
MEM_TOTAL 20000
JOBTYPE SP
EXCHANGE B3LYP
BASIS 6-31g(d,p)
$end

$molecule
0 1
C          10.431000    -16.374000     -9.547000
C          11.006000    -17.363000     -8.768000
N           9.123000    -16.105000     -9.428000
C          10.253000    -18.102000     -7.832000
C           8.354000    -16.776000     -8.545000
C           8.884000    -17.796000     -7.692000
C           7.963000    -18.571000     -6.845000
C           8.252000    -19.928000     -6.556000
C           6.703000    -18.158000     -6.273000
N           7.536000    -20.755000     -5.813000
N           6.274000    -16.874000     -6.293000
C           5.949000    -19.003000     -5.472000
C           6.438000    -20.289000     -5.241000
S           4.944000    -16.891000     -5.380000
N           4.926000    -18.462000     -4.877000
C           5.808000    -21.365000     -4.414000
S           6.772000    -22.552000     -3.515000
C           4.456000    -21.545000     -4.182000
C           5.293000    -23.299000     -2.847000
S           3.069000    -20.868000     -4.955000
C           4.216000    -22.579000     -3.286000
C           5.263000    -24.445000     -1.969000
C           2.029000    -21.875000     -3.914000
C           2.792000    -22.745000     -3.088000
N           4.140000    -24.815000     -1.425000
S           6.647000    -25.349000     -1.397000
C           4.350000    -25.943000     -0.674000
C           5.650000    -26.311000     -0.522000
C          11.185000    -15.569000    -10.614000
H          12.030000    -17.670000     -8.955000
H          10.681000    -18.937000     -7.286000
H           7.278000    -16.606000     -8.546000
H           9.081000    -20.400000     -7.080000
H           0.949000    -21.808000     -3.898000
H           2.376000    -23.463000     -2.391000
H           3.566000    -26.477000     -0.154000
H           6.134000    -27.077000      0.069000
H          11.073000    -16.201000    -11.504000
C          12.673000    -15.365000    -10.195000
H          10.650000    -14.631000    -10.808000
H          13.162000    -16.294000     -9.873000
H          12.661000    -14.606000     -9.404000
C          13.658000    -14.548000    -11.150000
H          13.710000    -15.137000    -12.074000
C          15.129000    -14.315000    -10.775000
H          13.086000    -13.635000    -11.360000
H          15.669000    -15.198000    -10.411000
H          15.067000    -13.551000     -9.988000
C          16.007000    -13.616000    -11.874000
H          17.017000    -13.543000    -11.452000
C          15.621000    -12.178000    -12.209000
H          16.022000    -14.158000    -12.827000
H          15.660000    -11.622000    -11.265000
H          14.565000    -12.137000    -12.506000
H          16.356000    -11.821000    -12.940000
C          13.047000    -20.784000     -6.707000
C          14.297000    -21.288000     -6.222000
N          12.927000    -19.990000     -7.782000
C          15.459000    -20.953000     -6.921000
C          14.072000    -19.577000     -8.361000
C          15.381000    -20.030000     -8.032000
C          16.585000    -19.570000     -8.868000
C          16.705000    -18.223000     -9.293000
C          17.568000    -20.509000     -9.254000
N          17.931000    -17.785000     -9.786000
N          17.580000    -21.841000     -9.181000
C          18.734000    -19.994000     -9.914000
C          18.875000    -18.614000    -10.168000
S          19.034000    -22.401000     -9.731000
N          19.658000    -20.931000    -10.277000
C          20.110000    -18.036000    -10.751000
S          21.656000    -18.847000    -11.265000
C          20.357000    -16.676000    -10.850000
C          22.467000    -17.310000    -11.574000
S          19.236000    -15.356000    -10.687000
C          21.579000    -16.305000    -11.369000
C          23.864000    -17.160000    -11.992000
C          20.547000    -14.212000    -11.051000
C          21.663000    -14.936000    -11.485000
N          24.473000    -18.294000    -12.232000
S          24.873000    -15.803000    -11.907000
C          25.729000    -18.035000    -12.687000
C          26.200000    -16.739000    -12.619000
C          11.826000    -21.360000     -6.025000
H          14.280000    -22.007000     -5.407000
H          16.422000    -21.438000     -6.789000
H          13.972000    -18.894000     -9.203000
H          15.939000    -17.517000     -8.977000
H          20.333000    -13.163000    -10.897000
H          22.599000    -14.449000    -11.737000
H          26.251000    -18.917000    -13.032000
H          27.181000    -16.319000    -12.796000
H          10.958000    -20.831000     -6.438000
C          11.749000    -21.160000     -4.434000
H          11.706000    -22.437000     -6.195000
H          11.580000    -20.095000     -4.234000
H          12.666000    -21.486000     -3.928000
C          10.465000    -21.875000     -3.935000
H           9.572000    -21.330000     -4.265000
C          10.338000    -22.040000     -2.376000
H          10.383000    -22.911000     -4.289000
H           9.436000    -22.610000     -2.122000
H          10.258000    -21.016000     -1.990000
C          11.654000    -22.740000     -1.740000
H          11.521000    -23.725000     -2.202000
C          11.647000    -22.803000     -0.199000
H          12.595000    -22.259000     -2.036000
H          12.477000    -23.429000      0.153000
H          10.783000    -23.408000      0.102000
H          11.807000    -21.842000      0.307000
$end

--------------------------------------------------------------

             Standard Nuclear Orientation (Angstroms)
    I     Atom           X                Y                Z
 ----------------------------------------------------------------
    1      C      -0.3828167598    -4.3103101659     0.6680850893
    2      C      -0.4903331434    -2.9487244781     0.4442287915
    3      N      -1.4877514352    -5.0670629751     0.7299765182
    4      C      -1.7415043081    -2.3224270159     0.2666106464
    5      C      -2.7115050124    -4.5235161161     0.5618248178
    6      C      -2.8980147511    -3.1276338875     0.3056297333
    7      C      -4.2652582809    -2.5847793426     0.2584166711
    8      C      -4.5074820966    -1.2588551593     0.6963021392
    9      C      -5.4850251232    -3.2505126746    -0.1344204214
   10      N      -5.6674566289    -0.6241935340     0.7135562985
   11      N      -5.4989227784    -4.4726350342    -0.7169329048
   12      C      -6.7075626034    -2.5952068902    -0.1453033592
   13      C      -6.7333990634    -1.2587972630     0.2542210902
   14      S      -7.0419927502    -4.6901025722    -1.1345462811
   15      N      -7.6985600577    -3.2461610421    -0.6814169083
   16      C      -7.9227644725    -0.3533722837     0.3191866992
   17      S      -7.8004695992     1.3900375213     0.0158185798
   18      C      -9.2355634445    -0.7274796721     0.5444210685
   19      C      -9.5635815692     1.5857961009     0.2274521303
   20      S      -9.9141738671    -2.2058450133     1.1219596492
   21      C     -10.1074499364     0.3488698766     0.4402212889
   22      C     -10.2771383567     2.8387585976     0.1498525628
   23      C     -11.5301175307    -1.4537950828     1.0721904021
   24      C     -11.4638270479    -0.0826980722     0.7019964538
   25      N     -11.5784270714     2.8456568732     0.1736242853
   26      S      -9.5758876898     4.4145892128    -0.1414571939
   27      C     -12.0257575818     4.1413094813     0.1328231384
   28      C     -11.0711600777     5.0830042240    -0.0918602319
   29      C       0.9434598212    -5.0417181779     0.9151938722
   30      H       0.3890534936    -2.3177490026     0.5238723219
   31      H      -1.8336636773    -1.2441374341     0.1810347826
   32      H      -3.5917286457    -5.1454058622     0.7203697610
   33      H      -3.6954772893    -0.7216245835     1.1827510074
   34      H     -12.4489355015    -1.9887702386     1.2739826699
   35      H     -12.3162007507     0.5823337465     0.6272920297
   36      H     -13.0690955325     4.4220157667     0.1863198860
   37      H     -11.1158310009     6.1500431621    -0.2642708267
   38      H       1.0595119946    -4.9512106817     2.0025798599
   39      C       2.0995206249    -4.3611734007     0.1203962727
   40      H       0.8197260525    -6.1074488135     0.6858182700
   41      H       2.1309535236    -3.2714757736     0.2523699615
   42      H       1.9536327598    -4.6487835890    -0.9274124457
   43      C       3.5797324858    -4.9522632877     0.2169602005
   44      H       3.8632707737    -4.8355667532     1.2702355483
   45      C       4.7479368570    -4.3202875813    -0.5541819741
   46      H       3.4242719365    -6.0213483332     0.0226867254
   47      H       4.8176301102    -3.2270453113    -0.4929513470
   48      H       4.5620654621    -4.6360957972    -1.5898585623
   49      C       6.1661350457    -4.9244053050    -0.2524508463
   50      H       6.8738850645    -4.3546606585    -0.8672629710
   51      C       6.3665222017    -6.3771866860    -0.6747496113
   52      H       6.4429980693    -4.8735358672     0.8072458869
   53      H       6.1438189340    -6.4184166907    -1.7473615361
   54      H       5.5961327001    -7.0075982067    -0.2120322781
   55      H       7.4107035413    -6.6250010475    -0.4504543324
   56      C      -0.5445738470     1.5276309656     0.1686514205
   57      C       0.1868229462     2.6898203137    -0.2389214566
   58      N       0.0295399842     0.4066078015     0.6314271483
   59      C       1.5789866289     2.6654959885    -0.1277521810
   60      C       1.3764636642     0.3612989951     0.6073707099
   61      C       2.2396248155     1.4463755021     0.2841172475
   62      C       3.7607253427     1.2861696218     0.4279896283
   63      C       4.4110184029     0.0979299538     0.0100908040
   64      C       4.5197424312     2.3199947711     1.0213736692
   65      N       5.7974151667     0.1042561831    -0.1157384144
   66      N       4.1387529147     3.4132322422     1.6842279669
   67      C       5.9471896984     2.1702948835     1.0022623361
   68      C       6.5508457577     1.0346834254     0.4236579995
   69      S       5.4763896877     4.2923737050     2.0941720509
   70      N       6.6460355427     3.1851869645     1.5897336544
   71      C       8.0215751325     0.8973545744     0.2921517527
   72      S       9.3551175435     2.0320936091     0.7882011060
   73      C       8.6443611977    -0.1115859093    -0.4251951768
   74      C      10.6018405120     1.0523347663     0.0127493345
   75      S       7.9654772928    -1.6009228646    -1.0139243822
   76      C      10.0204072335    -0.0643845428    -0.4926884235
   77      C      12.0253816245     1.3951837773    -0.0566643296
   78      C       9.5602713062    -2.0647339796    -1.6475364911
   79      C      10.5125799144    -1.1610571529    -1.1633211386
   80      N      12.3467749931     2.4740646207     0.6120354747
   81      S      13.2243100539     0.8077282234    -1.0979239482
   82      C      13.6942788862     2.6515708368     0.5459536974
   83      C      14.4207537023     1.8624681841    -0.3233174600
   84      C      -2.0453388807     1.7098508051     0.2159931953
   85      H      -0.3730402525     3.5838793218    -0.5010029111
   86      H       2.2203809845     3.5396822578    -0.1943077742
   87      H       1.8374737843    -0.5680023286     0.9380090607
   88      H       3.8060590673    -0.6810787566    -0.4505800452
   89      H       9.5930959943    -2.9323973674    -2.2925138437
   90      H      11.5587045153    -1.2270182873    -1.4426801335
   91      H      14.0540556972     3.4483360502     1.1824745855
   92      H      15.4552301667     1.9004956692    -0.6371683082
   93      H      -2.4720309077     0.7296917941     0.4630887788
   94      C      -2.7427355102     2.1614048927    -1.1576686434
   95      H      -2.3664592676     2.4422782059     0.9667666630
   96      H      -2.6866453814     1.3200294613    -1.8589013302
   97      H      -2.2590481660     3.0401596701    -1.6015578123
   98      C      -4.2565035740     2.3513544083    -0.8725240652
   99      H      -4.7361430729     1.3808443141    -0.6952386788
  100      C      -5.0817949494     3.0573008819    -2.0102273315
  101      H      -4.4545878555     2.9937641707    -0.0045331006
  102      H      -6.1219274889     3.2053828290    -1.6952415587
  103      H      -5.0402374918     2.3641671658    -2.8598217226
  104      C      -4.4115439171     4.4662791962    -2.4482863040
  105      H      -4.5932592104     5.0013154710    -1.5090984970
  106      C      -5.0981883604     5.1381401366    -3.6548604979
  107      H      -3.3437871879     4.3895002649    -2.6900683605
  108      H      -4.7041594582     6.1534426041    -3.7911767613
  109      H      -6.1352935360     5.3502680236    -3.3675686352
  110      H      -4.9186543131     4.6522213909    -4.6227486621
 ----------------------------------------------------------------

   10   -5663.5030302155      3.15E-06 Convergence criterion met
 Total energy in the final basis set = -5663.5030302155

                    Orbital Energies (a.u.)
 --------------------------------------------------------------

 Alpha MOs
 -- Occupied --
-88.991 -88.987 -88.933 -88.925 -88.921 -88.919 -88.907 -88.907
-14.394 -14.387 -14.385 -14.384 -14.355 -14.344 -14.342 -14.341
-14.339 -14.319 -10.270 -10.268 -10.263 -10.263 -10.258 -10.257
-10.255 -10.254 -10.251 -10.243 -10.243 -10.239 -10.237 -10.237
-10.236 -10.235 -10.235 -10.232 -10.230 -10.229 -10.226 -10.226
-10.226 -10.225 -10.224 -10.223 -10.222 -10.221 -10.220 -10.218
-10.208 -10.208 -10.202 -10.202 -10.202 -10.201 -10.195 -10.193
-10.191 -10.189 -10.188 -10.186 -10.182 -10.181 -10.179 -10.178
-10.176 -10.176 -10.173 -10.170  -8.045  -8.043  -7.994  -7.983
 -7.983  -7.979  -7.967  -7.967  -6.011  -6.008  -6.005  -6.003
 -6.002  -6.001  -5.958  -5.955  -5.951  -5.947  -5.947  -5.944
 -5.944  -5.943  -5.940  -5.940  -5.940  -5.936  -5.932  -5.931
 -5.928  -5.927  -5.923  -5.923  -1.050  -1.027  -0.984  -0.980
 -0.968  -0.961  -0.946  -0.930  -0.918  -0.917  -0.906  -0.901
 -0.843  -0.837  -0.833  -0.830  -0.824  -0.813  -0.806  -0.805
 -0.804  -0.798  -0.798  -0.788  -0.782  -0.781  -0.769  -0.761
 -0.752  -0.745  -0.742  -0.736  -0.723  -0.719  -0.710  -0.708
 -0.694  -0.689  -0.677  -0.674  -0.655  -0.655  -0.651  -0.646
 -0.636  -0.635  -0.631  -0.623  -0.611  -0.608  -0.606  -0.600
 -0.593  -0.592  -0.590  -0.581  -0.580  -0.574  -0.555  -0.554
 -0.550  -0.547  -0.543  -0.540  -0.529  -0.523  -0.523  -0.514
 -0.508  -0.504  -0.501  -0.499  -0.494  -0.483  -0.481  -0.476
 -0.473  -0.472  -0.469  -0.464  -0.463  -0.461  -0.460  -0.455
 -0.449  -0.444  -0.442  -0.441  -0.439  -0.437  -0.435  -0.432
 -0.430  -0.428  -0.425  -0.424  -0.420  -0.418  -0.418  -0.414
 -0.413  -0.411  -0.408  -0.403  -0.402  -0.401  -0.399  -0.397
 -0.394  -0.394  -0.393  -0.391  -0.388  -0.386  -0.382  -0.379
 -0.377  -0.373  -0.372  -0.370  -0.367  -0.367  -0.358  -0.356
 -0.351  -0.350  -0.348  -0.348  -0.345  -0.342  -0.341  -0.340
 -0.338  -0.337  -0.333  -0.332  -0.332  -0.328  -0.323  -0.317
 -0.316  -0.312  -0.312  -0.308  -0.306  -0.304  -0.302  -0.301
 -0.297  -0.294  -0.291  -0.290  -0.288  -0.282  -0.282  -0.280
 -0.276  -0.273  -0.270  -0.264  -0.261  -0.258  -0.248  -0.248
 -0.242  -0.239  -0.237  -0.224  -0.198  -0.188

          Ground-State Mulliken Net Atomic Charges

     Atom                 Charge (a.u.)
  ----------------------------------------
      1 C                     0.278564
      2 C                    -0.117612
      3 N                    -0.503159
      4 C                    -0.064090
      5 C                     0.090158
      6 C                     0.030997
      7 C                     0.060794
      8 C                     0.032330
      9 C                     0.178883
     10 N                    -0.491641
     11 N                    -0.524869
     12 C                     0.255740
     13 C                     0.253827
     14 S                     0.598345
     15 N                    -0.560159
     16 C                    -0.230383
     17 S                     0.317493
     18 C                    -0.095155
     19 C                    -0.239447
     20 S                     0.267718
     21 C                     0.151607
     22 C                     0.068501
     23 C                    -0.308147
     24 C                    -0.060906
     25 N                    -0.443318
     26 S                     0.265142
     27 C                     0.113442
     28 C                    -0.300545
     29 C                    -0.217856
     30 H                     0.084123
     31 H                     0.111351
     32 H                     0.116551
     33 H                     0.114606
     34 H                     0.130227
     35 H                     0.128987
     36 H                     0.107874
     37 H                     0.141000
     38 H                     0.120756
     39 C                    -0.196293
     40 H                     0.122570
     41 H                     0.087692
     42 H                     0.107336
     43 C                    -0.186958
     44 H                     0.086387
     45 C                    -0.187376
     46 H                     0.093225
     47 H                     0.106479
     48 H                     0.086589
     49 C                    -0.177268
     50 H                     0.096353
     51 C                    -0.314939
     52 H                     0.095038
     53 H                     0.097036
     54 H                     0.106626
     55 H                     0.103422
     56 C                     0.286078
     57 C                    -0.106641
     58 N                    -0.499575
     59 C                    -0.070537
     60 C                     0.075131
     61 C                     0.036975
     62 C                    -0.007268
     63 C                     0.063739
     64 C                     0.293016
     65 N                    -0.545855
     66 N                    -0.571235
     67 C                     0.186110
     68 C                     0.342991
     69 S                     0.596725
     70 N                    -0.568643
     71 C                    -0.227884
     72 S                     0.357100
     73 C                    -0.145049
     74 C                    -0.244334
     75 S                     0.298753
     76 C                     0.205018
     77 C                     0.064496
     78 C                    -0.321732
     79 C                    -0.095934
     80 N                    -0.417648
     81 S                     0.278289
     82 C                     0.123475
     83 C                    -0.319430
     84 C                    -0.249998
     85 H                     0.102092
     86 H                     0.112423
     87 H                     0.096663
     88 H                     0.130525
     89 H                     0.139418
     90 H                     0.099910
     91 H                     0.112123
     92 H                     0.145103
     93 H                     0.107329
     94 C                    -0.189305
     95 H                     0.123718
     96 H                     0.104865
     97 H                     0.099438
     98 C                    -0.189153
     99 H                     0.120596
    100 C                    -0.193625
    101 H                     0.088216
    102 H                     0.102137
    103 H                     0.086022
    104 C                    -0.177194
    105 H                     0.093653
    106 C                    -0.317654
    107 H                     0.091977
    108 H                     0.095658
    109 H                     0.103538
    110 H                     0.107749
  ----------------------------------------
  Sum of atomic charges =     0.000000

                    Cartesian Multipole Moments
 -----------------------------------------------------------------
    Charge (ESU x 10^10)
                 0.0000
    Dipole Moment (Debye)
         X       2.8498      Y       3.3492      Z      -2.0811
       Tot       4.8651
    Quadrupole Moments (Debye-Ang)
        XX    -366.9423     XY     -13.1920     YY    -427.1511
        XZ     -11.6501     YZ       3.1580     ZZ    -452.9756

 Total job time:  94.09s(wall), 1120.37s(cpu)
        *  Thank you very much for using Q-Chem.  Have a nice day.  *
