 Q-Chem 4.4, Q-Chem, Inc., Pleasanton, CA (2016)
 Q-Chem 4.4.2 for Intel X86 Linux

User input:
--------------------------------------------------------------
$comment
SP
$end

$rem
MEM_STATIC 5000
MEM_TOTAL 20000
JOBTYPE SP
EXCHANGE B3LYP
BASIS 6-31g(d,p)
$end

$molecule
0 1
C          21.335000    -21.394000    -16.758000
C          20.975000    -22.681000    -16.414000
N          22.107000    -20.655000    -15.904000
C          21.499000    -23.268000    -15.300000
C          22.600000    -21.181000    -14.819000
C          22.320000    -22.496000    -14.414000
C          22.813000    -23.047000    -13.119000
C          22.051000    -23.952000    -12.289000
C          24.059000    -22.662000    -12.579000
N          22.581000    -24.427000    -11.143000
N          24.928000    -21.824000    -13.128000
C          24.531000    -23.229000    -11.390000
C          23.804000    -24.140000    -10.598000
S          26.133000    -21.578000    -12.041000
N          25.680000    -22.646000    -10.952000
C          24.213000    -24.651000     -9.227000
S          25.759000    -24.430000     -8.368000
C          23.420000    -25.544000     -8.491000
C          25.157000    -25.294000     -6.950000
S          21.874000    -26.289000     -8.862000
C          23.950000    -25.834000     -7.199000
C          25.936000    -25.465000     -5.800000
C          21.935000    -27.054000     -7.286000
C          23.098000    -26.735000     -6.605000
N          26.974000    -24.610000     -5.668000
S          25.845000    -26.753000     -4.671000
C          27.635000    -24.964000     -4.487000
C          27.206000    -26.096000     -3.869000
C          20.805000    -20.659000    -17.984000
H          20.463000    -23.202000    -17.218000
H          21.380000    -24.345000    -15.221000
H          23.191000    -20.493000    -14.216000
H          21.084000    -24.367000    -12.572000
H          21.093000    -27.617000     -6.906000
H          23.282000    -27.141000     -5.616000
H          28.480000    -24.340000     -4.229000
H          27.534000    -26.623000     -2.984000
H          21.603000    -20.036000    -18.405000
C          19.627000    -19.726000    -17.699000
H          20.437000    -21.361000    -18.742000
H          19.447000    -19.079000    -18.565000
H          19.720000    -19.196000    -16.742000
C          18.274000    -20.532000    -17.529000
H          17.853000    -20.854000    -18.490000
C          17.142000    -19.661000    -16.937000
H          18.492000    -21.390000    -16.881000
H          17.148000    -18.628000    -17.305000
H          17.190000    -19.491000    -15.853000
C          15.791000    -20.475000    -17.117000
H          15.003000    -19.825000    -16.716000
C          15.657000    -21.750000    -16.286000
H          15.650000    -20.639000    -18.192000
H          15.690000    -21.533000    -15.211000
H          16.547000    -22.386000    -16.369000
H          14.798000    -22.347000    -16.619000
C          13.047000    -20.784000     -6.707000
C          14.297000    -21.288000     -6.222000
N          12.927000    -19.990000     -7.782000
C          15.459000    -20.953000     -6.921000
C          14.072000    -19.577000     -8.361000
C          15.381000    -20.030000     -8.032000
C          16.585000    -19.570000     -8.868000
C          16.705000    -18.223000     -9.293000
C          17.568000    -20.509000     -9.254000
N          17.931000    -17.785000     -9.786000
N          17.580000    -21.841000     -9.181000
C          18.734000    -19.994000     -9.914000
C          18.875000    -18.614000    -10.168000
S          19.034000    -22.401000     -9.731000
N          19.658000    -20.931000    -10.277000
C          20.110000    -18.036000    -10.751000
S          21.656000    -18.847000    -11.265000
C          20.357000    -16.676000    -10.850000
C          22.467000    -17.310000    -11.574000
S          19.236000    -15.356000    -10.687000
C          21.579000    -16.305000    -11.369000
C          23.864000    -17.160000    -11.992000
C          20.547000    -14.212000    -11.051000
C          21.663000    -14.936000    -11.485000
N          24.473000    -18.294000    -12.232000
S          24.873000    -15.803000    -11.907000
C          25.729000    -18.035000    -12.687000
C          26.200000    -16.739000    -12.619000
C          11.826000    -21.360000     -6.025000
H          14.280000    -22.007000     -5.407000
H          16.422000    -21.438000     -6.789000
H          13.972000    -18.894000     -9.203000
H          15.939000    -17.517000     -8.977000
H          20.333000    -13.163000    -10.897000
H          22.599000    -14.449000    -11.737000
H          26.251000    -18.917000    -13.032000
H          27.181000    -16.319000    -12.796000
H          10.958000    -20.831000     -6.438000
C          11.749000    -21.160000     -4.434000
H          11.706000    -22.437000     -6.195000
H          11.580000    -20.095000     -4.234000
H          12.666000    -21.486000     -3.928000
C          10.465000    -21.875000     -3.935000
H           9.572000    -21.330000     -4.265000
C          10.338000    -22.040000     -2.376000
H          10.383000    -22.911000     -4.289000
H           9.436000    -22.610000     -2.122000
H          10.258000    -21.016000     -1.990000
C          11.654000    -22.740000     -1.740000
H          11.521000    -23.725000     -2.202000
C          11.647000    -22.803000     -0.199000
H          12.595000    -22.259000     -2.036000
H          12.477000    -23.429000      0.153000
H          10.783000    -23.408000      0.102000
H          11.807000    -21.842000      0.307000
$end

--------------------------------------------------------------

             Standard Nuclear Orientation (Angstroms)
    I     Atom           X                Y                Z
 ----------------------------------------------------------------
    1      C      -4.0610496784     4.2600374872     3.2289141216
    2      C      -3.5963495356     3.3902621629     4.1942377268
    3      N      -4.2822604126     3.8060695921     1.9575369308
    4      C      -3.4925699668     2.0568569379     3.9270274970
    5      C      -4.1655119767     2.5417643044     1.6662433637
    6      C      -3.7392889819     1.5811065367     2.5974364759
    7      C      -3.5165082841     0.1561608679     2.2185254027
    8      C      -2.4531054914    -0.6612851897     2.7566010882
    9      C      -4.3108859652    -0.4811220506     1.2411945572
   10      N      -2.3365472547    -1.9518912211     2.3816460921
   11      N      -5.3251554368     0.0587323807     0.5789101530
   12      C      -4.1239684925    -1.8338633232     0.9359947738
   13      C      -3.1100836395    -2.6424601783     1.4872865576
   14      S      -5.8091483070    -1.0251493852    -0.5546952542
   15      N      -4.8833609143    -2.2428364859    -0.1166201140
   16      C      -2.7757662574    -4.0627068060     1.0639965809
   17      S      -3.6696117577    -5.1388616588    -0.0404349265
   18      C      -1.7330925758    -4.7954585147     1.6504269067
   19      C      -2.4455118534    -6.4028277787     0.1131654383
   20      S      -0.6000618397    -4.3728401254     2.9233829342
   21      C      -1.5396832329    -6.0760169751     1.0529096636
   22      C      -2.5368450593    -7.6121637695    -0.5852232119
   23      C       0.1341666423    -5.9499056211     2.7077560376
   24      C      -0.5182381703    -6.6917122756     1.7370955162
   25      N      -3.3514179862    -7.6013180664    -1.6632984957
   26      S      -1.9062190432    -9.1335658833    -0.1061486497
   27      C      -3.3281650694    -8.8953952570    -2.1941671485
   28      C      -2.6627387163    -9.8345350692    -1.4712472486
   29      C      -4.2141230667     5.7624997245     3.4371850103
   30      H      -3.5705323069     3.8375125048     5.1838344135
   31      H      -3.3666391643     1.4014964359     4.7843343531
   32      H      -4.3586960321     2.3029767579     0.6213058401
   33      H      -1.7694390394    -0.3309530453     3.5381916823
   34      H       1.0437790585    -6.2178878968     3.2284514881
   35      H      -0.1819384245    -7.6946564431     1.4966407847
   36      H      -3.9161068062    -9.0342682434    -3.0913871928
   37      H      -2.5051359446   -10.8952953373    -1.6072142299
   38      H      -5.1056578678     6.1124594078     2.9034548177
   39      C      -3.0398755296     6.5935550713     2.9176778089
   40      H      -4.2919179747     6.0118421700     4.5023461704
   41      H      -3.3135603746     7.6545901406     2.9013625630
   42      H      -2.6268627466     6.2119077425     1.9747230075
   43      C      -1.7999889084     6.5277929882     3.9012943576
   44      H      -1.9290890568     7.1674846632     4.7836625986
   45      C      -0.5107760271     7.0904437666     3.2595130487
   46      H      -1.6727984104     5.4759130096     4.1858344917
   47      H      -0.6864411263     7.9645578479     2.6210654426
   48      H      -0.0001910198     6.4220608590     2.5532360216
   49      C       0.5498972772     7.2617478012     4.4281978091
   50      H       1.4423871118     7.6873883537     3.9522387612
   51      C       1.0667742704     5.9718464404     5.0631266660
   52      H       0.1241272414     7.9644047339     5.1544175496
   53      H       1.5864553773     5.3439263208     4.3286534734
   54      H       0.2477316872     5.2936655395     5.3328022350
   55      H       1.6291944241     6.1845164637     5.9816221923
   56      C       8.1856591880     0.9470372839     0.2076897679
   57      C       7.3461977074    -0.1884267952    -0.0326573720
   58      N       7.7566208176     2.2175918260     0.1621021338
   59      C       5.9955755199     0.0366072365    -0.3087902950
   60      C       6.4826704729     2.4130867476    -0.2324447642
   61      C       5.5140892729     1.3930481354    -0.4522234907
   62      C       4.0597746453     1.7715906761    -0.7712634709
   63      C       3.7618237483     2.8288560049    -1.6672820463
   64      C       3.0023316103     1.0843363492    -0.1336885985
   65      N       2.4620238672     2.9476171285    -2.1514153591
   66      N       3.0083584249     0.2277702869     0.8890309419
   67      C       1.6708121348     1.3890113770    -0.5748348486
   68      C       1.4419269893     2.3392300972    -1.5914434133
   69      S       1.4676970450    -0.3047158027     1.1592846690
   70      N       0.6759105002     0.7104260101     0.0679766613
   71      C       0.0909288846     2.6010301810    -2.1441303384
   72      S      -1.5146746787     1.8561002699    -1.7208696329
   73      C      -0.1510848960     3.3896861346    -3.2576208489
   74      C      -2.3465064918     2.6730115234    -3.0461178505
   75      S       0.9181988615     4.5154886929    -4.0417195962
   76      C      -1.4616500611     3.4877615377    -3.6736571013
   77      C      -3.7601517935     2.4986834195    -3.3925997016
   78      C      -0.3785638899     4.9357320064    -5.1826643470
   79      C      -1.5716417272     4.3583011424    -4.7341926406
   80      N      -4.4242583334     1.7413234582    -2.5560559832
   81      S      -4.5657734613     2.8555744166    -4.8384065852
   82      C      -5.7334312833     1.7141650784    -2.9261513895
   83      C      -6.0848838083     2.2596464224    -4.1447621665
   84      C       9.5747900886     0.6122431357     0.7036426077
   85      H       7.7627270192    -1.1792331636     0.1294570092
   86      H       5.2249017096    -0.7287864716    -0.2929047733
   87      H       6.1527493106     3.4473888437    -0.3150534846
   88      H       4.5931432562     3.3383845109    -2.1513652802
   89      H      -0.0998244519     5.5448450458    -6.0318984908
   90      H      -2.4985889186     4.4545193508    -5.2894222875
   91      H      -6.3718562537     1.2157072802    -2.2096415287
   92      H      -7.0136491468     2.2457061118    -4.6991001625
   93      H      10.1218607982     1.5612344476     0.7665959932
   94      C      10.4505098688    -0.3400185367    -0.2468954366
   95      H       9.5753999158     0.1299230645     1.6888309029
   96      H      10.7140202348     0.2289670534    -1.1466752349
   97      H       9.9114752493    -1.2508326276    -0.5350973983
   98      C      11.7990545816    -0.6065373820     0.4737132386
   99      H      12.4099827138     0.3044507140     0.4892537021
  100      C      12.6960042778    -1.7363156528    -0.1531179199
  101      H      11.6743015426    -0.9516997553     1.5084284725
  102      H      13.5933736463    -1.8973367613     0.4566528723
  103      H      12.9764235200    -1.3562718698    -1.1435237820
  104      C      11.8731400967    -3.1205588113    -0.3350998361
  105      H      11.7384061340    -3.3399251087     0.7303029923
  106      C      12.6591135234    -4.2241240597    -1.0720452310
  107      H      10.9194928795    -2.9994264128    -0.8645730906
  108      H      12.1123827498    -5.1740865115    -1.0142801782
  109      H      13.5470045944    -4.4538643378    -0.4703884762
  110      H      12.7925006617    -4.0604153267    -2.1493401405
 ----------------------------------------------------------------

    9   -5663.5098671294      8.94E-06 Convergence criterion met
 Total energy in the final basis set = -5663.5098671294

                    Orbital Energies (a.u.)
 --------------------------------------------------------------

 Alpha MOs
 -- Occupied --
-88.984 -88.983 -88.930 -88.929 -88.922 -88.922 -88.912 -88.902
-14.387 -14.380 -14.374 -14.367 -14.350 -14.344 -14.342 -14.340
-14.331 -14.316 -10.268 -10.264 -10.262 -10.262 -10.257 -10.252
-10.249 -10.246 -10.245 -10.244 -10.244 -10.239 -10.238 -10.235
-10.231 -10.231 -10.231 -10.231 -10.229 -10.228 -10.227 -10.226
-10.226 -10.226 -10.224 -10.223 -10.222 -10.218 -10.213 -10.213
-10.211 -10.208 -10.201 -10.200 -10.198 -10.198 -10.197 -10.190
-10.189 -10.187 -10.185 -10.182 -10.182 -10.182 -10.177 -10.175
-10.175 -10.173 -10.172 -10.169  -8.039  -8.039  -7.992  -7.991
 -7.980  -7.979  -7.971  -7.962  -6.004  -6.004  -5.999  -5.998
 -5.996  -5.996  -5.956  -5.955  -5.952  -5.951  -5.949  -5.948
 -5.944  -5.943  -5.940  -5.940  -5.936  -5.936  -5.936  -5.932
 -5.927  -5.927  -5.923  -5.919  -1.036  -1.021  -0.982  -0.966
 -0.956  -0.943  -0.937  -0.936  -0.914  -0.911  -0.897  -0.895
 -0.845  -0.839  -0.826  -0.820  -0.814  -0.810  -0.804  -0.802
 -0.801  -0.800  -0.795  -0.792  -0.782  -0.779  -0.765  -0.765
 -0.750  -0.749  -0.740  -0.739  -0.719  -0.719  -0.706  -0.706
 -0.692  -0.691  -0.672  -0.672  -0.651  -0.647  -0.645  -0.637
 -0.632  -0.630  -0.624  -0.618  -0.612  -0.609  -0.606  -0.600
 -0.597  -0.594  -0.586  -0.579  -0.574  -0.573  -0.561  -0.557
 -0.546  -0.544  -0.536  -0.534  -0.524  -0.523  -0.520  -0.517
 -0.501  -0.500  -0.499  -0.496  -0.487  -0.483  -0.477  -0.472
 -0.469  -0.467  -0.465  -0.464  -0.462  -0.457  -0.456  -0.451
 -0.447  -0.446  -0.439  -0.438  -0.436  -0.436  -0.435  -0.432
 -0.430  -0.426  -0.422  -0.420  -0.418  -0.417  -0.414  -0.414
 -0.410  -0.408  -0.403  -0.402  -0.399  -0.397  -0.397  -0.395
 -0.394  -0.389  -0.388  -0.387  -0.385  -0.383  -0.382  -0.381
 -0.377  -0.374  -0.373  -0.369  -0.364  -0.361  -0.355  -0.353
 -0.351  -0.347  -0.345  -0.345  -0.343  -0.343  -0.341  -0.338
 -0.335  -0.332  -0.332  -0.331  -0.328  -0.327  -0.325  -0.316
 -0.308  -0.306  -0.306  -0.303  -0.300  -0.299  -0.298  -0.296
 -0.292  -0.292  -0.288  -0.286  -0.286  -0.283  -0.281  -0.280
 -0.269  -0.268  -0.265  -0.258  -0.255  -0.254  -0.252  -0.243
 -0.242  -0.238  -0.231  -0.224  -0.194  -0.192

          Ground-State Mulliken Net Atomic Charges

     Atom                 Charge (a.u.)
  ----------------------------------------
      1 C                     0.258992
      2 C                    -0.106435
      3 N                    -0.478913
      4 C                    -0.089424
      5 C                     0.106419
      6 C                     0.012545
      7 C                     0.015461
      8 C                     0.072286
      9 C                     0.280965
     10 N                    -0.546930
     11 N                    -0.578114
     12 C                     0.128836
     13 C                     0.328740
     14 S                     0.614683
     15 N                    -0.533264
     16 C                    -0.210650
     17 S                     0.365161
     18 C                    -0.148962
     19 C                    -0.237426
     20 S                     0.286526
     21 C                     0.206358
     22 C                     0.048114
     23 C                    -0.306966
     24 C                    -0.102693
     25 N                    -0.436519
     26 S                     0.292100
     27 C                     0.120308
     28 C                    -0.310280
     29 C                    -0.216102
     30 H                     0.086848
     31 H                     0.102314
     32 H                     0.139260
     33 H                     0.119516
     34 H                     0.130837
     35 H                     0.098806
     36 H                     0.112331
     37 H                     0.138538
     38 H                     0.114755
     39 C                    -0.177535
     40 H                     0.090691
     41 H                     0.093822
     42 H                     0.117994
     43 C                    -0.178376
     44 H                     0.086632
     45 C                    -0.185415
     46 H                     0.099725
     47 H                     0.091573
     48 H                     0.090152
     49 C                    -0.183935
     50 H                     0.089655
     51 C                    -0.315424
     52 H                     0.090534
     53 H                     0.104888
     54 H                     0.098925
     55 H                     0.104680
     56 C                     0.274429
     57 C                    -0.106226
     58 N                    -0.479839
     59 C                    -0.072692
     60 C                     0.064847
     61 C                     0.040839
     62 C                    -0.006465
     63 C                     0.063214
     64 C                     0.291331
     65 N                    -0.541580
     66 N                    -0.572336
     67 C                     0.185279
     68 C                     0.343091
     69 S                     0.602934
     70 N                    -0.569436
     71 C                    -0.226001
     72 S                     0.356433
     73 C                    -0.136609
     74 C                    -0.248621
     75 S                     0.279730
     76 C                     0.208812
     77 C                     0.072463
     78 C                    -0.315144
     79 C                    -0.095522
     80 N                    -0.427640
     81 S                     0.281408
     82 C                     0.130902
     83 C                    -0.320163
     84 C                    -0.244461
     85 H                     0.096072
     86 H                     0.110190
     87 H                     0.095994
     88 H                     0.128583
     89 H                     0.137819
     90 H                     0.098727
     91 H                     0.103051
     92 H                     0.144821
     93 H                     0.116931
     94 C                    -0.185778
     95 H                     0.117124
     96 H                     0.107196
     97 H                     0.099371
     98 C                    -0.181640
     99 H                     0.097464
    100 C                    -0.188445
    101 H                     0.087606
    102 H                     0.092067
    103 H                     0.088114
    104 C                    -0.175206
    105 H                     0.094354
    106 C                    -0.318491
    107 H                     0.095261
    108 H                     0.097787
    109 H                     0.103125
    110 H                     0.108318
  ----------------------------------------
  Sum of atomic charges =     0.000000

                    Cartesian Multipole Moments
 -----------------------------------------------------------------
    Charge (ESU x 10^10)
                 0.0000
    Dipole Moment (Debye)
         X      -0.2005      Y      -3.3036      Z      -0.6025
       Tot       3.3641
    Quadrupole Moments (Debye-Ang)
        XX    -429.5719     XY     -20.7631     YY    -408.1413
        XZ      13.5370     YZ      -4.4700     ZZ    -419.8661

 Total job time:  82.38s(wall), 967.90s(cpu)
        *  Thank you very much for using Q-Chem.  Have a nice day.  *
