 Q-Chem 4.4, Q-Chem, Inc., Pleasanton, CA (2016)
 Q-Chem 4.4.2 for Intel X86 Linux

User input:
--------------------------------------------------------------
$comment
SP
$end

$rem
MEM_STATIC 5000
MEM_TOTAL 20000
JOBTYPE SP
EXCHANGE B3LYP
BASIS 6-31g(d,p)
$end

$molecule
0 1
C          14.990000    -25.022000    -11.140000
C          15.272000    -24.067000    -10.156000
N          14.196000    -26.066000    -10.919000
C          14.832000    -24.300000     -8.847000
C          13.778000    -26.331000     -9.661000
C          14.086000    -25.470000     -8.546000
C          13.401000    -25.726000     -7.209000
C          12.225000    -26.375000     -7.123000
C          14.062000    -25.371000     -5.956000
N          11.540000    -26.551000     -5.987000
N          15.268000    -24.775000     -5.769000
C          13.327000    -25.564000     -4.776000
C          12.071000    -26.187000     -4.809000
S          15.424000    -24.570000     -4.170000
N          14.028000    -25.257000     -3.668000
C          11.278000    -26.421000     -3.619000
S          11.699000    -26.248000     -1.886000
C           9.999000    -26.943000     -3.675000
C          10.206000    -27.014000     -1.355000
S           8.884000    -27.267000     -5.032000
C           9.452000    -27.275000     -2.428000
C           9.828000    -27.135000     -0.028000
C           7.680000    -27.851000     -3.875000
C           8.096000    -27.703000     -2.577000
N           8.915000    -28.027000      0.232000
S          10.644000    -26.508000      1.423000
C           8.621000    -28.135000      1.578000
C           9.543000    -27.405000      2.403000
C          15.604000    -24.871000    -12.522000
H          15.795000    -23.167000    -10.463000
H          15.010000    -23.536000     -8.095000
H          13.134000    -27.209000     -9.647000
H          11.795000    -26.756000     -8.049000
H           6.889000    -28.429000     -4.332000
H           7.460000    -28.068000     -1.779000
H           7.836000    -28.825000      1.857000
H           9.478000    -27.383000      3.482000
H          16.610000    -24.476000    -12.333000
C          14.859000    -23.802000    -13.336000
H          15.697000    -25.842000    -13.025000
H          15.205000    -23.801000    -14.378000
H          15.073000    -22.786000    -12.982000
C          13.326000    -23.926000    -13.550000
H          12.811000    -23.634000    -12.626000
C          12.821000    -25.296000    -14.088000
H          13.113000    -23.118000    -14.261000
H          11.750000    -25.221000    -14.315000
H          12.932000    -26.077000    -13.326000
C          13.602000    -25.667000    -15.355000
H          13.282000    -25.098000    -16.235000
C          13.272000    -27.166000    -15.746000
H          14.693000    -25.691000    -15.244000
H          13.702000    -27.907000    -15.060000
H          13.814000    -27.390000    -16.673000
H          12.199000    -27.381000    -15.812000
C          13.047000    -20.784000     -6.707000
C          14.297000    -21.288000     -6.222000
N          12.927000    -19.990000     -7.782000
C          15.459000    -20.953000     -6.921000
C          14.072000    -19.577000     -8.361000
C          15.381000    -20.030000     -8.032000
C          16.585000    -19.570000     -8.868000
C          16.705000    -18.223000     -9.293000
C          17.568000    -20.509000     -9.254000
N          17.931000    -17.785000     -9.786000
N          17.580000    -21.841000     -9.181000
C          18.734000    -19.994000     -9.914000
C          18.875000    -18.614000    -10.168000
S          19.034000    -22.401000     -9.731000
N          19.658000    -20.931000    -10.277000
C          20.110000    -18.036000    -10.751000
S          21.656000    -18.847000    -11.265000
C          20.357000    -16.676000    -10.850000
C          22.467000    -17.310000    -11.574000
S          19.236000    -15.356000    -10.687000
C          21.579000    -16.305000    -11.369000
C          23.864000    -17.160000    -11.992000
C          20.547000    -14.212000    -11.051000
C          21.663000    -14.936000    -11.485000
N          24.473000    -18.294000    -12.232000
S          24.873000    -15.803000    -11.907000
C          25.729000    -18.035000    -12.687000
C          26.200000    -16.739000    -12.619000
C          11.826000    -21.360000     -6.025000
H          14.280000    -22.007000     -5.407000
H          16.422000    -21.438000     -6.789000
H          13.972000    -18.894000     -9.203000
H          15.939000    -17.517000     -8.977000
H          20.333000    -13.163000    -10.897000
H          22.599000    -14.449000    -11.737000
H          26.251000    -18.917000    -13.032000
H          27.181000    -16.319000    -12.796000
H          10.958000    -20.831000     -6.438000
C          11.749000    -21.160000     -4.434000
H          11.706000    -22.437000     -6.195000
H          11.580000    -20.095000     -4.234000
H          12.666000    -21.486000     -3.928000
C          10.465000    -21.875000     -3.935000
H           9.572000    -21.330000     -4.265000
C          10.338000    -22.040000     -2.376000
H          10.383000    -22.911000     -4.289000
H           9.436000    -22.610000     -2.122000
H          10.258000    -21.016000     -1.990000
C          11.654000    -22.740000     -1.740000
H          11.521000    -23.725000     -2.202000
C          11.647000    -22.803000     -0.199000
H          12.595000    -22.259000     -2.036000
H          12.477000    -23.429000      0.153000
H          10.783000    -23.408000      0.102000
H          11.807000    -21.842000      0.307000
$end

--------------------------------------------------------------

             Standard Nuclear Orientation (Angstroms)
    I     Atom           X                Y                Z
 ----------------------------------------------------------------
    1      C      -0.7137595688    -4.3218934544    -0.6385472861
    2      C      -0.8344930918    -2.9432469456    -0.4274496308
    3      N       0.4605080212    -4.9185654219    -0.8237260927
    4      C       0.3025215992    -2.1385667638    -0.5725613035
    5      C       1.5708245647    -4.1664322817    -0.9940373158
    6      C       1.5535761884    -2.7279775135    -0.8942356464
    7      C       2.8790749739    -1.9760872041    -0.8876074907
    8      C       4.0295177562    -2.5622679413    -0.5075462485
    9      C       2.9626072220    -0.6137628055    -1.4072704551
   10      N       5.2024991320    -1.9270380572    -0.4012697866
   11      N       1.9713930154     0.1689272482    -1.9067818928
   12      C       4.2016212257     0.0345160746    -1.2870506878
   13      C       5.3252320321    -0.6528301690    -0.8055863619
   14      S       2.6560316270     1.5963964230    -2.2484889696
   15      N       4.2023257220     1.2651590187    -1.8337054672
   16      C       6.6287470379    -0.0337785382    -0.6739478110
   17      S       7.2298654768     1.5507892779    -1.2555494431
   18      C       7.7035407459    -0.6901825116    -0.1034977177
   19      C       8.8961542539     1.1747680577    -0.8314554051
   20      S       7.8451349951    -2.2344830139     0.7823561229
   21      C       8.9265444480    -0.0163623012    -0.2246186032
   22      C       9.9456923321     2.0708143228    -0.9498822314
   23      C       9.5779442166    -1.9378809388     0.9791311494
   24      C       9.9525930003    -0.7152824544     0.4845047906
   25      N      11.1430510915     1.5578875170    -0.9583139140
   26      S       9.8998475452     3.7792460045    -1.4433854680
   27      C      12.1413149645     2.4976432624    -1.1319352799
   28      C      11.6247041797     3.7899861139    -1.4877052214
   29      C      -1.9644494980    -5.1851651438    -0.6546000495
   30      H      -1.8054340857    -2.5630409538    -0.1266257783
   31      H       0.2176441895    -1.0758873049    -0.3618667546
   32      H       2.4469739773    -4.7992738169    -1.1270403164
   33      H       3.9893584683    -3.6189260590    -0.2441115242
   34      H      10.1364660049    -2.8201638765     1.2588528500
   35      H      11.0006561766    -0.4404211801     0.5077396455
   36      H      13.1627528271     2.1428915884    -1.1005993156
   37      H      12.2576494766     4.6462164950    -1.6753212803
   38      H      -2.7211627302    -4.5617371206    -1.1470475942
   39      C      -2.4690212648    -5.4409411356     0.7738144471
   40      H      -1.8143514946    -6.0930508699    -1.2526912613
   41      H      -3.2779190650    -6.1833321034     0.7692318989
   42      H      -2.9269754195    -4.5489488381     1.2187815621
   43      C      -1.5166259931    -6.0708770912     1.8261380372
   44      H      -0.8106129722    -5.3057497919     2.1731118549
   45      C      -0.7904744187    -7.3773252973     1.3933956474
   46      H      -2.1817653042    -6.2511789610     2.6798563353
   47      H      -0.2501207599    -7.7909603434     2.2542783178
   48      H      -0.0434571903    -7.1676369161     0.6182040303
   49      C      -1.8226931917    -8.3913142833     0.8842377732
   50      H      -2.3905910667    -8.8643056496     1.6931457847
   51      C      -1.0644769960    -9.6062560523     0.2076236302
   52      H      -2.4666747621    -8.0372597072     0.0699214378
   53      H      -0.5900001026    -9.3538890687    -0.7493296514
   54      H      -1.8243588552   -10.3297410003    -0.1124046343
   55      H      -0.2862586216   -10.0503522402     0.8393393398
   56      C       0.8896792884     1.0332584221     2.5455874803
   57      C       0.5925052236     1.4641197088     1.2122506411
   58      N      -0.0324260834     0.5786644842     3.4078676174
   59      C      -0.7313606124     1.3861784202     0.7736455753
   60      C      -1.3177215056     0.6347190722     3.0057375875
   61      C      -1.7664807941     0.9840477941     1.7005496528
   62      C      -3.2576217173     0.8758084752     1.3471447899
   63      C      -4.2554209973     1.3031070583     2.2588720065
   64      C      -3.6442354106     0.3060211788     0.1130952410
   65      N      -5.5587539952     1.4621110623     1.7962600489
   66      N      -2.9370634612    -0.3601971606    -0.8011027454
   67      C      -5.0401331312     0.3585287940    -0.2171978167
   68      C      -5.9731651935     0.9456360792     0.6623209189
   69      S      -3.9169247185    -0.7335375240    -2.0780933051
   70      N      -5.3761138263    -0.2068838287    -1.4134166673
   71      C      -7.4034580700     1.1116036912     0.3074758270
   72      S      -8.2967221589     0.6533847524    -1.2104660926
   73      C      -8.3097444850     1.8385135939     1.0628942061
   74      C      -9.7808227370     1.4534629334    -0.6880760293
   75      S      -8.1494855108     2.4032504147     2.7002699676
   76      C      -9.5910124966     1.9391590886     0.5643876698
   77      C     -11.0090817667     1.5586673954    -1.4812624999
   78      C      -9.7943136439     3.0724836615     2.6189049016
   79      C     -10.4040584958     2.6157969803     1.4451772966
   80      N     -10.9694736642     0.9033423031    -2.6141425560
   81      S     -12.3127843446     2.6253236254    -1.3099175978
   82      C     -12.1807458942     1.0025558482    -3.2262032208
   83      C     -13.1089784312     1.8849432415    -2.7105891737
   84      C       2.3649170227     0.9509393807     2.8690657681
   85      H       1.4219052301     1.7172671100     0.5568980471
   86      H      -1.0459990869     1.4725069104    -0.2624857013
   87      H      -2.0669433129     0.3104903737     3.7261509651
   88      H      -3.9326583012     1.7452028560     3.1998414788
   89      H     -10.0987636439     3.7136441946     3.4350766778
   90      H     -11.4070450931     2.9197737963     1.1652041174
   91      H     -12.2699842214     0.3788849925    -4.1051253929
   92      H     -14.0658616512     2.2236512682    -3.0844091516
   93      H       2.4381623951     0.6887248264     3.9319451794
   94      C       3.2009669939     2.3097941214     2.6908966369
   95      H       2.8944334182     0.1964274412     2.2744624380
   96      H       2.8844365460     3.0078835465     3.4752853352
   97      H       3.0445234647     2.7695920861     1.7073762996
   98      C       4.6860579611     1.9894715445     3.0083557144
   99      H       4.8139095625     1.7958281451     4.0805171770
  100      C       5.7219785003     3.1106702551     2.6293872621
  101      H       5.0672683863     1.1202643345     2.4565464739
  102      H       6.7457267921     2.7716380579     2.8294287686
  103      H       5.4712894344     3.9574825080     3.2805677291
  104      C       5.5647533717     3.5717992685     1.0837507291
  105      H       5.8935194927     2.6312626279     0.6269557364
  106      C       6.4600281158     4.7649932768     0.6919980124
  107      H       4.5369936380     3.8386731368     0.8063588255
  108      H       6.4269072968     4.9158585473    -0.3946586406
  109      H       7.5026811140     4.4540446246     0.8309500225
  110      H       6.1501647277     5.7344190879     1.1035259915
 ----------------------------------------------------------------

   10   -5663.5188012568      4.62E-06 Convergence criterion met
 Total energy in the final basis set = -5663.5188012568

                    Orbital Energies (a.u.)
 --------------------------------------------------------------

 Alpha MOs
 -- Occupied --
-88.993 -88.991 -88.933 -88.932 -88.926 -88.925 -88.906 -88.904
-14.395 -14.388 -14.388 -14.386 -14.355 -14.347 -14.344 -14.341
-14.335 -14.322 -10.270 -10.267 -10.267 -10.264 -10.262 -10.260
-10.259 -10.254 -10.253 -10.243 -10.243 -10.242 -10.241 -10.239
-10.237 -10.237 -10.236 -10.235 -10.232 -10.232 -10.230 -10.230
-10.230 -10.226 -10.225 -10.223 -10.223 -10.219 -10.219 -10.218
-10.217 -10.205 -10.205 -10.204 -10.202 -10.201 -10.193 -10.189
-10.188 -10.188 -10.181 -10.179 -10.177 -10.176 -10.175 -10.172
-10.171 -10.167 -10.165 -10.162  -8.048  -8.046  -7.994  -7.994
 -7.984  -7.982  -7.966  -7.963  -6.013  -6.011  -6.007  -6.006
 -6.006  -6.003  -5.958  -5.958  -5.954  -5.954  -5.951  -5.951
 -5.949  -5.947  -5.945  -5.943  -5.941  -5.939  -5.931  -5.928
 -5.927  -5.924  -5.922  -5.920  -1.042  -1.028  -0.983  -0.975
 -0.964  -0.961  -0.940  -0.933  -0.918  -0.915  -0.904  -0.902
 -0.843  -0.843  -0.831  -0.829  -0.815  -0.812  -0.809  -0.805
 -0.801  -0.800  -0.796  -0.793  -0.780  -0.778  -0.767  -0.765
 -0.751  -0.743  -0.740  -0.733  -0.724  -0.723  -0.708  -0.706
 -0.693  -0.690  -0.677  -0.677  -0.654  -0.650  -0.649  -0.648
 -0.638  -0.635  -0.629  -0.624  -0.610  -0.609  -0.605  -0.599
 -0.597  -0.592  -0.588  -0.586  -0.579  -0.578  -0.553  -0.553
 -0.547  -0.541  -0.540  -0.539  -0.529  -0.525  -0.522  -0.510
 -0.505  -0.501  -0.501  -0.498  -0.491  -0.484  -0.480  -0.478
 -0.474  -0.470  -0.468  -0.462  -0.462  -0.459  -0.457  -0.454
 -0.452  -0.449  -0.444  -0.442  -0.441  -0.441  -0.438  -0.435
 -0.429  -0.426  -0.424  -0.422  -0.420  -0.418  -0.414  -0.412
 -0.409  -0.408  -0.407  -0.402  -0.401  -0.400  -0.399  -0.396
 -0.395  -0.394  -0.392  -0.389  -0.388  -0.387  -0.384  -0.381
 -0.378  -0.374  -0.371  -0.368  -0.364  -0.361  -0.355  -0.352
 -0.349  -0.348  -0.347  -0.346  -0.342  -0.341  -0.339  -0.338
 -0.338  -0.336  -0.334  -0.332  -0.329  -0.326  -0.321  -0.314
 -0.313  -0.312  -0.308  -0.305  -0.303  -0.301  -0.300  -0.299
 -0.297  -0.295  -0.292  -0.290  -0.288  -0.282  -0.281  -0.281
 -0.273  -0.271  -0.269  -0.264  -0.258  -0.256  -0.250  -0.247
 -0.246  -0.241  -0.236  -0.230  -0.198  -0.195

          Ground-State Mulliken Net Atomic Charges

     Atom                 Charge (a.u.)
  ----------------------------------------
      1 C                     0.285767
      2 C                    -0.110978
      3 N                    -0.484683
      4 C                    -0.069439
      5 C                     0.055114
      6 C                     0.021381
      7 C                     0.048521
      8 C                     0.062194
      9 C                     0.225404
     10 N                    -0.542085
     11 N                    -0.556636
     12 C                     0.197544
     13 C                     0.326017
     14 S                     0.607727
     15 N                    -0.561364
     16 C                    -0.243744
     17 S                     0.318504
     18 C                    -0.118086
     19 C                    -0.216758
     20 S                     0.276109
     21 C                     0.179778
     22 C                     0.041564
     23 C                    -0.309903
     24 C                    -0.054925
     25 N                    -0.415492
     26 S                     0.279176
     27 C                     0.107575
     28 C                    -0.314936
     29 C                    -0.223868
     30 H                     0.102274
     31 H                     0.121829
     32 H                     0.104884
     33 H                     0.113955
     34 H                     0.138596
     35 H                     0.118716
     36 H                     0.119556
     37 H                     0.141371
     38 H                     0.099031
     39 C                    -0.186310
     40 H                     0.114576
     41 H                     0.096543
     42 H                     0.088149
     43 C                    -0.180517
     44 H                     0.088363
     45 C                    -0.173200
     46 H                     0.084988
     47 H                     0.086820
     48 H                     0.124207
     49 C                    -0.174203
     50 H                     0.095034
     51 C                    -0.331540
     52 H                     0.099499
     53 H                     0.102734
     54 H                     0.089468
     55 H                     0.099706
     56 C                     0.280077
     57 C                    -0.105156
     58 N                    -0.479266
     59 C                    -0.085308
     60 C                     0.066347
     61 C                     0.039777
     62 C                    -0.006818
     63 C                     0.065649
     64 C                     0.297626
     65 N                    -0.541219
     66 N                    -0.582751
     67 C                     0.185274
     68 C                     0.344111
     69 S                     0.598372
     70 N                    -0.566631
     71 C                    -0.226493
     72 S                     0.356214
     73 C                    -0.136546
     74 C                    -0.244939
     75 S                     0.281976
     76 C                     0.207581
     77 C                     0.064116
     78 C                    -0.315517
     79 C                    -0.095897
     80 N                    -0.417976
     81 S                     0.278534
     82 C                     0.123307
     83 C                    -0.318990
     84 C                    -0.248231
     85 H                     0.093028
     86 H                     0.112864
     87 H                     0.097581
     88 H                     0.130731
     89 H                     0.138994
     90 H                     0.099705
     91 H                     0.112176
     92 H                     0.144948
     93 H                     0.119321
     94 C                    -0.185649
     95 H                     0.119517
     96 H                     0.106659
     97 H                     0.096757
     98 C                    -0.184970
     99 H                     0.097047
    100 C                    -0.190010
    101 H                     0.094104
    102 H                     0.094060
    103 H                     0.084080
    104 C                    -0.178060
    105 H                     0.113494
    106 C                    -0.324663
    107 H                     0.087777
    108 H                     0.099179
    109 H                     0.105806
    110 H                     0.104295
  ----------------------------------------
  Sum of atomic charges =     0.000000

                    Cartesian Multipole Moments
 -----------------------------------------------------------------
    Charge (ESU x 10^10)
                 0.0000
    Dipole Moment (Debye)
         X      -0.8722      Y       4.8156      Z      -1.5045
       Tot       5.1200
    Quadrupole Moments (Debye-Ang)
        XX    -347.6290     XY       0.5704     YY    -444.3384
        XZ       5.7026     YZ      -4.4233     ZZ    -447.8084

 Total job time:  98.96s(wall), 1206.74s(cpu)
        *  Thank you very much for using Q-Chem.  Have a nice day.  *
