 Q-Chem 4.4, Q-Chem, Inc., Pleasanton, CA (2016)
 Q-Chem 4.4.2 for Intel X86 Linux

User input:
--------------------------------------------------------------
$comment
SP
$end

$rem
MEM_STATIC 5000
MEM_TOTAL 20000
JOBTYPE SP
EXCHANGE B3LYP
BASIS 6-31g(d,p)
$end

$molecule
0 1
C           7.501000     20.103000     -3.327000
C           8.021000     20.633000     -2.132000
N           6.509000     19.157000     -3.275000
C           7.357000     20.350000     -0.900000
C           5.914000     18.845000     -2.091000
C           6.289000     19.460000     -0.884000
C           5.498000     19.334000      0.391000
C           4.098000     19.450000      0.388000
C           6.082000     18.940000      1.620000
N           3.353000     19.229000      1.482000
N           7.407000     18.828000      1.825000
C           5.291000     18.588000      2.662000
C           3.927000     18.758000      2.590000
S           7.532000     18.356000      3.367000
N           5.931000     18.227000      3.735000
C           2.999000     18.187000      3.540000
S           3.339000     17.099000      4.860000
C           1.613000     18.417000      3.551000
C           1.704000     16.975000      5.363000
S           0.555000     19.439000      2.537000
C           0.923000     17.719000      4.555000
C           1.217000     16.200000      6.457000
C          -0.825000     18.907000      3.477000
C          -0.464000     18.025000      4.484000
N           0.014000     16.250000      6.927000
S           2.417000     15.105000      7.267000
C          -0.048000     15.395000      8.005000
C           1.120000     14.715000      8.388000
C           8.122000     20.291000     -4.647000
H           8.829000     21.357000     -2.181000
H           7.676000     20.769000      0.048000
H           5.144000     18.087000     -1.953000
H           3.565000     19.748000     -0.512000
H          -1.819000     19.229000      3.197000
H          -1.180000     17.593000      5.173000
H          -0.983000     15.381000      8.548000
H           1.292000     13.935000      9.118000
H           7.360000     20.250000     -5.435000
C           9.177000     19.177000     -4.945000
H           8.633000     21.261000     -4.672000
H           8.915000     18.197000     -4.529000
H          10.155000     19.515000     -4.581000
C           9.303000     18.951000     -6.486000
H           8.283000     18.822000     -6.869000
C          10.263000     17.831000     -6.775000
H           9.667000     19.879000     -6.945000
H           9.687000     16.900000     -6.715000
H          11.033000     17.826000     -5.993000
C          11.000000     17.995000     -8.095000
H          11.244000     19.058000     -8.215000
C          10.160000     17.498000     -9.286000
H          11.925000     17.406000     -8.063000
H          10.733000     17.223000    -10.181000
H           9.380000     18.233000     -9.522000
H           9.674000     16.575000     -8.948000
C           3.777000      8.511000      2.355000
C           2.393000      8.414000      2.221000
N           4.364000      9.673000      2.136000
C           1.640000      9.507000      1.831000
C           3.651000     10.783000      1.822000
C           2.252000     10.784000      1.679000
C           1.500000     12.028000      1.237000
C           2.142000     13.183000      0.735000
C           0.149000     12.280000      1.645000
N           1.520000     14.389000      0.539000
N          -0.696000     11.344000      2.224000
C          -0.472000     13.503000      1.492000
C           0.208000     14.576000      0.905000
S          -2.126000     12.072000      2.405000
N          -1.699000     13.583000      1.979000
C          -0.334000     15.885000      0.540000
S          -1.812000     16.586000      1.224000
C           0.226000     16.845000     -0.290000
C          -1.739000     18.028000      0.289000
S           1.633000     16.687000     -1.242000
C          -0.525000     17.981000     -0.336000
C          -2.734000     19.055000      0.220000
C           1.470000     18.483000     -1.421000
C           0.255000     18.948000     -1.043000
N          -2.426000     20.128000     -0.414000
S          -4.142000     18.943000      1.291000
C          -3.334000     21.124000     -0.117000
C          -4.292000     20.718000      0.795000
C           4.734000      7.370000      2.701000
H           1.918000      7.438000      2.254000
H           0.580000      9.341000      1.666000
H           4.254000     11.689000      1.867000
H           3.193000     13.159000      0.451000
H           2.183000     19.006000     -2.045000
H          -0.024000     19.970000     -1.276000
H          -3.144000     22.065000     -0.617000
H          -4.926000     21.351000      1.403000
H           4.969000      6.786000      1.803000
C           4.072000      6.385000      3.655000
H           5.648000      7.797000      3.131000
H           3.151000      5.966000      3.233000
H           3.919000      6.941000      4.589000
C           4.929000      5.189000      4.176000
H           5.250000      4.618000      3.296000
C           4.050000      4.293000      5.088000
H           5.835000      5.495000      4.714000
H           3.199000      4.083000      4.427000
H           3.648000      4.824000      5.959000
C           4.831000      2.964000      5.444000
H           4.241000      2.527000      6.260000
C           6.302000      3.245000      5.700000
H           4.757000      2.269000      4.598000
H           6.814000      3.394000      4.741000
H           6.780000      2.354000      6.127000
H           6.520000      4.105000      6.345000
$end

--------------------------------------------------------------

             Standard Nuclear Orientation (Angstroms)
    I     Atom           X                Y                Z
 ----------------------------------------------------------------
    1      C      -7.3909795326    -3.0929891519    -0.4429364046
    2      C      -7.3020738550    -2.8478498798    -1.8254440963
    3      N      -6.3381402194    -2.7664334912     0.3735039062
    4      C      -6.2197894581    -2.0604385046    -2.3228903855
    5      C      -5.2784940449    -2.0644175032    -0.1138856067
    6      C      -5.2095579258    -1.6566030853    -1.4572523519
    7      C      -4.1921853645    -0.6741385426    -1.9738745482
    8      C      -3.8936118195     0.4994760844    -1.2618720584
    9      C      -3.3731625371    -0.9386337066    -3.0990309447
   10      N      -2.9129959461     1.3379064413    -1.6308287571
   11      N      -3.5435512535    -1.9845114662    -3.9280673716
   12      C      -2.3046634192    -0.1471176089    -3.3581851497
   13      C      -2.0964899783     1.0027381631    -2.6308093718
   14      S      -2.3635064672    -1.8207233599    -5.0220695465
   15      N      -1.6125878804    -0.4903838331    -4.4043446729
   16      C      -0.8670218880     1.7620620253    -2.6703123762
   17      S       0.6178772946     1.3689006114    -3.4962921097
   18      C      -0.6547153945     2.9870444411    -2.0158194169
   19      C       1.4481148962     2.7729430743    -2.9662163725
   20      S      -1.7194092489     4.0186948506    -1.0187394657
   21      C       0.6379094801     3.5097764662    -2.1807198821
   22      C       2.7938857472     3.1241435940    -3.2827428507
   23      C      -0.3997010085     5.1547677390    -0.8219335905
   24      C       0.7457003715     4.7474249439    -1.4885830680
   25      N       3.3478358526     4.2616208263    -3.0183684444
   26      S       3.7650244107     1.8756354706    -4.1733842837
   27      C       4.6290860137     4.2282577259    -3.5225885631
   28      C       5.0482845827     3.0768391894    -4.2094807770
   29      C      -8.4343075219    -3.9231554256     0.1780915052
   30      H      -8.1265237977    -3.1396594383    -2.4693155691
   31      H      -6.1219427440    -1.7921835897    -3.3690697779
   32      H      -4.3892157300    -1.7911218566     0.4526843963
   33      H      -4.4713847282     0.7819211215    -0.3847767004
   34      H      -0.5287001527     6.0191559367    -0.1845073088
   35      H       1.6635206583     5.3232779399    -1.4880849740
   36      H       5.1984418188     5.1434662370    -3.4360013328
   37      H       6.0147264667     2.7815394023    -4.5963555896
   38      H      -8.6191846103    -3.5940038133     1.2080180455
   39      C      -8.0128989429    -5.4274548830     0.2262885183
   40      H      -9.3567359419    -3.8454005315    -0.4098931769
   41      H      -6.9386525426    -5.5810827932     0.3827913510
   42      H      -8.3545703586    -5.9161498404    -0.6943970320
   43      C      -8.7116025030    -6.1457734251     1.4252317226
   44      H      -8.5335525864    -5.5235627260     2.3111674275
   45      C      -8.2539547856    -7.5744822750     1.5194155262
   46      H      -9.7968332330    -6.1138980942     1.2651716525
   47      H      -7.3250040403    -7.5691891124     2.1017895428
   48      H      -8.0382795672    -7.9353524020     0.5056571962
   49      C      -9.3107984445    -8.5092867475     2.0865901720
   50      H     -10.2838252500    -8.2024986561     1.6828515155
   51      C      -9.3340190595    -8.4813445767     3.6259959139
   52      H      -9.0871902452    -9.5353786153     1.7692498941
   53      H      -9.7662179689    -9.3699051094     4.1041624983
   54      H      -9.8249118479    -7.5631682279     3.9728351602
   55      H      -8.2846970957    -8.4529569144     3.9429920606
   56      C       5.9066135545    -4.1636980548     1.1556143566
   57      C       6.2972964819    -3.1538776946     2.0333675624
   58      N       4.7053584408    -4.1122251727     0.6105357437
   59      C       5.4320929474    -2.1254902881     2.3613922356
   60      C       3.8570595733    -3.0822621317     0.8526724106
   61      C       4.1696572435    -2.0136063285     1.7116884006
   62      C       3.1565587557    -0.9262261781     2.0273462256
   63      C       1.7908333106    -1.0145182300     1.6735220853
   64      C       3.5585863458     0.4116405397     2.3493019090
   65      N       0.9057450246     0.0302508966     1.7428920931
   66      N       4.8502969330     0.7981654883     2.6770887649
   67      C       2.6832887240     1.4782913450     2.3791202413
   68      C       1.3252279567     1.2902857023     2.0987226121
   69      S       4.7746421392     2.3668703826     3.0527033371
   70      N       3.2295588813     2.6556938419     2.6329120369
   71      C       0.2441124194     2.2685011067     2.2201879057
   72      S       0.4779978266     4.0259217927     2.2427965093
   73      C      -1.1239109640     2.0393533043     2.2303519205
   74      C      -1.1916167781     4.3956106869     2.4289018382
   75      S      -1.9130093639     0.5270731014     2.2656974048
   76      C      -1.8356911119     3.2002970625     2.2771665689
   77      C      -1.7616285845     5.6880716128     2.6615954041
   78      C      -3.3830375116     1.5115641769     1.8732428628
   79      C      -3.2036117499     2.8395459287     2.0722525686
   80      N      -3.0412618777     5.7811609848     2.6166287073
   81      S      -0.6940879710     7.1027336391     2.6278701965
   82      C      -3.4111993278     7.1080060475     2.5310865382
   83      C      -2.3243548928     7.9627128541     2.4801999102
   84      C       6.7285840328    -5.3934121008     0.7688147989
   85      H       7.2187574937    -3.2607588531     2.5979700966
   86      H       5.7696413849    -1.4190536275     3.1133159663
   87      H       2.9976513853    -3.0875054735     0.1834489251
   88      H       1.3605075823    -1.9569380077     1.3381152723
   89      H      -4.3363483924     1.0055810137     1.7929097877
   90      H      -4.0596425919     3.5053697685     2.0498068123
   91      H      -4.4803977451     7.2717627603     2.4913438237
   92      H      -2.3144987902     8.9881947876     2.1329267307
   93      H       6.6332756939    -6.1706946462     1.5365603069
   94      C       8.2126303418    -5.0552157014     0.7262149360
   95      H       6.3706180313    -5.7643182463    -0.1991283673
   96      H       8.5706101297    -4.6720530876     1.6889832792
   97      H       8.3267627280    -4.3457598238    -0.1035724802
   98      C       9.2016092287    -6.1760782888     0.2768889724
   99      H       9.0818045142    -7.0094075184     0.9802318657
  100      C      10.6531767531    -5.6334253205     0.3522579188
  101      H       9.0004067569    -6.5668681870    -0.7284551581
  102      H      10.6960044689    -5.2778103324     1.3900082582
  103      H      10.8223105444    -4.7588219128    -0.2870140420
  104      C      11.6782806085    -6.8151987310     0.1166487263
  105      H      12.6341681049    -6.3008376723    -0.0465591026
  106      C      11.1846411650    -7.7609833369    -0.9650857971
  107      H      11.7854827094    -7.3857021785     1.0479115925
  108      H      10.3998220451    -8.4062773180    -0.5507421873
  109      H      11.9875473878    -8.4554622216    -1.2438951873
  110      H      10.7970736680    -7.2869602481    -1.8751641160
 ----------------------------------------------------------------

   10   -5663.5079510376      6.25E-06 Convergence criterion met
 Total energy in the final basis set = -5663.5079510376

                    Orbital Energies (a.u.)
 --------------------------------------------------------------

 Alpha MOs
 -- Occupied --
-88.988 -88.986 -88.931 -88.921 -88.916 -88.915 -88.901 -88.901
-14.381 -14.380 -14.379 -14.379 -14.347 -14.345 -14.344 -14.341
-14.328 -14.319 -10.271 -10.267 -10.260 -10.255 -10.252 -10.248
-10.247 -10.240 -10.240 -10.240 -10.238 -10.237 -10.236 -10.233
-10.231 -10.231 -10.230 -10.228 -10.227 -10.227 -10.226 -10.224
-10.224 -10.224 -10.219 -10.217 -10.216 -10.215 -10.212 -10.206
-10.205 -10.204 -10.199 -10.197 -10.197 -10.192 -10.186 -10.186
-10.183 -10.183 -10.181 -10.181 -10.179 -10.178 -10.176 -10.174
-10.173 -10.172 -10.170 -10.168  -8.044  -8.042  -7.990  -7.981
 -7.977  -7.975  -7.961  -7.960  -6.009  -6.007  -6.003  -6.002
 -6.001  -5.999  -5.954  -5.952  -5.947  -5.945  -5.941  -5.941
 -5.940  -5.938  -5.938  -5.936  -5.934  -5.932  -5.925  -5.924
 -5.922  -5.921  -5.917  -5.916  -1.050  -1.040  -0.980  -0.972
 -0.962  -0.946  -0.937  -0.926  -0.917  -0.915  -0.909  -0.900
 -0.845  -0.841  -0.832  -0.827  -0.810  -0.807  -0.806  -0.804
 -0.801  -0.799  -0.794  -0.793  -0.784  -0.783  -0.768  -0.763
 -0.749  -0.745  -0.739  -0.734  -0.719  -0.717  -0.709  -0.707
 -0.693  -0.689  -0.674  -0.672  -0.652  -0.652  -0.647  -0.643
 -0.638  -0.636  -0.627  -0.624  -0.610  -0.605  -0.600  -0.595
 -0.591  -0.589  -0.580  -0.578  -0.575  -0.575  -0.564  -0.560
 -0.554  -0.549  -0.537  -0.532  -0.523  -0.519  -0.511  -0.509
 -0.504  -0.502  -0.499  -0.496  -0.492  -0.486  -0.481  -0.479
 -0.472  -0.472  -0.468  -0.467  -0.462  -0.461  -0.448  -0.447
 -0.445  -0.444  -0.441  -0.436  -0.436  -0.433  -0.432  -0.431
 -0.426  -0.424  -0.419  -0.418  -0.415  -0.414  -0.412  -0.410
 -0.409  -0.405  -0.402  -0.400  -0.399  -0.398  -0.396  -0.394
 -0.394  -0.393  -0.389  -0.387  -0.386  -0.382  -0.379  -0.378
 -0.376  -0.374  -0.370  -0.368  -0.366  -0.363  -0.355  -0.353
 -0.352  -0.348  -0.347  -0.345  -0.345  -0.342  -0.338  -0.337
 -0.337  -0.333  -0.333  -0.332  -0.330  -0.326  -0.321  -0.317
 -0.313  -0.312  -0.312  -0.306  -0.305  -0.301  -0.300  -0.297
 -0.296  -0.294  -0.292  -0.291  -0.290  -0.287  -0.280  -0.275
 -0.269  -0.268  -0.267  -0.258  -0.250  -0.247  -0.246  -0.242
 -0.241  -0.237  -0.230  -0.225  -0.191  -0.188

          Ground-State Mulliken Net Atomic Charges

     Atom                 Charge (a.u.)
  ----------------------------------------
      1 C                     0.266159
      2 C                    -0.118456
      3 N                    -0.498295
      4 C                    -0.063851
      5 C                     0.077201
      6 C                     0.047702
      7 C                    -0.029619
      8 C                     0.084101
      9 C                     0.243287
     10 N                    -0.516937
     11 N                    -0.547506
     12 C                     0.225889
     13 C                     0.323446
     14 S                     0.590816
     15 N                    -0.569070
     16 C                    -0.227961
     17 S                     0.332230
     18 C                    -0.130565
     19 C                    -0.241773
     20 S                     0.290621
     21 C                     0.178077
     22 C                     0.096540
     23 C                    -0.318975
     24 C                    -0.059620
     25 N                    -0.438368
     26 S                     0.237880
     27 C                     0.113774
     28 C                    -0.304968
     29 C                    -0.224486
     30 H                     0.086097
     31 H                     0.109893
     32 H                     0.107927
     33 H                     0.104250
     34 H                     0.137538
     35 H                     0.118304
     36 H                     0.106818
     37 H                     0.138405
     38 H                     0.117115
     39 C                    -0.174217
     40 H                     0.094988
     41 H                     0.116693
     42 H                     0.094534
     43 C                    -0.179131
     44 H                     0.100689
     45 C                    -0.173366
     46 H                     0.084993
     47 H                     0.096699
     48 H                     0.089952
     49 C                    -0.179695
     50 H                     0.091853
     51 C                    -0.316361
     52 H                     0.088812
     53 H                     0.099787
     54 H                     0.105499
     55 H                     0.101118
     56 C                     0.282491
     57 C                    -0.110565
     58 N                    -0.491734
     59 C                    -0.075725
     60 C                     0.050770
     61 C                     0.048219
     62 C                     0.033872
     63 C                     0.053900
     64 C                     0.220971
     65 N                    -0.538070
     66 N                    -0.550853
     67 C                     0.228190
     68 C                     0.302299
     69 S                     0.604648
     70 N                    -0.565103
     71 C                    -0.228389
     72 S                     0.308712
     73 C                    -0.081863
     74 C                    -0.231310
     75 S                     0.267909
     76 C                     0.168233
     77 C                     0.104248
     78 C                    -0.297809
     79 C                    -0.057151
     80 N                    -0.432419
     81 S                     0.236125
     82 C                     0.135788
     83 C                    -0.318279
     84 C                    -0.219589
     85 H                     0.084123
     86 H                     0.121044
     87 H                     0.104178
     88 H                     0.117388
     89 H                     0.119402
     90 H                     0.119518
     91 H                     0.124572
     92 H                     0.131049
     93 H                     0.111607
     94 C                    -0.189439
     95 H                     0.120843
     96 H                     0.091152
     97 H                     0.100841
     98 C                    -0.183673
     99 H                     0.087011
    100 C                    -0.181346
    101 H                     0.097087
    102 H                     0.087552
    103 H                     0.094001
    104 C                    -0.176714
    105 H                     0.092258
    106 C                    -0.316440
    107 H                     0.096528
    108 H                     0.111611
    109 H                     0.094788
    110 H                     0.107074
  ----------------------------------------
  Sum of atomic charges =     0.000000

                    Cartesian Multipole Moments
 -----------------------------------------------------------------
    Charge (ESU x 10^10)
                 0.0000
    Dipole Moment (Debye)
         X       1.3805      Y       1.4146      Z      -0.5893
       Tot       2.0626
    Quadrupole Moments (Debye-Ang)
        XX    -396.9873     XY      -0.7478     YY    -419.3221
        XZ      12.2157     YZ      10.2047     ZZ    -440.0875

 Total job time:  97.20s(wall), 1170.61s(cpu)
        *  Thank you very much for using Q-Chem.  Have a nice day.  *
