 Q-Chem 4.4, Q-Chem, Inc., Pleasanton, CA (2016)
 Q-Chem 4.4.2 for Intel X86 Linux

User input:
--------------------------------------------------------------
$comment
SP
$end

$rem
MEM_STATIC 5000
MEM_TOTAL 20000
JOBTYPE SP
EXCHANGE B3LYP
BASIS 6-31g(d,p)
$end

$molecule
0 1
C          -2.634000     18.386000     -3.431000
C          -3.095000     19.692000     -3.474000
N          -1.421000     18.046000     -3.886000
C          -2.265000     20.687000     -3.953000
C          -0.602000     19.094000     -4.268000
C          -0.905000     20.486000     -4.356000
C           0.053000     21.617000     -4.654000
C          -0.444000     22.943000     -4.884000
C           1.431000     21.584000     -4.431000
N           0.312000     24.118000     -4.886000
N           2.140000     20.484000     -4.247000
C           2.222000     22.711000     -4.448000
C           1.622000     23.970000     -4.661000
S           3.652000     20.930000     -3.952000
N           3.593000     22.546000     -4.216000
C           2.340000     25.260000     -4.656000
S           2.273000     26.570000     -5.889000
C           3.199000     25.655000     -3.720000
C           3.434000     27.535000     -5.064000
S           3.596000     24.821000     -2.202000
C           3.707000     26.878000     -3.877000
C           3.883000     28.788000     -5.539000
C           4.358000     26.345000     -1.688000
C           4.440000     27.270000     -2.695000
N           2.993000     29.501000     -6.161000
S           5.272000     29.655000     -5.046000
C           3.602000     30.632000     -6.567000
C           4.894000     30.882000     -6.078000
C          -3.630000     17.342000     -2.987000
H          -4.127000     19.905000     -3.212000
H          -2.728000     21.668000     -3.997000
H           0.352000     18.628000     -4.512000
H          -1.513000     23.039000     -5.068000
H           4.833000     26.415000     -0.717000
H           4.916000     28.231000     -2.539000
H           2.999000     31.282000     -7.188000
H           5.593000     31.661000     -6.352000
H          -4.272000     17.664000     -2.158000
C          -2.971000     16.085000     -2.495000
H          -4.243000     17.109000     -3.866000
H          -2.431000     16.377000     -1.587000
H          -2.251000     15.642000     -3.195000
C          -3.922000     14.936000     -2.001000
H          -4.695000     15.364000     -1.351000
C          -3.150000     13.702000     -1.372000
H          -4.485000     14.463000     -2.813000
H          -3.887000     13.092000     -0.834000
H          -2.342000     14.020000     -0.702000
C          -2.427000     12.799000     -2.432000
H          -3.230000     12.657000     -3.165000
C          -1.987000     11.483000     -1.747000
H          -1.600000     13.271000     -2.977000
H          -1.820000     10.769000     -2.563000
H          -2.716000     11.126000     -1.008000
H          -1.031000     11.676000     -1.245000
C           3.777000      8.511000      2.355000
C           2.393000      8.414000      2.221000
N           4.364000      9.673000      2.136000
C           1.640000      9.507000      1.831000
C           3.651000     10.783000      1.822000
C           2.252000     10.784000      1.679000
C           1.500000     12.028000      1.237000
C           2.142000     13.183000      0.735000
C           0.149000     12.280000      1.645000
N           1.520000     14.389000      0.539000
N          -0.696000     11.344000      2.224000
C          -0.472000     13.503000      1.492000
C           0.208000     14.576000      0.905000
S          -2.126000     12.072000      2.405000
N          -1.699000     13.583000      1.979000
C          -0.334000     15.885000      0.540000
S          -1.812000     16.586000      1.224000
C           0.226000     16.845000     -0.290000
C          -1.739000     18.028000      0.289000
S           1.633000     16.687000     -1.242000
C          -0.525000     17.981000     -0.336000
C          -2.734000     19.055000      0.220000
C           1.470000     18.483000     -1.421000
C           0.255000     18.948000     -1.043000
N          -2.426000     20.128000     -0.414000
S          -4.142000     18.943000      1.291000
C          -3.334000     21.124000     -0.117000
C          -4.292000     20.718000      0.795000
C           4.734000      7.370000      2.701000
H           1.918000      7.438000      2.254000
H           0.580000      9.341000      1.666000
H           4.254000     11.689000      1.867000
H           3.193000     13.159000      0.451000
H           2.183000     19.006000     -2.045000
H          -0.024000     19.970000     -1.276000
H          -3.144000     22.065000     -0.617000
H          -4.926000     21.351000      1.403000
H           4.969000      6.786000      1.803000
C           4.072000      6.385000      3.655000
H           5.648000      7.797000      3.131000
H           3.151000      5.966000      3.233000
H           3.919000      6.941000      4.589000
C           4.929000      5.189000      4.176000
H           5.250000      4.618000      3.296000
C           4.050000      4.293000      5.088000
H           5.835000      5.495000      4.714000
H           3.199000      4.083000      4.427000
H           3.648000      4.824000      5.959000
C           4.831000      2.964000      5.444000
H           4.241000      2.527000      6.260000
C           6.302000      3.245000      5.700000
H           4.757000      2.269000      4.598000
H           6.814000      3.394000      4.741000
H           6.780000      2.354000      6.127000
H           6.520000      4.105000      6.345000
$end

--------------------------------------------------------------

             Standard Nuclear Orientation (Angstroms)
    I     Atom           X                Y                Z
 ----------------------------------------------------------------
    1      C      -1.2086191039    -3.7009146294    -1.6850841008
    2      C      -2.4183200372    -4.1745543723    -1.2031141371
    3      N      -1.1028510487    -2.5113919972    -2.2915847405
    4      C      -3.5439999990    -3.3800076338    -1.3026435498
    5      C      -2.2401205903    -1.7230450119    -2.2808134518
    6      C      -3.5509435312    -2.0420717005    -1.8147853523
    7      C      -4.7367445543    -1.1111019180    -1.7012063159
    8      C      -6.0353323073    -1.6309402826    -1.3824228120
    9      C      -4.6602469106     0.2771472652    -1.5723097834
   10      N      -7.1429598321    -0.8860789217    -0.9694968873
   11      N      -3.5940192114     1.0042842259    -1.8568573783
   12      C      -5.7302609374     1.0565521928    -1.1932359895
   13      C      -6.9575371714     0.4353487875    -0.8796289504
   14      S      -3.9362885537     2.5261787284    -1.4843337945
   15      N      -5.5281950382     2.4394097373    -1.1062625223
   16      C      -8.1676382969     1.1416749280    -0.4144325949
   17      S      -9.8468260227     0.9972451973    -1.0471621063
   18      C      -8.1993664667     2.0465375955     0.5603591142
   19      C     -10.4560633915     2.1928677404     0.0294471834
   20      S      -6.8603783378     2.5318315067     1.6229453980
   21      C      -9.4034940330     2.5350058662     0.8602216705
   22      C     -11.8077044089     2.6050233982     0.0501661085
   23      C      -8.0934381167     3.3075667817     2.6453026569
   24      C      -9.3348947966     3.3273468151     2.0666904705
   25      N     -12.6786268693     1.6767996969    -0.2091557537
   26      S     -12.4597258046     4.0112295235     0.7723235934
   27      C     -13.8957636818     2.2534659246    -0.1789557271
   28      C     -13.9766197599     3.5678015717     0.3077362714
   29      C      -0.0463281591    -4.6626882510    -1.6288768017
   30      H      -2.4856487766    -5.1926835582    -0.8317426227
   31      H      -4.4538167523    -3.8529589238    -0.9459692549
   32      H      -1.9299969019    -0.7796964287    -2.7288366081
   33      H      -6.1639101428    -2.7090780360    -1.4656076968
   34      H      -7.8006704020     3.8336285235     3.5458092416
   35      H     -10.1765287657     3.8029492240     2.5564736988
   36      H     -14.7162684409     1.6123993922    -0.4748537524
   37      H     -14.8207399916     4.2444185367     0.3207176889
   38      H      -0.0088298306    -5.2617428392    -0.7108264350
   39      C       1.2840040788    -3.9675449760    -1.6870658388
   40      H      -0.1494614489    -5.3202094249    -2.5005008206
   41      H       1.3457913240    -3.3818485179    -0.7626903765
   42      H       1.4053378765    -3.2826306129    -2.5360766896
   43      C       2.5611069675    -4.8808044580    -1.6270380937
   44      H       2.4360351705    -5.6212095676    -0.8274317409
   45      C       3.9193166127    -4.0656359505    -1.5552894777
   46      H       2.7038399854    -5.4827643421    -2.5310920653
   47      H       4.7092587738    -4.7673849473    -1.2582158716
   48      H       3.8585502197    -3.2253919026    -0.8530178881
   49      C       4.3279533466    -3.3932612350    -2.9127379156
   50      H       4.2019360959    -4.2333934063    -3.6059619683
   51      C       5.7927386304    -2.9058869900    -2.8052603942
   52      H       3.6602521325    -2.6008606592    -3.2733130343
   53      H       6.1358081996    -2.7771192721    -3.8393122041
   54      H       6.4255358787    -3.5909417934    -2.2262279609
   55      H       5.7790524632    -1.9258690783    -2.3127499053
   56      C       9.9411839595     3.0957667972    -0.4275646252
   57      C      10.0189394694     1.7074215103    -0.5238581610
   58      N       8.7674729975     3.6602882218    -0.2119442673
   59      C       8.8817346571     0.9253008852    -0.4299936698
   60      C       7.6424605513     2.9220628738    -0.0433164773
   61      C       7.6266797286     1.5174285996    -0.1096830454
   62      C       6.3301001144     0.7322296947    -0.0060105618
   63      C       5.0531829640     1.3364677820    -0.0567247104
   64      C       6.2915880733    -0.5968799098     0.5298564758
   65      N       3.8819835158     0.6946606002     0.2532936666
   66      N       7.4013958685    -1.4015092424     0.7449385415
   67      C       5.1210833526    -1.2355131613     0.8860099102
   68      C       3.8863602606    -0.5972240437     0.7237019053
   69      S       6.8387222234    -2.8257539008     1.2573548978
   70      N       5.2681050589    -2.4350978568     1.4231124852
   71      C       2.5531837137    -1.1691317218     0.9135226164
   72      S       2.2089658893    -2.6139537149     1.8818947027
   73      C       1.3334240834    -0.6628146966     0.4893416239
   74      C       0.5177059772    -2.6036355180     1.5681249712
   75      S       1.0757011804     0.6920847165    -0.5150206044
   76      C       0.2878537122    -1.4247510483     0.9169496159
   77      C      -0.4290286781    -3.6095296760     1.9441375180
   78      C      -0.6470477990     0.5045370355     0.0152508556
   79      C      -0.8976388662    -0.6921883419     0.5986773619
   80      N      -1.6711311384    -3.3452204957     1.7557996958
   81      S       0.1235864721    -4.9567348920     2.9549310685
   82      C      -2.4518881350    -4.2442470163     2.4535523938
   83      C      -1.7012309666    -5.1482187046     3.1840953442
   84      C      11.1001197201     4.0796153106    -0.5899099531
   85      H      10.9466006397     1.2431355935    -0.8450642328
   86      H       9.0021740647    -0.1406173614    -0.5964077341
   87      H       6.8056178632     3.5189540653     0.3170794454
   88      H       4.9369840927     2.3707892665    -0.3768963657
   89      H      -1.3887967923     1.1784176952    -0.3933654525
   90      H      -1.9227586811    -0.9919510196     0.7881125807
   91      H      -3.5175156721    -4.0894235858     2.3437860173
   92      H      -2.0356614195    -5.7538237097     4.0169866035
   93      H      11.2898476892     4.2707641855    -1.6529952768
   94      C      12.3932411853     3.4783475588    -0.0561506749
   95      H      10.8439721023     5.0118409641    -0.0722529925
   96      H      12.6452541051     2.5394962960    -0.5630370472
   97      H      12.2407986838     3.3712537191     1.0256040077
   98      C      13.6726760457     4.3722453324    -0.0734483162
   99      H      13.8548270369     4.6501270715    -1.1189552533
  100      C      14.8737107345     3.5512860594     0.4657571625
  101      H      13.5697831296     5.3033265502     0.4978806728
  102      H      14.8393757313     2.6676810930    -0.1848466886
  103      H      14.7273731370     3.1923768959     1.4914157412
  104      C      16.2151294093     4.3615207724     0.2488386329
  105      H      16.9472876365     3.8200852136     0.8617961077
  106      C      16.0115411959     5.8417641377     0.5241010874
  107      H      16.5360390527     4.2478698473    -0.7943859202
  108      H      15.4930046090     6.3000324158    -0.3274480852
  109      H      16.9841063168     6.3495871840     0.5545451246
  110      H      15.4573400739     6.0869710283     1.4383678413
 ----------------------------------------------------------------

   10   -5663.4558401569      5.09E-06 Convergence criterion met
 Total energy in the final basis set = -5663.4558401569

                    Orbital Energies (a.u.)
 --------------------------------------------------------------

 Alpha MOs
 -- Occupied --
-88.995 -88.989 -88.930 -88.928 -88.919 -88.917 -88.904 -88.900
-14.398 -14.384 -14.380 -14.379 -14.357 -14.348 -14.344 -14.339
-14.327 -14.320 -10.271 -10.262 -10.261 -10.260 -10.259 -10.258
-10.256 -10.249 -10.246 -10.241 -10.240 -10.239 -10.238 -10.236
-10.233 -10.231 -10.230 -10.228 -10.227 -10.226 -10.226 -10.225
-10.225 -10.224 -10.224 -10.223 -10.220 -10.218 -10.215 -10.210
-10.210 -10.204 -10.201 -10.200 -10.198 -10.192 -10.190 -10.185
-10.183 -10.181 -10.181 -10.178 -10.178 -10.176 -10.173 -10.172
-10.172 -10.172 -10.171 -10.164  -8.051  -8.045  -7.992  -7.990
 -7.978  -7.977  -7.965  -7.960  -6.016  -6.010  -6.010  -6.009
 -6.004  -6.002  -5.955  -5.954  -5.952  -5.951  -5.949  -5.947
 -5.942  -5.942  -5.939  -5.938  -5.935  -5.934  -5.930  -5.926
 -5.925  -5.921  -5.921  -5.916  -1.051  -1.041  -0.992  -0.980
 -0.956  -0.947  -0.938  -0.931  -0.921  -0.918  -0.912  -0.901
 -0.845  -0.845  -0.835  -0.829  -0.828  -0.811  -0.807  -0.804
 -0.799  -0.798  -0.796  -0.795  -0.783  -0.779  -0.769  -0.768
 -0.750  -0.747  -0.739  -0.737  -0.726  -0.719  -0.709  -0.706
 -0.694  -0.692  -0.674  -0.672  -0.657  -0.652  -0.645  -0.644
 -0.637  -0.636  -0.625  -0.623  -0.611  -0.609  -0.604  -0.601
 -0.595  -0.591  -0.580  -0.578  -0.575  -0.574  -0.559  -0.556
 -0.555  -0.549  -0.545  -0.533  -0.529  -0.524  -0.523  -0.511
 -0.509  -0.504  -0.501  -0.500  -0.486  -0.482  -0.480  -0.479
 -0.474  -0.471  -0.468  -0.465  -0.462  -0.460  -0.452  -0.449
 -0.447  -0.445  -0.444  -0.439  -0.436  -0.434  -0.431  -0.430
 -0.429  -0.425  -0.422  -0.419  -0.418  -0.415  -0.414  -0.412
 -0.409  -0.406  -0.404  -0.402  -0.400  -0.398  -0.395  -0.395
 -0.393  -0.393  -0.390  -0.388  -0.386  -0.384  -0.382  -0.379
 -0.379  -0.374  -0.372  -0.371  -0.369  -0.363  -0.359  -0.353
 -0.352  -0.352  -0.351  -0.346  -0.346  -0.345  -0.342  -0.337
 -0.337  -0.334  -0.334  -0.332  -0.331  -0.319  -0.317  -0.315
 -0.312  -0.308  -0.307  -0.306  -0.302  -0.301  -0.298  -0.297
 -0.295  -0.294  -0.294  -0.292  -0.292  -0.287  -0.284  -0.282
 -0.280  -0.270  -0.268  -0.263  -0.251  -0.250  -0.248  -0.246
 -0.243  -0.239  -0.234  -0.227  -0.195  -0.192

          Ground-State Mulliken Net Atomic Charges

     Atom                 Charge (a.u.)
  ----------------------------------------
      1 C                     0.300369
      2 C                    -0.087456
      3 N                    -0.494030
      4 C                    -0.094522
      5 C                     0.047551
      6 C                     0.057852
      7 C                     0.064847
      8 C                     0.036793
      9 C                     0.254645
     10 N                    -0.493370
     11 N                    -0.540847
     12 C                     0.183426
     13 C                     0.221860
     14 S                     0.618802
     15 N                    -0.523650
     16 C                    -0.222179
     17 S                     0.329695
     18 C                    -0.084408
     19 C                    -0.209580
     20 S                     0.241783
     21 C                     0.154579
     22 C                     0.032998
     23 C                    -0.294183
     24 C                    -0.083556
     25 N                    -0.394770
     26 S                     0.292422
     27 C                     0.101138
     28 C                    -0.308536
     29 C                    -0.244280
     30 H                     0.089549
     31 H                     0.083884
     32 H                     0.120673
     33 H                     0.111980
     34 H                     0.126358
     35 H                     0.106553
     36 H                     0.105764
     37 H                     0.145695
     38 H                     0.108003
     39 C                    -0.178405
     40 H                     0.118939
     41 H                     0.106985
     42 H                     0.117698
     43 C                    -0.190288
     44 H                     0.078351
     45 C                    -0.181427
     46 H                     0.081259
     47 H                     0.080983
     48 H                     0.102762
     49 C                    -0.182312
     50 H                     0.088122
     51 C                    -0.322094
     52 H                     0.104743
     53 H                     0.103596
     54 H                     0.100612
     55 H                     0.105311
     56 C                     0.281844
     57 C                    -0.110096
     58 N                    -0.491062
     59 C                    -0.075520
     60 C                     0.050591
     61 C                     0.047411
     62 C                     0.032731
     63 C                     0.053176
     64 C                     0.220954
     65 N                    -0.537907
     66 N                    -0.551299
     67 C                     0.233152
     68 C                     0.302425
     69 S                     0.607330
     70 N                    -0.568485
     71 C                    -0.233320
     72 S                     0.289956
     73 C                    -0.081822
     74 C                    -0.233832
     75 S                     0.274744
     76 C                     0.174501
     77 C                     0.106024
     78 C                    -0.291829
     79 C                    -0.062570
     80 N                    -0.428118
     81 S                     0.241672
     82 C                     0.130166
     83 C                    -0.316394
     84 C                    -0.219556
     85 H                     0.084621
     86 H                     0.122357
     87 H                     0.103850
     88 H                     0.118225
     89 H                     0.110202
     90 H                     0.119676
     91 H                     0.122610
     92 H                     0.131322
     93 H                     0.111795
     94 C                    -0.190284
     95 H                     0.121073
     96 H                     0.091248
     97 H                     0.101365
     98 C                    -0.183293
     99 H                     0.086924
    100 C                    -0.181444
    101 H                     0.097182
    102 H                     0.087494
    103 H                     0.094409
    104 C                    -0.176804
    105 H                     0.092431
    106 C                    -0.316565
    107 H                     0.096466
    108 H                     0.111483
    109 H                     0.094833
    110 H                     0.107268
  ----------------------------------------
  Sum of atomic charges =     0.000000

                    Cartesian Multipole Moments
 -----------------------------------------------------------------
    Charge (ESU x 10^10)
                 0.0000
    Dipole Moment (Debye)
         X      -0.8263      Y      -1.0540      Z       1.9016
       Tot       2.3259
    Quadrupole Moments (Debye-Ang)
        XX    -389.1519     XY     -30.1835     YY    -418.9323
        XZ     -17.5232     YZ      -4.3910     ZZ    -442.9306

 Total job time:  103.24s(wall), 1251.30s(cpu)
        *  Thank you very much for using Q-Chem.  Have a nice day.  *
