 Q-Chem 4.4, Q-Chem, Inc., Pleasanton, CA (2016)
 Q-Chem 4.4.2 for Intel X86 Linux

User input:
--------------------------------------------------------------
$comment
SP
$end

$rem
MEM_STATIC 5000
MEM_TOTAL 20000
JOBTYPE SP
EXCHANGE B3LYP
BASIS 6-31g(d,p)
$end

$molecule
0 1
C           1.814000     11.158000     -2.459000
C           3.060000     11.032000     -1.745000
N           0.982000     10.064000     -2.636000
C           3.540000      9.740000     -1.334000
C           1.439000      8.889000     -2.181000
C           2.701000      8.629000     -1.605000
C           3.150000      7.289000     -1.063000
C           4.513000      6.986000     -0.983000
C           2.230000      6.357000     -0.553000
N           4.993000      5.855000     -0.553000
N           0.915000      6.511000     -0.563000
C           2.715000      5.153000     -0.081000
C           4.138000      4.944000     -0.094000
S           0.318000      5.155000      0.096000
N           1.747000      4.285000      0.267000
C           4.682000      3.600000      0.308000
S           3.772000      2.112000      0.597000
C           6.013000      3.341000      0.434000
C           5.166000      1.313000      1.250000
S           7.310000      4.479000      0.520000
C           6.224000      2.132000      1.125000
C           4.996000      0.085000      2.014000
C           8.222000      3.202000      1.333000
C           7.538000      2.027000      1.645000
N           3.776000     -0.325000      2.325000
S           6.242000     -0.956000      2.670000
C           3.729000     -1.369000      3.249000
C           4.974000     -1.657000      3.644000
C           1.403000     12.415000     -3.158000
H           3.749000     11.848000     -1.547000
H           4.534000      9.635000     -0.908000
H           0.605000      8.196000     -2.278000
H           5.254000      7.583000     -1.514000
H           9.258000      3.397000      1.579000
H           8.086000      1.174000      2.030000
H           2.832000     -1.769000      3.704000
H           5.285000     -2.421000      4.344000
H           0.411000     12.459000     -3.626000
C           2.415000     12.869000     -4.258000
H           1.398000     13.245000     -2.442000
H           3.427000     13.102000     -3.901000
H           2.048000     13.840000     -4.612000
C           2.576000     11.826000     -5.406000
H           3.175000     11.022000     -4.963000
C           3.234000     12.533000     -6.647000
H           1.598000     11.415000     -5.688000
H           4.050000     13.178000     -6.300000
H           2.489000     13.254000     -7.004000
C           3.576000     11.601000     -7.813000
H           4.023000     10.627000     -7.577000
C           4.278000     12.433000     -8.875000
H           2.616000     11.329000     -8.268000
H           4.365000     11.850000     -9.800000
H           5.279000     12.794000     -8.606000
H           3.692000     13.326000     -9.122000
C           3.777000      8.511000      2.355000
C           2.393000      8.414000      2.221000
N           4.364000      9.673000      2.136000
C           1.640000      9.507000      1.831000
C           3.651000     10.783000      1.822000
C           2.252000     10.784000      1.679000
C           1.500000     12.028000      1.237000
C           2.142000     13.183000      0.735000
C           0.149000     12.280000      1.645000
N           1.520000     14.389000      0.539000
N          -0.696000     11.344000      2.224000
C          -0.472000     13.503000      1.492000
C           0.208000     14.576000      0.905000
S          -2.126000     12.072000      2.405000
N          -1.699000     13.583000      1.979000
C          -0.334000     15.885000      0.540000
S          -1.812000     16.586000      1.224000
C           0.226000     16.845000     -0.290000
C          -1.739000     18.028000      0.289000
S           1.633000     16.687000     -1.242000
C          -0.525000     17.981000     -0.336000
C          -2.734000     19.055000      0.220000
C           1.470000     18.483000     -1.421000
C           0.255000     18.948000     -1.043000
N          -2.426000     20.128000     -0.414000
S          -4.142000     18.943000      1.291000
C          -3.334000     21.124000     -0.117000
C          -4.292000     20.718000      0.795000
C           4.734000      7.370000      2.701000
H           1.918000      7.438000      2.254000
H           0.580000      9.341000      1.666000
H           4.254000     11.689000      1.867000
H           3.193000     13.159000      0.451000
H           2.183000     19.006000     -2.045000
H          -0.024000     19.970000     -1.276000
H          -3.144000     22.065000     -0.617000
H          -4.926000     21.351000      1.403000
H           4.969000      6.786000      1.803000
C           4.072000      6.385000      3.655000
H           5.648000      7.797000      3.131000
H           3.151000      5.966000      3.233000
H           3.919000      6.941000      4.589000
C           4.929000      5.189000      4.176000
H           5.250000      4.618000      3.296000
C           4.050000      4.293000      5.088000
H           5.835000      5.495000      4.714000
H           3.199000      4.083000      4.427000
H           3.648000      4.824000      5.959000
C           4.831000      2.964000      5.444000
H           4.241000      2.527000      6.260000
C           6.302000      3.245000      5.700000
H           4.757000      2.269000      4.598000
H           6.814000      3.394000      4.741000
H           6.780000      2.354000      6.127000
H           6.520000      4.105000      6.345000
$end

--------------------------------------------------------------

             Standard Nuclear Orientation (Angstroms)
    I     Atom           X                Y                Z
 ----------------------------------------------------------------
    1      C      -2.1413499837     2.4383284891    -0.6715593353
    2      C      -1.4484115128     2.2505363770     0.5785440197
    3      N      -1.4815979746     2.2845121286    -1.8804666161
    4      C      -0.0243433281     2.0504350185     0.6025075686
    5      C      -0.1663826664     2.0351605792    -1.8131502130
    6      C       0.6339512422     1.9808987661    -0.6518831075
    7      C       2.1102358290     1.6477582442    -0.6280879121
    8      C       2.9120883078     2.0906423612     0.4287300765
    9      C       2.6937875413     0.8252166357    -1.6068711881
   10      N       4.1919263938     1.8732205898     0.5246636324
   11      N       2.0568513730     0.3355537792    -2.6592891680
   12      C       4.0486349732     0.5707196115    -1.5217553790
   13      C       4.7729473734     1.1225687387    -0.4083762487
   14      S       3.1721500902    -0.5029063099    -3.4854365219
   15      N       4.5308946856    -0.1200650862    -2.5714191687
   16      C       6.2672371084     0.9550043454    -0.3545583909
   17      S       7.3288996854     0.3398282892    -1.6274275879
   18      C       7.0238689623     1.3432548996     0.7090617221
   19      C       8.6832264018     0.2635734470    -0.5466730625
   20      S       6.4849275155     1.7578398969     2.2972400486
   21      C       8.3136688062     0.7821336378     0.6366580459
   22      C       9.8582181038    -0.5097381535    -0.9234537264
   23      C       8.1192078901     1.3498336608     2.8321237450
   24      C       8.9833596299     0.7996670003     1.8853484727
   25      N       9.8214776191    -1.2612162989    -2.0130186551
   26      S      11.3784847933    -0.6453348136    -0.0650041132
   27      C      10.8990299777    -2.1355686110    -2.1555316325
   28      C      11.6909066307    -2.0288754555    -1.0828984533
   29      C      -3.5514730114     2.9310097729    -0.7514918034
   30      H      -1.9046936628     2.3301985280     1.5610110885
   31      H       0.5106108656     2.0334640449     1.5480619016
   32      H       0.1383774166     1.8072141194    -2.8331383027
   33      H       2.5641383705     2.8641298047     1.1129076966
   34      H       8.3683035600     1.5158129083     3.8724310249
   35      H      10.0278482021     0.6501338805     2.1359905850
   36      H      10.9966542489    -2.8976453306    -2.9179898773
   37      H      12.6130281143    -2.5596523777    -0.8869779889
   38      H      -4.0363450886     2.9874988090    -1.7347171375
   39      C      -3.7537194016     4.3335496912    -0.0940435734
   40      H      -4.2024837880     2.2680294328    -0.1699223429
   41      H      -3.5314219873     4.3877875224     0.9799788273
   42      H      -4.8332205299     4.5232975514    -0.1330187408
   43      C      -2.9153658825     5.4550716847    -0.7803567637
   44      H      -1.8876113844     5.2713171177    -0.4465589943
   45      C      -3.5035273324     6.8540880722    -0.3683940759
   46      H      -2.9507474870     5.3440687056    -1.8718490819
   47      H      -3.7330016330     6.8438367730     0.7037656399
   48      H      -4.4972148844     6.9027265667    -0.8294085507
   49      C      -2.7012748003     8.0611461308    -0.8629097159
   50      H      -1.6069642105     8.0109287738    -0.7985393025
   51      C      -3.3597728737     9.3114619252    -0.3008041195
   52      H      -2.8833411821     8.1172496380    -1.9428695434
   53      H      -2.9355687618    10.1993207646    -0.7854076201
   54      H      -3.2720317778     9.4431424969     0.7853103897
   55      H      -4.4340292516     9.3189634252    -0.5193698121
   56      C       1.7515050063    -1.2744590267     1.5857538661
   57      C       1.2990504113    -1.6759960029     0.3300174701
   58      N       0.8769515369    -0.8471726509     2.4775815300
   59      C      -0.0426464623    -1.5992691864     0.0018094644
   60      C      -0.4536238284    -0.8255467137     2.2164943494
   61      C      -1.0026549675    -1.2242944157     0.9847410955
   62      C      -2.4899134297    -1.0988385192     0.7006159740
   63      C      -3.3806126806    -0.3888674608     1.5377473499
   64      C      -3.1660950549    -1.9887240251    -0.1971875658
   65      N      -4.7466608777    -0.4417134124     1.4335570016
   66      N      -2.5401337778    -2.8466383799    -1.0902258849
   67      C      -4.5407339092    -2.0809447967    -0.2786881772
   68      C      -5.3551863626    -1.2780424275     0.5277316803
   69      S      -3.7157119837    -3.5557403330    -1.9404230985
   70      N      -5.0010159241    -2.9971233783    -1.1140655011
   71      C      -6.8110860686    -1.1440055122     0.4742512955
   72      S      -7.9032053852    -2.3367231639    -0.2526881804
   73      C      -7.6045347524    -0.1620223656     1.0489236247
   74      C      -9.3363767553    -1.4416882658     0.0695700313
   75      S      -7.0762950901     1.2525540103     1.8431865132
   76      C      -8.9322242844    -0.4027203923     0.8594032657
   77      C     -10.6597555747    -1.7539020288    -0.3784322752
   78      C      -8.8062626928     1.3591558519     2.3724068274
   79      C      -9.6305209289     0.5489898467     1.6656088334
   80      N     -11.6213258978    -1.0487248832     0.0972322149
   81      S     -10.9234481569    -3.2793830963    -1.2418109492
   82      C     -12.8277352978    -1.6665700812    -0.1626382738
   83      C     -12.6777608607    -2.8746065204    -0.8202853142
   84      C       3.2070859738    -1.2331195247     2.0516090933
   85      H       2.0173420408    -1.8883922762    -0.4562617157
   86      H      -0.3148985425    -1.8492496405    -1.0188616763
   87      H      -1.0478783723    -0.6368368644     3.1096461449
   88      H      -3.0067030465     0.2727867110     2.3176437164
   89      H      -9.1113265858     2.2079356968     2.9705563038
   90      H     -10.7050410942     0.6602796150     1.7637668781
   91      H     -13.6925934784    -1.1303662290     0.2062611114
   92      H     -13.4018538555    -3.6767474039    -0.8878747961
   93      H       3.6920028351    -0.3140621257     1.7010750223
   94      C       4.0039541763    -2.3685798559     1.4236633123
   95      H       3.2263796365    -1.2833074229     3.1469327576
   96      H       3.9759384578    -2.3284375195     0.3284511355
   97      H       3.5809716790    -3.2898611928     1.8446472851
   98      C       5.4989140699    -2.5271891683     1.8434775600
   99      H       6.0070516668    -1.5921190096     1.5771657483
  100      C       6.1264014945    -3.7060217119     1.0536583617
  101      H       5.6422749212    -2.6805238886     2.9204418723
  102      H       5.8972089835    -3.4178621276     0.0194162010
  103      H       5.6229733540    -4.6635762459     1.2321392342
  104      C       7.6891099965    -3.7410422514     1.2978994301
  105      H       7.9911820361    -4.7206244603     0.9053485684
  106      C       8.0247777875    -3.4190553904     2.7442706119
  107      H       8.1671711925    -2.9875636411     0.6591941172
  108      H       7.9347122764    -2.3372448718     2.9042712541
  109      H       9.0840770632    -3.6340770255     2.9349135789
  110      H       7.4193921539    -3.9316533071     3.5018328934
 ----------------------------------------------------------------

   10   -5663.4838451576      4.58E-06 Convergence criterion met
 Total energy in the final basis set = -5663.4838451576

                    Orbital Energies (a.u.)
 --------------------------------------------------------------

 Alpha MOs
 -- Occupied --
-88.991 -88.989 -88.929 -88.925 -88.918 -88.916 -88.913 -88.904
-14.392 -14.385 -14.380 -14.379 -14.353 -14.349 -14.343 -14.339
-14.327 -14.320 -10.271 -10.271 -10.266 -10.262 -10.256 -10.255
-10.252 -10.249 -10.241 -10.239 -10.239 -10.238 -10.237 -10.235
-10.234 -10.234 -10.233 -10.230 -10.229 -10.227 -10.225 -10.225
-10.224 -10.224 -10.223 -10.222 -10.218 -10.217 -10.215 -10.214
-10.213 -10.208 -10.204 -10.204 -10.203 -10.200 -10.192 -10.190
-10.182 -10.179 -10.177 -10.175 -10.174 -10.174 -10.173 -10.172
-10.171 -10.169 -10.168 -10.166  -8.046  -8.045  -7.989  -7.986
 -7.979  -7.975  -7.973  -7.964  -6.011  -6.010  -6.006  -6.004
 -6.004  -6.002  -5.953  -5.950  -5.950  -5.947  -5.946  -5.943
 -5.943  -5.939  -5.939  -5.937  -5.936  -5.935  -5.934  -5.932
 -5.929  -5.929  -5.926  -5.920  -1.043  -1.041  -0.979  -0.977
 -0.966  -0.948  -0.938  -0.926  -0.921  -0.920  -0.909  -0.901
 -0.848  -0.847  -0.836  -0.828  -0.811  -0.806  -0.801  -0.800
 -0.799  -0.797  -0.796  -0.795  -0.781  -0.780  -0.767  -0.766
 -0.753  -0.749  -0.739  -0.738  -0.722  -0.721  -0.710  -0.707
 -0.694  -0.692  -0.683  -0.673  -0.653  -0.650  -0.644  -0.642
 -0.635  -0.633  -0.625  -0.618  -0.610  -0.610  -0.599  -0.598
 -0.593  -0.592  -0.581  -0.577  -0.577  -0.574  -0.567  -0.556
 -0.552  -0.549  -0.546  -0.534  -0.525  -0.525  -0.519  -0.511
 -0.505  -0.502  -0.500  -0.499  -0.487  -0.485  -0.482  -0.475
 -0.474  -0.472  -0.467  -0.466  -0.460  -0.458  -0.454  -0.446
 -0.441  -0.441  -0.439  -0.438  -0.434  -0.432  -0.431  -0.428
 -0.424  -0.424  -0.420  -0.418  -0.417  -0.414  -0.413  -0.412
 -0.411  -0.408  -0.404  -0.402  -0.401  -0.398  -0.398  -0.397
 -0.395  -0.394  -0.391  -0.391  -0.386  -0.383  -0.382  -0.381
 -0.379  -0.376  -0.372  -0.369  -0.365  -0.362  -0.361  -0.356
 -0.352  -0.351  -0.348  -0.347  -0.346  -0.345  -0.341  -0.337
 -0.336  -0.333  -0.332  -0.330  -0.326  -0.324  -0.319  -0.313
 -0.311  -0.309  -0.308  -0.307  -0.305  -0.303  -0.301  -0.296
 -0.293  -0.292  -0.291  -0.290  -0.286  -0.283  -0.281  -0.279
 -0.272  -0.271  -0.270  -0.259  -0.258  -0.252  -0.249  -0.244
 -0.241  -0.240  -0.233  -0.228  -0.196  -0.192

          Ground-State Mulliken Net Atomic Charges

     Atom                 Charge (a.u.)
  ----------------------------------------
      1 C                     0.275931
      2 C                    -0.132412
      3 N                    -0.483595
      4 C                    -0.072742
      5 C                     0.072657
      6 C                     0.032561
      7 C                     0.052137
      8 C                     0.038765
      9 C                     0.247923
     10 N                    -0.504061
     11 N                    -0.559323
     12 C                     0.245544
     13 C                     0.286404
     14 S                     0.598319
     15 N                    -0.580816
     16 C                    -0.204932
     17 S                     0.350379
     18 C                    -0.134612
     19 C                    -0.239980
     20 S                     0.297844
     21 C                     0.135767
     22 C                     0.080629
     23 C                    -0.308194
     24 C                    -0.070304
     25 N                    -0.447755
     26 S                     0.249866
     27 C                     0.131766
     28 C                    -0.297468
     29 C                    -0.245277
     30 H                     0.090258
     31 H                     0.120061
     32 H                     0.120484
     33 H                     0.113418
     34 H                     0.122462
     35 H                     0.119842
     36 H                     0.127060
     37 H                     0.123904
     38 H                     0.119587
     39 C                    -0.193183
     40 H                     0.117019
     41 H                     0.092170
     42 H                     0.092695
     43 C                    -0.175056
     44 H                     0.098843
     45 C                    -0.171371
     46 H                     0.098912
     47 H                     0.087059
     48 H                     0.094639
     49 C                    -0.175160
     50 H                     0.095704
     51 C                    -0.316218
     52 H                     0.097337
     53 H                     0.093049
     54 H                     0.101433
     55 H                     0.101173
     56 C                     0.282231
     57 C                    -0.115039
     58 N                    -0.496971
     59 C                    -0.069103
     60 C                     0.041873
     61 C                     0.054911
     62 C                     0.054997
     63 C                     0.053009
     64 C                     0.217252
     65 N                    -0.543837
     66 N                    -0.547956
     67 C                     0.230175
     68 C                     0.299779
     69 S                     0.608197
     70 N                    -0.569264
     71 C                    -0.232211
     72 S                     0.303257
     73 C                    -0.091734
     74 C                    -0.226148
     75 S                     0.268535
     76 C                     0.161684
     77 C                     0.108504
     78 C                    -0.295705
     79 C                    -0.064693
     80 N                    -0.433737
     81 S                     0.245374
     82 C                     0.134341
     83 C                    -0.314172
     84 C                    -0.232697
     85 H                     0.080729
     86 H                     0.126281
     87 H                     0.101645
     88 H                     0.109734
     89 H                     0.114699
     90 H                     0.120363
     91 H                     0.122985
     92 H                     0.130939
     93 H                     0.126905
     94 C                    -0.192401
     95 H                     0.118043
     96 H                     0.089053
     97 H                     0.098769
     98 C                    -0.191967
     99 H                     0.104437
    100 C                    -0.183233
    101 H                     0.093790
    102 H                     0.094040
    103 H                     0.089830
    104 C                    -0.182713
    105 H                     0.087964
    106 C                    -0.319980
    107 H                     0.108910
    108 H                     0.116053
    109 H                     0.089938
    110 H                     0.103193
  ----------------------------------------
  Sum of atomic charges =     0.000000

                    Cartesian Multipole Moments
 -----------------------------------------------------------------
    Charge (ESU x 10^10)
                 0.0000
    Dipole Moment (Debye)
         X       0.0755      Y      -1.7403      Z       0.2620
       Tot       1.7615
    Quadrupole Moments (Debye-Ang)
        XX    -363.9640     XY      -3.4343     YY    -437.5958
        XZ       6.4434     YZ      16.7459     ZZ    -443.5753

 Total job time:  105.45s(wall), 1280.73s(cpu)
        *  Thank you very much for using Q-Chem.  Have a nice day.  *
