 Q-Chem 4.4, Q-Chem, Inc., Pleasanton, CA (2016)
 Q-Chem 4.4.2 for Intel X86 Linux

User input:
--------------------------------------------------------------
$comment
SP
$end

$rem
MEM_STATIC 5000
MEM_TOTAL 20000
JOBTYPE SP
EXCHANGE B3LYP
BASIS 6-31g(d,p)
$end

$molecule
0 1
C          -0.137000    -18.893000     -4.765000
C           0.444000    -18.403000     -3.564000
N          -1.057000    -19.859000     -4.703000
C           0.141000    -18.957000     -2.328000
C          -1.411000    -20.460000     -3.522000
C          -0.875000    -20.013000     -2.264000
C          -1.379000    -20.588000     -0.928000
C          -2.754000    -20.602000     -0.646000
C          -0.522000    -20.910000      0.106000
N          -3.244000    -21.031000      0.493000
N           0.849000    -20.855000     -0.032000
C          -0.997000    -21.214000      1.380000
C          -2.426000    -21.240000      1.562000
S           1.364000    -21.297000      1.468000
N          -0.101000    -21.433000      2.273000
C          -3.296000    -21.572000      2.639000
S          -5.022000    -21.047000      2.797000
C          -2.988000    -22.295000      3.752000
C          -5.151000    -21.727000      4.392000
S          -1.498000    -23.147000      4.159000
C          -4.015000    -22.357000      4.715000
C          -6.261000    -21.585000      5.256000
C          -2.266000    -23.541000      5.772000
C          -3.506000    -23.008000      5.902000
N          -7.450000    -21.650000      4.698000
S          -6.203000    -21.462000      6.979000
C          -8.371000    -21.446000      5.703000
C          -7.910000    -21.252000      6.934000
C           0.276000    -18.243000     -6.050000
H           1.251000    -17.685000     -3.674000
H           0.685000    -18.563000     -1.476000
H          -2.041000    -21.342000     -3.633000
H          -3.464000    -20.310000     -1.418000
H          -1.657000    -24.139000      6.437000
H          -4.126000    -23.153000      6.781000
H          -9.405000    -21.505000      5.388000
H          -8.390000    -21.019000      7.875000
H           0.803000    -17.310000     -5.814000
C          -0.841000    -18.198000     -7.195000
H           1.071000    -18.816000     -6.543000
H          -1.806000    -18.122000     -6.679000
H          -0.829000    -19.169000     -7.705000
C          -0.608000    -17.068000     -8.163000
H          -0.836000    -16.108000     -7.685000
C          -1.381000    -17.299000     -9.477000
H           0.457000    -17.037000     -8.424000
H          -2.467000    -17.302000     -9.321000
H          -1.081000    -18.277000     -9.875000
C          -0.930000    -16.290000    -10.570000
H          -1.262000    -15.274000    -10.322000
C          -1.519000    -16.782000    -11.956000
H           0.149000    -16.196000    -10.747000
H          -1.209000    -17.803000    -12.208000
H          -1.124000    -16.184000    -12.786000
H          -2.616000    -16.773000    -11.966000
C          -5.858000    -17.743000     -2.589000
C          -7.173000    -18.122000     -2.509000
N          -5.165000    -17.573000     -1.444000
C          -7.781000    -18.259000     -1.278000
C          -5.735000    -17.750000     -0.285000
C          -7.026000    -18.119000     -0.090000
C          -7.628000    -18.392000      1.296000
C          -7.241000    -17.607000      2.355000
C          -8.709000    -19.170000      1.525000
N          -7.874000    -17.594000      3.582000
N          -9.238000    -19.972000      0.567000
C          -9.435000    -19.215000      2.717000
C          -8.998000    -18.367000      3.806000
S         -10.421000    -20.745000      1.326000
N         -10.473000    -20.055000      2.807000
C          -9.624000    -18.416000      5.154000
S         -11.365000    -18.861000      5.391000
C          -9.142000    -18.044000      6.378000
C         -11.245000    -18.685000      7.144000
S          -7.450000    -17.641000      6.832000
C          -9.985000    -18.307000      7.472000
C         -12.112000    -19.226000      8.149000
C          -8.001000    -17.825000      8.453000
C          -9.271000    -18.166000      8.724000
N         -13.202000    -19.742000      7.598000
S         -12.004000    -19.377000      9.955000
C         -14.087000    -20.295000      8.530000
C         -13.592000    -20.183000      9.825000
C          -5.066000    -17.594000     -3.856000
H          -7.806000    -18.023000     -3.385000
H          -8.859000    -18.391000     -1.268000
H          -5.045000    -17.671000      0.553000
H          -6.601000    -16.730000      2.266000
H          -7.261000    -17.625000      9.219000
H          -9.744000    -18.312000      9.688000
H         -15.056000    -20.702000      8.274000
H         -14.050000    -20.538000     10.738000
H          -5.652000    -17.082000     -4.629000
C          -4.589000    -18.962000     -4.497000
H          -4.235000    -16.957000     -3.530000
H          -3.815000    -19.292000     -3.793000
H          -4.090000    -18.767000     -5.456000
C          -5.725000    -20.011000     -4.747000
H          -6.266000    -20.138000     -3.802000
C          -5.130000    -21.347000     -5.265000
H          -6.322000    -19.615000     -5.577000
H          -4.547000    -21.863000     -4.491000
H          -4.486000    -21.389000     -6.152000
C          -6.184000    -22.347000     -5.549000
H          -7.035000    -22.234000     -4.865000
C          -5.590000    -23.740000     -5.707000
H          -6.500000    -21.954000     -6.524000
H          -5.184000    -24.145000     -4.773000
H          -4.793000    -23.563000     -6.439000
H          -6.236000    -24.494000     -6.174000
$end

--------------------------------------------------------------

             Standard Nuclear Orientation (Angstroms)
    I     Atom           X                Y                Z
 ----------------------------------------------------------------
    1      C      -8.1231938010    -0.8983937834    -0.9665855512
    2      C      -7.4588847004    -1.7652622830    -1.8761428190
    3      N      -7.5243416023    -0.5654360340     0.1796758419
    4      C      -6.2344064132    -2.3431903240    -1.5710639710
    5      C      -6.3158301575    -1.0936347163     0.5562183227
    6      C      -5.5772968799    -1.9692628891    -0.3141338478
    7      C      -4.1583865071    -2.4463467109     0.0445043839
    8      C      -3.1704638461    -1.5098300239     0.3869811142
    9      C      -3.7474073620    -3.7500917619    -0.1520509115
   10      N      -1.9306148765    -1.8463603596     0.6534090891
   11      N      -4.6146087033    -4.7392502109    -0.5658593168
   12      C      -2.4085904951    -4.1184848135    -0.0381520245
   13      C      -1.4742251500    -3.0946462789     0.3549854285
   14      S      -3.6215615621    -6.0487588895    -0.6640091822
   15      N      -2.1415417565    -5.3449687630    -0.3076851263
   16      C      -0.0829776505    -3.0657580091     0.6560649247
   17      S       0.9684254073    -1.5914669546     0.6299402864
   18      C       0.7124535606    -4.1262165991     0.9708327236
   19      C       2.4037652858    -2.5302188894     0.9156153438
   20      S       0.2774411599    -5.8155121332     1.2329353937
   21      C       2.0818257499    -3.8171403684     1.0942575623
   22      C       3.7263819338    -2.0310987470     0.8976074034
   23      C       2.0639773225    -6.1543549257     1.4336917185
   24      C       2.8259881856    -5.0453084440     1.2665260943
   25      N       3.9125847954    -0.8453190241     1.4347898146
   26      S       5.1298095296    -2.8810404675     0.3542732015
   27      C       5.2469732855    -0.5412567837     1.2709743345
   28      C       6.0154958682    -1.4388007745     0.6632689582
   29      C      -9.4531562754    -0.3470165951    -1.3806833814
   30      H      -8.0247682827    -2.0780414012    -2.7483916336
   31      H      -5.8373131180    -3.0445157881    -2.2973803678
   32      H      -6.0239756660    -0.8720086266     1.5823020581
   33      H      -3.4413282855    -0.4620821362     0.5061650868
   34      H       2.3145708244    -7.1838401064     1.6529476410
   35      H       3.9064812991    -5.0456252064     1.3694849766
   36      H       5.5513837352     0.4050149933     1.6996537045
   37      H       7.0540222030    -1.4390279606     0.3605595259
   38      H      -9.5865283119    -0.5303639322    -2.4542334053
   39      C      -9.8021800767     1.1127496843    -0.8257024847
   40      H     -10.2736684418    -0.9420392994    -0.9610278488
   41      H      -8.8467839633     1.6450208391    -0.7410698418
   42      H     -10.1907639858     0.9934420398     0.1930483345
   43      C     -10.7906592294     1.8279208782    -1.7086816056
   44      H     -10.3102799010     2.1287170683    -2.6472045690
   45      C     -11.4563756165     2.9979015814    -0.9567156181
   46      H     -11.5923759800     1.1310589837    -1.9824346911
   47      H     -10.7322628902     3.7735038766    -0.6777123217
   48      H     -11.9083861891     2.5943328423    -0.0414524236
   49      C     -12.6629849317     3.5583322762    -1.7605454487
   50      H     -12.3206526780     4.0752148571    -2.6658768939
   51      C     -13.4775253437     4.5220254195    -0.8025264286
   52      H     -13.4049959210     2.8324743709    -2.1168542937
   53      H     -13.8109499393     4.0225488464     0.1147500793
   54      H     -14.4148046706     4.8436912203    -1.2721726530
   55      H     -12.8867573561     5.3926481985    -0.4917223722
   56      C      -3.2295780011     2.9533119576    -0.9017450668
   57      C      -2.4266556334     3.8064387955    -0.1898769120
   58      N      -2.6586641204     1.9068933737    -1.5335990754
   59      C      -1.0587482263     3.6259876873    -0.1820844167
   60      C      -1.3699001151     1.7172039563    -1.4824594282
   61      C      -0.4843902197     2.4984458227    -0.8143274269
   62      C       1.0160704827     2.1861657339    -0.7193125502
   63      C       1.6541685685     1.6516936141    -1.8123108969
   64      C       1.8339548913     2.6332786070     0.2591766796
   65      N       3.0255307208     1.5487148094    -1.9353889748
   66      N       1.3586968699     3.2232116191     1.3847511349
   67      C       3.2295315241     2.5990812549     0.2250973136
   68      C       3.8625061148     2.0339580334    -0.9479214041
   69      S       2.6752788179     3.4908604782     2.2611500523
   70      N       3.9105218702     3.0578929303     1.2819265311
   71      C       5.3340584952     1.8426909804    -1.0445211253
   72      S       6.5041037619     2.9286534811    -0.1860605723
   73      C       6.0771057205     0.9983641739    -1.8216163993
   74      C       7.8963071019     2.0349045110    -0.8036102777
   75      S       5.5135691216    -0.4056623004    -2.7924537498
   76      C       7.4646548675     1.0233295222    -1.5963652150
   77      C       9.2352728063     2.0191471594    -0.2924179966
   78      C       7.1785889359    -0.8408482541    -2.8509362576
   79      C       8.1148909095    -0.1031885891    -2.2330213502
   80      N       9.3938595607     2.9557386058     0.6325704919
   81      S      10.6933154142     0.9869352550    -0.6160711103
   82      C      10.6821700412     2.9856819263     1.1775636141
   83      C      11.4893789444     1.9993034106     0.6207286202
   84      C      -4.7286985605     3.0113534027    -0.9651701340
   85      H      -2.8177351654     4.7731166212     0.1108834263
   86      H      -0.4551886037     4.4193109411     0.2491486954
   87      H      -1.0498928387     0.7907398298    -1.9555815746
   88      H       1.1898396853     1.5190267914    -2.7887576197
   89      H       7.4055274224    -1.7260418459    -3.4334199298
   90      H       9.1861662059    -0.2613722315    -2.1919339480
   91      H      11.0163151245     3.7221830787     1.8959361608
   92      H      12.5193740836     1.7766795202     0.8634354735
   93      H      -5.0782354886     4.0440280348    -1.0854865507
   94      C      -5.4627930722     2.4433445851     0.3186932664
   95      H      -4.9394138066     2.4344249988    -1.8736626776
   96      H      -5.2820285323     1.3646911011     0.2325373457
   97      H      -6.5463393054     2.5968660969     0.2234792659
   98      C      -5.0029839307     3.0691389348     1.6789704387
   99      H      -3.9113017033     2.9808578860     1.7266293387
  100      C      -5.7001817498     2.3595964778     2.8696465922
  101      H      -5.3888639124     4.0953968628     1.6830083881
  102      H      -5.3479860146     1.3272974599     2.9942977129
  103      H      -6.7919243057     2.2753724594     2.9350186531
  104      C      -5.3158605281     2.9559507309     4.1689659538
  105      H      -4.2839818717     3.3294907650     4.1461562776
  106      C      -5.7088753943     2.0483456538     5.3265674996
  107      H      -5.9764252046     3.8317453886     4.1293676479
  108      H      -5.1312329503     1.1175651557     5.3611199432
  109      H      -6.7646484458     1.8489078157     5.1076387154
  110      H      -5.7118169360     2.5058582185     6.3238611376
 ----------------------------------------------------------------

    9   -5663.4782915248      8.36E-06 Convergence criterion met
 Total energy in the final basis set = -5663.4782915248

                    Orbital Energies (a.u.)
 --------------------------------------------------------------

 Alpha MOs
 -- Occupied --
-88.983 -88.982 -88.935 -88.923 -88.920 -88.917 -88.914 -88.904
-14.387 -14.385 -14.384 -14.381 -14.349 -14.343 -14.337 -14.337
-14.322 -14.318 -10.273 -10.266 -10.259 -10.257 -10.255 -10.254
-10.249 -10.249 -10.244 -10.236 -10.235 -10.235 -10.235 -10.232
-10.231 -10.229 -10.229 -10.227 -10.227 -10.227 -10.225 -10.224
-10.221 -10.221 -10.219 -10.219 -10.216 -10.214 -10.213 -10.210
-10.209 -10.207 -10.206 -10.203 -10.203 -10.202 -10.190 -10.187
-10.185 -10.181 -10.180 -10.179 -10.177 -10.177 -10.176 -10.174
-10.171 -10.168 -10.166 -10.165  -8.039  -8.038  -7.994  -7.985
 -7.978  -7.975  -7.974  -7.964  -6.004  -6.003  -5.998  -5.997
 -5.997  -5.995  -5.959  -5.955  -5.951  -5.949  -5.945  -5.942
 -5.942  -5.940  -5.939  -5.938  -5.936  -5.935  -5.934  -5.932
 -5.930  -5.929  -5.925  -5.920  -1.047  -1.038  -0.975  -0.959
 -0.958  -0.947  -0.940  -0.924  -0.918  -0.913  -0.911  -0.908
 -0.848  -0.838  -0.831  -0.825  -0.811  -0.807  -0.807  -0.802
 -0.802  -0.798  -0.796  -0.791  -0.787  -0.779  -0.769  -0.763
 -0.747  -0.745  -0.743  -0.737  -0.723  -0.720  -0.710  -0.708
 -0.696  -0.689  -0.674  -0.670  -0.652  -0.652  -0.646  -0.641
 -0.636  -0.635  -0.622  -0.617  -0.613  -0.607  -0.603  -0.596
 -0.594  -0.590  -0.581  -0.579  -0.576  -0.571  -0.570  -0.564
 -0.551  -0.543  -0.540  -0.537  -0.528  -0.521  -0.515  -0.513
 -0.503  -0.501  -0.495  -0.493  -0.491  -0.479  -0.478  -0.477
 -0.475  -0.473  -0.471  -0.468  -0.459  -0.458  -0.449  -0.446
 -0.442  -0.441  -0.439  -0.437  -0.435  -0.431  -0.428  -0.428
 -0.426  -0.424  -0.423  -0.417  -0.417  -0.413  -0.413  -0.410
 -0.405  -0.404  -0.402  -0.401  -0.400  -0.396  -0.393  -0.393
 -0.391  -0.386  -0.384  -0.382  -0.382  -0.379  -0.379  -0.376
 -0.375  -0.373  -0.369  -0.368  -0.365  -0.364  -0.363  -0.357
 -0.356  -0.354  -0.351  -0.349  -0.346  -0.342  -0.340  -0.339
 -0.337  -0.335  -0.333  -0.331  -0.330  -0.327  -0.325  -0.320
 -0.319  -0.315  -0.312  -0.307  -0.305  -0.303  -0.294  -0.294
 -0.294  -0.292  -0.290  -0.289  -0.286  -0.280  -0.279  -0.274
 -0.271  -0.266  -0.266  -0.256  -0.255  -0.252  -0.246  -0.245
 -0.240  -0.238  -0.233  -0.232  -0.198  -0.192

          Ground-State Mulliken Net Atomic Charges

     Atom                 Charge (a.u.)
  ----------------------------------------
      1 C                     0.313642
      2 C                    -0.126594
      3 N                    -0.502825
      4 C                    -0.041886
      5 C                     0.056416
      6 C                     0.007746
      7 C                    -0.002004
      8 C                     0.083996
      9 C                     0.205745
     10 N                    -0.496287
     11 N                    -0.539950
     12 C                     0.278405
     13 C                     0.265255
     14 S                     0.579496
     15 N                    -0.586159
     16 C                    -0.217182
     17 S                     0.334028
     18 C                    -0.116808
     19 C                    -0.200383
     20 S                     0.263946
     21 C                     0.145074
     22 C                     0.028620
     23 C                    -0.304940
     24 C                    -0.062489
     25 N                    -0.428372
     26 S                     0.271651
     27 C                     0.116927
     28 C                    -0.296240
     29 C                    -0.251986
     30 H                     0.082212
     31 H                     0.107397
     32 H                     0.117602
     33 H                     0.122801
     34 H                     0.131967
     35 H                     0.109312
     36 H                     0.126681
     37 H                     0.141759
     38 H                     0.099478
     39 C                    -0.176344
     40 H                     0.121894
     41 H                     0.111700
     42 H                     0.105562
     43 C                    -0.175395
     44 H                     0.093641
     45 C                    -0.168136
     46 H                     0.088684
     47 H                     0.096109
     48 H                     0.094147
     49 C                    -0.180650
     50 H                     0.094344
     51 C                    -0.326179
     52 H                     0.094932
     53 H                     0.101646
     54 H                     0.094597
     55 H                     0.102809
     56 C                     0.265930
     57 C                    -0.121479
     58 N                    -0.482585
     59 C                    -0.062330
     60 C                     0.067547
     61 C                     0.053957
     62 C                     0.085445
     63 C                     0.038875
     64 C                     0.204392
     65 N                    -0.535933
     66 N                    -0.531289
     67 C                     0.219813
     68 C                     0.296951
     69 S                     0.602833
     70 N                    -0.557460
     71 C                    -0.236373
     72 S                     0.341843
     73 C                    -0.094110
     74 C                    -0.231515
     75 S                     0.291852
     76 C                     0.128093
     77 C                     0.076407
     78 C                    -0.308467
     79 C                    -0.062114
     80 N                    -0.442947
     81 S                     0.255607
     82 C                     0.129886
     83 C                    -0.317620
     84 C                    -0.238570
     85 H                     0.090518
     86 H                     0.109050
     87 H                     0.100552
     88 H                     0.124316
     89 H                     0.122683
     90 H                     0.111222
     91 H                     0.126254
     92 H                     0.131599
     93 H                     0.091306
     94 C                    -0.191757
     95 H                     0.119688
     96 H                     0.115877
     97 H                     0.106650
     98 C                    -0.185423
     99 H                     0.110938
    100 C                    -0.171090
    101 H                     0.089791
    102 H                     0.084961
    103 H                     0.097765
    104 C                    -0.173828
    105 H                     0.089190
    106 C                    -0.317362
    107 H                     0.086594
    108 H                     0.106203
    109 H                     0.099692
    110 H                     0.098555
  ----------------------------------------
  Sum of atomic charges =     0.000000

                    Cartesian Multipole Moments
 -----------------------------------------------------------------
    Charge (ESU x 10^10)
                 0.0000
    Dipole Moment (Debye)
         X       3.0632      Y      -1.7865      Z      -0.6711
       Tot       3.6090
    Quadrupole Moments (Debye-Ang)
        XX    -378.9892     XY     -13.1998     YY    -422.3022
        XZ      13.8096     YZ       9.7323     ZZ    -448.2390

 Total job time:  91.84s(wall), 1109.86s(cpu)
        *  Thank you very much for using Q-Chem.  Have a nice day.  *
