 Q-Chem 4.4, Q-Chem, Inc., Pleasanton, CA (2016)
 Q-Chem 4.4.2 for Intel X86 Linux

User input:
--------------------------------------------------------------
$comment
SP
$end

$rem
MEM_STATIC 5000
MEM_TOTAL 20000
JOBTYPE SP
EXCHANGE B3LYP
BASIS 6-31g(d,p)
$end

$molecule
0 1
C         -28.022000     -0.605000     -4.779000
C         -27.259000     -1.720000     -4.487000
N         -27.420000      0.479000     -5.192000
C         -25.875000     -1.812000     -4.879000
C         -26.063000      0.507000     -5.335000
C         -25.185000     -0.638000     -5.254000
C         -23.693000     -0.634000     -5.445000
C         -22.980000      0.552000     -5.063000
C         -22.833000     -1.770000     -5.778000
N         -21.647000      0.817000     -5.251000
N         -23.230000     -3.014000     -6.054000
C         -21.462000     -1.591000     -5.727000
C         -20.910000     -0.216000     -5.647000
S         -21.952000     -3.890000     -6.313000
N         -20.812000     -2.692000     -6.067000
C         -19.448000      0.068000     -5.712000
S         -18.233000     -1.247000     -5.842000
C         -18.911000      1.340000     -5.788000
C         -16.962000     -0.027000     -5.845000
S         -19.649000      2.940000     -5.789000
C         -17.512000      1.303000     -5.785000
C         -15.563000     -0.296000     -6.005000
C         -18.011000      3.516000     -6.033000
C         -16.963000      2.593000     -5.966000
N         -14.656000      0.648000     -6.038000
S         -15.022000     -1.963000     -5.974000
C         -13.407000      0.085000     -6.247000
C         -13.417000     -1.284000     -6.209000
C         -29.527000     -0.598000     -4.762000
H         -27.788000     -2.604000     -4.143000
H         -25.351000     -2.746000     -4.700000
H         -25.558000      1.426000     -5.630000
H         -23.501000      1.471000     -4.800000
H         -17.835000      4.584000     -6.059000
H         -15.922000      2.797000     -6.189000
H         -12.563000      0.752000     -6.365000
H         -12.546000     -1.910000     -6.351000
H         -29.951000      0.414000     -4.762000
C         -30.063000     -0.970000     -3.372000
H         -29.972000     -1.253000     -5.522000
H         -29.708000     -0.310000     -2.571000
H         -29.686000     -1.936000     -3.016000
C         -31.648000     -1.058000     -3.345000
H         -32.024000     -0.071000     -3.046000
C         -32.337000     -1.997000     -2.307000
H         -31.998000     -1.443000     -4.310000
H         -33.242000     -1.557000     -1.872000
H         -31.675000     -2.235000     -1.466000
C         -32.875000     -3.331000     -3.009000
H         -33.376000     -3.923000     -2.234000
C         -31.774000     -4.173000     -3.803000
H         -33.614000     -3.076000     -3.779000
H         -31.307000     -3.679000     -4.664000
H         -32.095000     -5.144000     -4.199000
H         -30.917000     -4.357000     -3.143000
C         -14.903000     -4.041000    -10.942000
C         -15.227000     -3.457000     -9.668000
N         -15.835000     -4.055000    -11.902000
C         -16.515000     -2.988000     -9.342000
C         -17.039000     -3.580000    -11.647000
C         -17.461000     -3.026000    -10.399000
C         -18.918000     -2.649000    -10.247000
C         -19.314000     -1.518000     -9.502000
C         -20.029000     -3.430000    -10.694000
N         -20.614000     -1.130000     -9.219000
N         -19.871000     -4.644000    -11.367000
C         -21.301000     -3.113000    -10.376000
C         -21.639000     -1.911000     -9.678000
S         -21.405000     -5.157000    -11.671000
N         -22.213000     -4.018000    -10.850000
C         -23.018000     -1.443000     -9.363000
S         -24.460000     -2.377000     -9.619000
C         -23.378000     -0.157000     -8.913000
C         -25.551000     -1.021000     -9.327000
S         -22.323000      1.205000     -8.612000
C         -24.736000      0.118000     -8.965000
C         -26.986000     -1.097000     -9.224000
C         -23.869000      2.216000     -8.443000
C         -25.011000      1.452000     -8.588000
N         -27.436000     -2.364000     -9.112000
S         -28.154000      0.202000     -9.262000
C         -28.806000     -2.330000     -9.279000
C         -29.282000     -1.078000     -9.501000
C         -13.646000     -4.888000    -11.129000
H         -14.435000     -3.442000     -8.925000
H         -16.730000     -2.649000     -8.332000
H         -17.727000     -3.509000    -12.489000
H         -18.535000     -0.895000     -9.064000
H         -23.712000      3.225000     -8.088000
H         -26.050000      1.757000     -8.540000
H         -29.511000     -3.151000     -9.272000
H         -30.292000     -0.803000     -9.778000
H         -12.758000     -4.245000    -11.095000
C         -13.683000     -5.857000    -12.324000
H         -13.597000     -5.489000    -10.213000
H         -13.671000     -5.405000    -13.324000
H         -14.543000     -6.534000    -12.247000
C         -12.390000     -6.653000    -12.454000
H         -11.515000     -6.000000    -12.341000
C         -12.351000     -7.489000    -13.819000
H         -12.259000     -7.273000    -11.558000
H         -13.335000     -7.922000    -14.034000
H         -11.638000     -8.317000    -13.713000
C         -11.836000     -6.638000    -15.011000
H         -12.135000     -7.206000    -15.902000
C         -10.390000     -6.260000    -14.954000
H         -12.420000     -5.712000    -15.070000
H         -10.188000     -5.648000    -14.065000
H         -10.047000     -5.695000    -15.829000
H          -9.813000     -7.186000    -14.843000
$end

--------------------------------------------------------------

             Standard Nuclear Orientation (Angstroms)
    I     Atom           X                Y                Z
 ----------------------------------------------------------------
    1      C      -7.3486729141    -0.4595446832    -0.6085795105
    2      C      -6.5429628829    -0.2073365375    -1.7030567359
    3      N      -6.8403131905    -1.0950104403     0.4140556458
    4      C      -5.1126258653    -0.3748953811    -1.6426907673
    5      C      -5.5366407594    -1.4986936915     0.4014055434
    6      C      -4.5502153887    -1.1254536518    -0.5865857829
    7      C      -3.1012721221    -1.5291772613    -0.5980599900
    8      C      -2.7657417174    -2.8069326046    -0.0362329434
    9      C      -1.9984763124    -0.8757460123    -1.3036476917
   10      N      -1.5103759175    -3.3248489588     0.1594130596
   11      N      -2.0646726094     0.2556172915    -2.0085988426
   12      C      -0.7707649611    -1.5130080865    -1.3337290256
   13      C      -0.5191301092    -2.6517240391    -0.4162679198
   14      S      -0.6417860726     0.5425294002    -2.6092787451
   15      N       0.1330158239    -0.8028493832    -1.9888289484
   16      C       0.8129388870    -3.3108278039    -0.3000809300
   17      S       2.2105287348    -2.8049666975    -1.3066578810
   18      C       1.1190178793    -4.2722928241     0.6454504896
   19      C       3.1843716025    -4.0429371655    -0.5174119185
   20      S       0.1587771923    -5.0433374811     1.9056381581
   21      C       2.4254041742    -4.7475023720     0.4838654220
   22      C       4.5835398284    -4.2581359165    -0.7436413888
   23      C       1.6626881433    -5.8327781274     2.3408292856
   24      C       2.7737083859    -5.6539472052     1.5111452965
   25      N       5.2759416707    -5.1681522385    -0.1054220045
   26      S       5.3623044544    -3.3940583009    -2.0549104426
   27      C       6.6019462568    -5.1069711268    -0.5036929038
   28      C       6.8149443643    -4.2444121901    -1.5459639276
   29      C      -8.7549981356     0.0592075406    -0.4725335565
   30      H      -6.9952746825     0.3195493977    -2.5381844191
   31      H      -4.5234491122    -0.0784117900    -2.5052110475
   32      H      -5.1285844985    -2.0727636177     1.2323958007
   33      H      -3.4933168566    -3.3933112129     0.5223058149
   34      H       1.6517548480    -6.5679137458     3.1356450415
   35      H       3.7793641645    -6.0050521131     1.7121622075
   36      H       7.3108863259    -5.7581921189    -0.0092596951
   37      H       7.7784295763    -4.0534593976    -1.9997417116
   38      H      -9.3227675698    -0.4441077770     0.3200770419
   39      C      -9.6417893159    -0.4487399495    -1.6185574437
   40      H      -8.8093720672     1.1538933207    -0.4145980900
   41      H      -9.6853043507    -1.5423689499    -1.6914138179
   42      H      -9.2414010646    -0.1988893117    -2.6081456949
   43      C     -11.1094804181     0.1530745952    -1.5522243260
   44      H     -11.7255753788    -0.5530822508    -0.9806339933
   45      C     -11.9268808339     0.3036331836    -2.8724798587
   46      H     -11.0551120926     1.1779813562    -1.1667892259
   47      H     -12.9854005127     0.0470683585    -2.7477378041
   48      H     -11.5439826278    -0.3457922867    -3.6685982683
   49      C     -11.9702199585     1.8309722422    -3.3490940846
   50      H     -12.5867254830     1.8681209350    -4.2549808948
   51      C     -10.5437575400     2.5201382754    -3.5536818346
   52      H     -12.4507319135     2.4488190315    -2.5800559801
   53      H      -9.9141015588     2.6164832336    -2.6605429908
   54      H     -10.5470411608     3.5291268643    -3.9833668881
   55      H      -9.9299025289     1.8887751677    -4.2082562395
   56      C       7.4449849920     1.2618333592    -0.3233263042
   57      C       6.6292091669     0.1391200580    -0.7016550586
   58      N       6.8928956402     2.2504133438     0.3896442152
   59      C       5.2449943434     0.0735201978    -0.4470436280
   60      C       5.6088619377     2.1990419391     0.6877791341
   61      C       4.7155482847     1.1480966818     0.3136016580
   62      C       3.2465320811     1.3195157467     0.6309167972
   63      C       2.4420947412     0.2261862543     1.0162908846
   64      C       2.4925968793     2.5208712630     0.4508678174
   65      N       1.0745900139     0.2462355487     1.2402592899
   66      N       3.0665117534     3.7037749480    -0.0214134434
   67      C       1.1519174353     2.5532143187     0.5962279050
   68      C       0.4045347056     1.4251381791     1.0600331212
   69      S       1.8267540255     4.7856642415    -0.0568723312
   70      N       0.6130813530     3.7822274391     0.3230476966
   71      C      -1.0605577323     1.3999479900     1.3297730010
   72      S      -2.1582079855     2.6887862795     0.9407797037
   73      C      -1.7621365429     0.3929033839     2.0222643972
   74      C      -3.5002000802     2.0029573961     1.8589174715
   75      S      -1.1123810824    -1.0653991216     2.7362963601
   76      C      -3.0552522121     0.7328393383     2.3893998124
   77      C      -4.8551722509     2.4923896378     1.8697108693
   78      C      -2.7783657977    -1.2835394919     3.5222401923
   79      C      -3.6622685661    -0.2861224510     3.1578775399
   80      N      -5.0929103041     3.3953966567     0.8958567006
   81      S      -6.1516696769     2.0936334247     2.9711448922
   82      C      -6.3184728235     3.9730044918     1.1610183490
   83      C      -6.9035333030     3.4830103955     2.2839493446
   84      C       8.8199536366     1.4888388490    -0.9481116547
   85      H       7.1215108267    -0.6538016787    -1.2570397858
   86      H       4.6584448474    -0.7512970533    -0.8431271938
   87      H       5.2307349968     2.9662993071     1.3628236865
   88      H       2.9172914656    -0.7490221192     1.1161442845
   89      H      -2.9207746555    -2.2311207656     4.0228043211
   90      H      -4.6963926283    -0.1464592206     3.4510184719
   91      H      -6.8356486055     4.7493215628     0.6124055386
   92      H      -7.7998407343     3.8512575244     2.7671481037
   93      H       9.5244882968     0.7348336991    -0.5762835408
   94      C       9.3403097920     2.9352604542    -0.8742942345
   95      H       8.6706112084     1.2411472449    -2.0059413708
   96      H       9.5992405766     3.3142965285     0.1225680946
   97      H       8.6315395198     3.6263197237    -1.3475170017
   98      C      10.7214762480     3.0780201381    -1.5022782259
   99      H      11.3865127439     2.2688161920    -1.1740733617
  100      C      11.3450045340     4.5263068459    -1.2242133262
  101      H      10.6581525829     2.8269781644    -2.5687420278
  102      H      10.5740674863     5.3009628351    -1.3110129051
  103      H      12.1155183760     4.7364393572    -1.9774342414
  104      C      12.0657631678     4.5984511220     0.1489553434
  105      H      12.1748589648     5.6735153301     0.3445085477
  106      C      13.3271602168     3.8018905644     0.2558092750
  107      H      11.3831301230     4.2474097148     0.9317676175
  108      H      13.1209664457     2.7342096944     0.1034587296
  109      H      13.8338841517     3.9058693437     1.2227209914
  110      H      13.9863706422     4.1202989440    -0.5607589824
 ----------------------------------------------------------------

    9   -5663.4985563188      8.16E-06 Convergence criterion met
 Total energy in the final basis set = -5663.4985563188

                    Orbital Energies (a.u.)
 --------------------------------------------------------------

 Alpha MOs
 -- Occupied --
-88.988 -88.987 -88.930 -88.930 -88.926 -88.922 -88.917 -88.907
-14.381 -14.380 -14.377 -14.376 -14.351 -14.351 -14.342 -14.341
-14.324 -14.321 -10.268 -10.267 -10.266 -10.265 -10.256 -10.254
-10.251 -10.250 -10.243 -10.243 -10.240 -10.239 -10.237 -10.236
-10.231 -10.231 -10.230 -10.230 -10.229 -10.229 -10.228 -10.226
-10.226 -10.223 -10.223 -10.221 -10.221 -10.219 -10.217 -10.214
-10.212 -10.210 -10.208 -10.207 -10.205 -10.198 -10.196 -10.193
-10.190 -10.189 -10.185 -10.184 -10.183 -10.182 -10.179 -10.178
-10.174 -10.174 -10.173 -10.170  -8.043  -8.043  -7.992  -7.988
 -7.988  -7.980  -7.976  -7.965  -6.008  -6.008  -6.002  -6.002
 -6.001  -6.000  -5.956  -5.953  -5.952  -5.951  -5.949  -5.949
 -5.948  -5.945  -5.944  -5.944  -5.941  -5.940  -5.938  -5.937
 -5.933  -5.929  -5.926  -5.921  -1.046  -1.028  -0.970  -0.965
 -0.955  -0.943  -0.939  -0.938  -0.907  -0.904  -0.903  -0.886
 -0.844  -0.836  -0.831  -0.826  -0.810  -0.805  -0.804  -0.804
 -0.801  -0.797  -0.791  -0.790  -0.780  -0.775  -0.764  -0.759
 -0.746  -0.745  -0.738  -0.736  -0.726  -0.718  -0.706  -0.705
 -0.693  -0.689  -0.671  -0.667  -0.654  -0.653  -0.643  -0.636
 -0.632  -0.631  -0.624  -0.620  -0.610  -0.608  -0.596  -0.595
 -0.593  -0.588  -0.584  -0.581  -0.575  -0.573  -0.563  -0.555
 -0.550  -0.543  -0.536  -0.532  -0.520  -0.519  -0.514  -0.509
 -0.503  -0.501  -0.496  -0.493  -0.486  -0.479  -0.475  -0.471
 -0.469  -0.469  -0.465  -0.463  -0.461  -0.459  -0.447  -0.444
 -0.444  -0.442  -0.440  -0.436  -0.433  -0.431  -0.429  -0.427
 -0.426  -0.424  -0.419  -0.414  -0.413  -0.411  -0.410  -0.408
 -0.407  -0.404  -0.402  -0.400  -0.397  -0.396  -0.394  -0.393
 -0.391  -0.390  -0.390  -0.388  -0.386  -0.385  -0.384  -0.382
 -0.381  -0.378  -0.376  -0.372  -0.366  -0.364  -0.360  -0.355
 -0.352  -0.349  -0.348  -0.345  -0.344  -0.343  -0.340  -0.338
 -0.336  -0.335  -0.334  -0.332  -0.328  -0.326  -0.324  -0.321
 -0.313  -0.308  -0.305  -0.303  -0.300  -0.299  -0.297  -0.296
 -0.295  -0.294  -0.290  -0.288  -0.285  -0.285  -0.283  -0.281
 -0.278  -0.274  -0.261  -0.259  -0.257  -0.250  -0.249  -0.246
 -0.242  -0.238  -0.228  -0.227  -0.191  -0.189

          Ground-State Mulliken Net Atomic Charges

     Atom                 Charge (a.u.)
  ----------------------------------------
      1 C                     0.294249
      2 C                    -0.120533
      3 N                    -0.495799
      4 C                    -0.075260
      5 C                     0.064066
      6 C                     0.045252
      7 C                     0.057538
      8 C                     0.034011
      9 C                     0.213648
     10 N                    -0.492751
     11 N                    -0.541584
     12 C                     0.232416
     13 C                     0.326801
     14 S                     0.598774
     15 N                    -0.580571
     16 C                    -0.228070
     17 S                     0.331659
     18 C                    -0.104479
     19 C                    -0.235127
     20 S                     0.305647
     21 C                     0.132454
     22 C                     0.093152
     23 C                    -0.307633
     24 C                    -0.059528
     25 N                    -0.451756
     26 S                     0.241704
     27 C                     0.129842
     28 C                    -0.311176
     29 C                    -0.223960
     30 H                     0.083707
     31 H                     0.114651
     32 H                     0.096068
     33 H                     0.108709
     34 H                     0.120306
     35 H                     0.132930
     36 H                     0.117463
     37 H                     0.124974
     38 H                     0.124220
     39 C                    -0.204918
     40 H                     0.116377
     41 H                     0.103619
     42 H                     0.093667
     43 C                    -0.178051
     44 H                     0.097204
     45 C                    -0.185261
     46 H                     0.096708
     47 H                     0.094602
     48 H                     0.093662
     49 C                    -0.187628
     50 H                     0.094572
     51 C                    -0.328774
     52 H                     0.097651
     53 H                     0.101365
     54 H                     0.102888
     55 H                     0.102136
     56 C                     0.275550
     57 C                    -0.135071
     58 N                    -0.479258
     59 C                    -0.052197
     60 C                     0.111349
     61 C                     0.006161
     62 C                     0.024165
     63 C                     0.055350
     64 C                     0.216644
     65 N                    -0.547950
     66 N                    -0.550805
     67 C                     0.205620
     68 C                     0.319500
     69 S                     0.612199
     70 N                    -0.561432
     71 C                    -0.234631
     72 S                     0.378719
     73 C                    -0.137503
     74 C                    -0.222233
     75 S                     0.290704
     76 C                     0.130949
     77 C                     0.060895
     78 C                    -0.326982
     79 C                    -0.060230
     80 N                    -0.441847
     81 S                     0.302148
     82 C                     0.130700
     83 C                    -0.307088
     84 C                    -0.243439
     85 H                     0.079324
     86 H                     0.111403
     87 H                     0.104938
     88 H                     0.121540
     89 H                     0.132074
     90 H                     0.108863
     91 H                     0.117522
     92 H                     0.125161
     93 H                     0.110759
     94 C                    -0.149296
     95 H                     0.115132
     96 H                     0.112725
     97 H                     0.105262
     98 C                    -0.189219
     99 H                     0.086065
    100 C                    -0.187279
    101 H                     0.077501
    102 H                     0.095438
    103 H                     0.086882
    104 C                    -0.173841
    105 H                     0.090058
    106 C                    -0.308801
    107 H                     0.095197
    108 H                     0.104444
    109 H                     0.103215
    110 H                     0.099113
  ----------------------------------------
  Sum of atomic charges =     0.000000

                    Cartesian Multipole Moments
 -----------------------------------------------------------------
    Charge (ESU x 10^10)
                 0.0000
    Dipole Moment (Debye)
         X      -0.9641      Y       0.0274      Z      -1.0863
       Tot       1.4527
    Quadrupole Moments (Debye-Ang)
        XX    -399.3707     XY     -25.2566     YY    -439.7492
        XZ     -11.0048     YZ      -6.9008     ZZ    -435.9667

 Total job time:  97.09s(wall), 1146.15s(cpu)
        *  Thank you very much for using Q-Chem.  Have a nice day.  *
