 Q-Chem 4.4, Q-Chem, Inc., Pleasanton, CA (2016)
 Q-Chem 4.4.2 for Intel X86 Linux

User input:
--------------------------------------------------------------
$comment
SP
$end

$rem
MEM_STATIC 5000
MEM_TOTAL 20000
JOBTYPE SP
EXCHANGE B3LYP
BASIS 6-31g(d,p)
$end

$molecule
0 1
C          12.019000     -0.800000     -9.545000
C          10.913000      0.020000     -9.608000
N          13.236000     -0.230000     -9.656000
C          11.005000      1.440000     -9.758000
C          13.356000      1.108000     -9.945000
C          12.291000      2.064000     -9.969000
C          12.403000      3.612000    -10.112000
C          11.325000      4.519000    -10.101000
C          13.649000      4.335000    -10.220000
N          11.433000      5.877000    -10.133000
N          14.855000      3.750000    -10.018000
C          13.717000      5.674000    -10.272000
C          12.601000      6.573000    -10.249000
S          16.002000      4.826000    -10.303000
N          15.013000      6.145000    -10.305000
C          12.620000      8.071000    -10.165000
S          14.065000      9.047000    -10.157000
C          11.534000      8.940000    -10.050000
C          13.231000     10.515000     -9.959000
S           9.860000      8.515000     -9.976000
C          11.928000     10.258000     -9.868000
C          13.837000     11.813000     -9.650000
C           9.647000     10.250000     -9.431000
C          10.798000     11.065000     -9.508000
N          13.131000     12.934000     -9.901000
S          15.445000     12.041000     -8.991000
C          13.974000     13.997000     -9.845000
C          15.227000     13.698000     -9.507000
C          11.994000     -2.310000     -9.203000
H          10.034000     -0.454000     -9.179000
H          10.097000      2.030000     -9.681000
H          14.330000      1.452000    -10.291000
H          10.293000      4.184000    -10.185000
H           8.595000     10.448000     -9.269000
H          10.811000     12.128000     -9.293000
H          13.560000     14.947000    -10.157000
H          16.121000     14.304000     -9.567000
H          10.965000     -2.659000     -9.053000
C          12.910000     -2.588000     -7.945000
H          12.369000     -2.907000    -10.045000
H          12.698000     -1.968000     -7.067000
H          13.937000     -2.396000     -8.281000
C          12.808000     -4.129000     -7.559000
H          11.804000     -4.402000     -7.209000
C          13.911000     -4.747000     -6.590000
H          12.809000     -4.696000     -8.497000
H          13.516000     -4.492000     -5.598000
H          14.862000     -4.216000     -6.715000
C          14.068000     -6.294000     -6.634000
H          13.077000     -6.761000     -6.581000
C          14.960000     -6.649000     -5.459000
H          14.580000     -6.598000     -7.556000
H          14.610000     -6.284000     -4.486000
H          15.899000     -6.112000     -5.641000
H          15.220000     -7.702000     -5.296000
C           6.711000      5.447000     -7.713000
C           5.399000      4.968000     -7.911000
N           7.365000      6.345000     -8.486000
C           4.702000      5.571000     -8.991000
C           6.624000      6.988000     -9.354000
C           5.269000      6.634000     -9.733000
C           4.505000      7.352000    -10.833000
C           4.499000      8.760000    -10.838000
C           3.483000      6.782000    -11.626000
N           3.774000      9.528000    -11.723000
N           3.298000      5.440000    -11.727000
C           2.691000      7.550000    -12.454000
C           2.761000      8.969000    -12.449000
S           2.191000      5.292000    -12.857000
N           1.910000      6.857000    -13.258000
C           1.905000      9.803000    -13.263000
S           0.285000      9.366000    -13.888000
C           2.053000     11.144000    -13.522000
C          -0.050000     10.902000    -14.647000
S           3.374000     12.210000    -13.138000
C           0.983000     11.709000    -14.322000
C          -1.273000     11.389000    -15.175000
C           2.449000     13.480000    -13.994000
C           1.197000     13.089000    -14.438000
N          -1.213000     12.330000    -16.089000
S          -2.852000     10.928000    -14.619000
C          -2.527000     12.585000    -16.551000
C          -3.487000     11.844000    -15.933000
C           7.545000      4.776000     -6.597000
H           4.856000      4.227000     -7.331000
H           3.677000      5.256000     -9.163000
H           7.057000      7.812000     -9.920000
H           5.213000      9.238000    -10.170000
H           2.814000     14.498000    -14.030000
H           0.426000     13.725000    -14.859000
H          -2.582000     13.263000    -17.393000
H          -4.556000     11.702000    -16.027000
H           7.169000      3.746000     -6.547000
C           7.539000      5.649000     -5.330000
H           8.596000      4.719000     -6.907000
H           8.018000      6.607000     -5.570000
H           8.242000      5.309000     -4.560000
C           6.124000      5.902000     -4.765000
H           6.260000      6.614000     -3.942000
C           5.430000      4.623000     -4.331000
H           5.480000      6.412000     -5.493000
H           5.902000      4.248000     -3.414000
H           5.502000      3.798000     -5.050000
C           4.036000      4.967000     -3.963000
H           3.931000      5.880000     -3.362000
C           3.455000      3.729000     -3.203000
H           3.477000      5.199000     -4.877000
H           3.965000      3.445000     -2.275000
H           3.530000      2.852000     -3.858000
H           2.370000      3.859000     -3.106000
$end

--------------------------------------------------------------

             Standard Nuclear Orientation (Angstroms)
    I     Atom           X                Y                Z
 ----------------------------------------------------------------
    1      C       7.5946372917     3.3754993045     2.1181543749
    2      C       6.2706186274     3.4115616016     1.7369994362
    3      N       8.1651720379     2.1686727013     2.3088626682
    4      C       5.4934969678     2.2313707292     1.5120651550
    5      C       7.4108407325     1.0220422891     2.2426208419
    6      C       6.0540618872     0.9302791142     1.7960027897
    7      C       5.2224019554    -0.3615697503     1.5337714620
    8      C       3.8945411591    -0.4037101590     1.0648750005
    9      C       5.7299010761    -1.7055161421     1.6859612728
   10      N       3.2024161146    -1.5341329787     0.7487117965
   11      N       7.0425329764    -1.9736400363     1.8922912796
   12      C       5.0115726692    -2.7983134428     1.3858823506
   13      C       3.6631272462    -2.8096135651     0.9003380701
   14      S       7.2191205751    -3.5490389873     2.0961171004
   15      N       5.7230506786    -3.9691521834     1.5455121901
   16      C       2.8617244510    -3.9834411770     0.4193980558
   17      S       3.4157200942    -5.6367909769     0.4331190814
   18      C       1.5825771279    -3.9810791650    -0.1387762420
   19      C       2.0181486711    -6.2499365644    -0.3156336186
   20      S       0.5704899442    -2.6089979433    -0.4241700993
   21      C       1.1995699778    -5.2364208670    -0.5892279422
   22      C       1.8486823262    -7.6084192417    -0.8384404411
   23      C      -0.3928026977    -3.7809597216    -1.4494465869
   24      C       0.0005378160    -5.1351933530    -1.3701401431
   25      N       0.5995389748    -8.0721875381    -1.0449297988
   26      S       3.1569304486    -8.7162327769    -1.2033582694
   27      C       0.6614962450    -9.4174166707    -1.2189237002
   28      C       1.8927138079    -9.9250151808    -1.2088705742
   29      C       8.5351378307     4.6028877317     2.1997961840
   30      H       6.0057106402     4.3650326425     1.2874722039
   31      H       4.4946937499     2.3381979836     1.1003940853
   32      H       7.8479279876     0.1193741865     2.6679125396
   33      H       3.2700129217     0.4868568450     1.0308178126
   34      H      -1.2534002147    -3.2709967775    -1.8635259385
   35      H      -0.5185725934    -5.9530909147    -1.8579218169
   36      H      -0.2886347721    -9.9336173740    -1.2639557366
   37      H       2.2133707927   -10.9557803310    -1.1397742423
   38      H       7.9959790500     5.5247768570     1.9496557237
   39      C       9.7935496079     4.3742922814     1.2707924600
   40      H       8.8860502323     4.7577588262     3.2288119421
   41      H       9.5654153081     4.1042843782     0.2338361092
   42      H      10.3597433519     3.5585933524     1.7382846006
   43      C      10.7069871781     5.6775955835     1.3041587320
   44      H      10.2083868092     6.5436998715     0.8499494913
   45      C      12.2062494873     5.5717044165     0.7764338140
   46      H      10.7253080760     6.0307184232     2.3416087813
   47      H      12.0807451200     5.7105667808    -0.3052685007
   48      H      12.5916295151     4.5581677370     0.9383369748
   49      C      13.1821292886     6.6789916851     1.2677254973
   50      H      12.7071320231     7.6603809281     1.1484285924
   51      C      14.4389105693     6.5174641109     0.4330257578
   52      H      13.4468152246     6.5128509151     2.3198579034
   53      H      14.2796808029     6.5408289996    -0.6516649647
   54      H      14.7934550995     5.5012294630     0.6446369970
   55      H      15.2818135035     7.1949963341     0.6158992936
   56      C       0.6256315797     1.9458291790    -2.3478393239
   57      C      -0.1677745278     3.1108378007    -2.2908247625
   58      N       0.3700373646     0.7673356520    -1.7334505187
   59      C      -1.3850419294     2.9673402612    -1.5742450187
   60      C      -0.8351128113     0.6398954563    -1.2361316573
   61      C      -1.7897760643     1.7166022612    -1.0509222357
   62      C      -3.1292084550     1.5227257035    -0.3598703193
   63      C      -3.9276171468     0.4261671681    -0.7375314628
   64      C      -3.8417653869     2.5232997395     0.3396632519
   65      N      -5.1963777625     0.1895999740    -0.2548758271
   66      N      -3.2600360462     3.6761046582     0.7615895412
   67      C      -5.1432368910     2.3334974933     0.7553783362
   68      C      -5.8867354643     1.1823950598     0.3803329269
   69      S      -4.3830889774     4.3674849195     1.6475909227
   70      N      -5.6065636574     3.2803719761     1.5461899582
   71      C      -7.2695888970     0.9818673864     0.7523450718
   72      S      -8.4584523775     2.2635672197     1.1394408766
   73      C      -7.9946400304    -0.1815350212     0.6625581462
   74      C      -9.8217995045     1.1984088788     1.3725166587
   75      S      -7.4648831222    -1.7929259705     0.2731613992
   76      C      -9.3846303329    -0.0385501827     1.0519259607
   77      C     -11.1970141744     1.5225903110     1.4965046037
   78      C      -9.1591109533    -2.2954216597     0.5530741334
   79      C     -10.0353964908    -1.2595562666     0.8298909392
   80      N     -11.9745405909     0.6636871171     2.1147399755
   81      S     -11.9615746471     2.9099701418     0.7855035568
   82      C     -13.2673149856     1.2315147869     2.2213753442
   83      C     -13.3829409396     2.4614884455     1.6500606866
   84      C       1.9970766483     2.0613153176    -3.0528601573
   85      H       0.0219946884     4.0798553515    -2.7439501655
   86      H      -2.0437749547     3.8296023017    -1.5294234292
   87      H      -1.1508651829    -0.3247380363    -0.8403998480
   88      H      -3.4380582439    -0.3243479902    -1.3552393854
   89      H      -9.4654714101    -3.3192546356     0.3835031804
   90      H     -11.1157924967    -1.3205341958     0.9020308215
   91      H     -13.9613097483     0.6558532921     2.8202560609
   92      H     -14.1474585058     3.2231871123     1.5658642976
   93      H       2.3063105000     3.1026404300    -2.8954040200
   94      C       1.9085121588     1.5035285768    -4.4841128544
   95      H       2.7300098550     1.4277695172    -2.5377110203
   96      H       1.6571744981     0.4368211341    -4.4227156884
   97      H       2.8827351966     1.4084337105    -4.9786383229
   98      C       0.8700124264     2.2328497186    -5.3644923056
   99      H       0.8374904877     1.6709913183    -6.3057820918
  100      C       1.2005618197     3.7014101779    -5.5642428396
  101      H      -0.1414274839     2.1627384730    -4.9439049531
  102      H       2.0657823770     3.7901817674    -6.2334296537
  103      H       1.4885136109     4.2330524630    -4.6492509015
  104      C       0.0635388057     4.3279697204    -6.2795034950
  105      H      -0.3369869414     3.7367421055    -7.1136641710
  106      C       0.5618613112     5.7257503926    -6.7751736204
  107      H      -0.7865201181     4.4048709062    -5.5916175788
  108      H       1.4083574917     5.7210363520    -7.4718528824
  109      H       0.9019261056     6.3022406077    -5.9058095036
  110      H      -0.3065003701     6.3030161604    -7.1161226248
 ----------------------------------------------------------------

    9   -5663.4710022949      6.58E-06 Convergence criterion met
 Total energy in the final basis set = -5663.4710022949

                    Orbital Energies (a.u.)
 --------------------------------------------------------------

 Alpha MOs
 -- Occupied --
-88.987 -88.986 -88.927 -88.926 -88.921 -88.919 -88.911 -88.903
-14.384 -14.384 -14.375 -14.371 -14.354 -14.346 -14.344 -14.339
-14.336 -14.325 -10.271 -10.269 -10.269 -10.266 -10.255 -10.252
-10.250 -10.248 -10.243 -10.243 -10.242 -10.239 -10.236 -10.234
-10.234 -10.233 -10.232 -10.232 -10.232 -10.230 -10.227 -10.227
-10.226 -10.225 -10.224 -10.224 -10.222 -10.222 -10.221 -10.221
-10.217 -10.213 -10.205 -10.204 -10.199 -10.199 -10.195 -10.193
-10.192 -10.184 -10.183 -10.180 -10.178 -10.178 -10.178 -10.177
-10.174 -10.173 -10.172 -10.168  -8.044  -8.042  -7.989  -7.988
 -7.981  -7.980  -7.971  -7.962  -6.009  -6.007  -6.003  -6.001
 -6.001  -6.000  -5.953  -5.951  -5.949  -5.948  -5.946  -5.945
 -5.945  -5.944  -5.941  -5.940  -5.937  -5.937  -5.935  -5.932
 -5.927  -5.927  -5.924  -5.919  -1.053  -1.035  -0.972  -0.968
 -0.951  -0.948  -0.946  -0.926  -0.919  -0.917  -0.911  -0.886
 -0.842  -0.839  -0.833  -0.822  -0.816  -0.814  -0.808  -0.805
 -0.802  -0.800  -0.794  -0.790  -0.788  -0.777  -0.770  -0.764
 -0.750  -0.746  -0.741  -0.739  -0.716  -0.716  -0.709  -0.704
 -0.695  -0.693  -0.674  -0.670  -0.654  -0.648  -0.646  -0.641
 -0.636  -0.630  -0.628  -0.619  -0.612  -0.606  -0.600  -0.597
 -0.591  -0.587  -0.584  -0.581  -0.580  -0.577  -0.571  -0.565
 -0.557  -0.555  -0.539  -0.533  -0.530  -0.521  -0.520  -0.512
 -0.503  -0.501  -0.500  -0.497  -0.491  -0.481  -0.480  -0.477
 -0.473  -0.472  -0.471  -0.468  -0.466  -0.455  -0.444  -0.442
 -0.440  -0.439  -0.438  -0.434  -0.433  -0.430  -0.428  -0.427
 -0.427  -0.426  -0.423  -0.420  -0.420  -0.413  -0.413  -0.409
 -0.408  -0.405  -0.403  -0.402  -0.400  -0.398  -0.397  -0.395
 -0.393  -0.388  -0.387  -0.386  -0.385  -0.385  -0.383  -0.383
 -0.381  -0.381  -0.376  -0.366  -0.365  -0.363  -0.359  -0.356
 -0.353  -0.352  -0.351  -0.350  -0.344  -0.342  -0.339  -0.339
 -0.336  -0.334  -0.332  -0.330  -0.329  -0.328  -0.322  -0.321
 -0.318  -0.315  -0.310  -0.308  -0.303  -0.299  -0.299  -0.296
 -0.294  -0.293  -0.292  -0.289  -0.288  -0.284  -0.281  -0.280
 -0.271  -0.267  -0.266  -0.260  -0.258  -0.254  -0.246  -0.243
 -0.240  -0.236  -0.231  -0.227  -0.199  -0.195

          Ground-State Mulliken Net Atomic Charges

     Atom                 Charge (a.u.)
  ----------------------------------------
      1 C                     0.274382
      2 C                    -0.127768
      3 N                    -0.490702
      4 C                    -0.095673
      5 C                     0.070340
      6 C                     0.048852
      7 C                     0.059778
      8 C                     0.047545
      9 C                     0.220408
     10 N                    -0.544667
     11 N                    -0.538683
     12 C                     0.163346
     13 C                     0.344693
     14 S                     0.605874
     15 N                    -0.567160
     16 C                    -0.225899
     17 S                     0.322505
     18 C                    -0.114015
     19 C                    -0.216471
     20 S                     0.309161
     21 C                     0.154390
     22 C                     0.030425
     23 C                    -0.315175
     24 C                    -0.050847
     25 N                    -0.426836
     26 S                     0.271211
     27 C                     0.144797
     28 C                    -0.315683
     29 C                    -0.225682
     30 H                     0.085529
     31 H                     0.101329
     32 H                     0.126751
     33 H                     0.117206
     34 H                     0.121315
     35 H                     0.128440
     36 H                     0.114615
     37 H                     0.129610
     38 H                     0.094580
     39 C                    -0.173684
     40 H                     0.123401
     41 H                     0.098969
     42 H                     0.128703
     43 C                    -0.201094
     44 H                     0.085588
     45 C                    -0.176469
     46 H                     0.085154
     47 H                     0.095250
     48 H                     0.094852
     49 C                    -0.173369
     50 H                     0.094610
     51 C                    -0.314374
     52 H                     0.099348
     53 H                     0.101573
     54 H                     0.102259
     55 H                     0.093814
     56 C                     0.244232
     57 C                    -0.106261
     58 N                    -0.461506
     59 C                    -0.073850
     60 C                     0.086927
     61 C                     0.035713
     62 C                     0.040202
     63 C                     0.062089
     64 C                     0.182852
     65 N                    -0.526889
     66 N                    -0.522836
     67 C                     0.222732
     68 C                     0.311808
     69 S                     0.594829
     70 N                    -0.561656
     71 C                    -0.219408
     72 S                     0.305548
     73 C                    -0.108827
     74 C                    -0.204183
     75 S                     0.292732
     76 C                     0.150687
     77 C                     0.037801
     78 C                    -0.314169
     79 C                    -0.046847
     80 N                    -0.425239
     81 S                     0.277441
     82 C                     0.110259
     83 C                    -0.303712
     84 C                    -0.222053
     85 H                     0.105959
     86 H                     0.103427
     87 H                     0.092760
     88 H                     0.109910
     89 H                     0.122677
     90 H                     0.118135
     91 H                     0.118396
     92 H                     0.140939
     93 H                     0.093075
     94 C                    -0.188915
     95 H                     0.114143
     96 H                     0.107874
     97 H                     0.091419
     98 C                    -0.185956
     99 H                     0.091534
    100 C                    -0.148194
    101 H                     0.094687
    102 H                     0.090239
    103 H                     0.087751
    104 C                    -0.174917
    105 H                     0.097603
    106 C                    -0.327207
    107 H                     0.089685
    108 H                     0.108656
    109 H                     0.097038
    110 H                     0.094517
  ----------------------------------------
  Sum of atomic charges =     0.000000

                    Cartesian Multipole Moments
 -----------------------------------------------------------------
    Charge (ESU x 10^10)
                 0.0000
    Dipole Moment (Debye)
         X      -2.8515      Y       1.5746      Z      -1.8854
       Tot       3.7637
    Quadrupole Moments (Debye-Ang)
        XX    -407.2703     XY     -18.0369     YY    -392.2590
        XZ       0.6069     YZ       2.1875     ZZ    -449.0858

 Total job time:  81.41s(wall), 950.51s(cpu)
        *  Thank you very much for using Q-Chem.  Have a nice day.  *
