 Q-Chem 4.4, Q-Chem, Inc., Pleasanton, CA (2016)
 Q-Chem 4.4.2 for Intel X86 Linux

User input:
--------------------------------------------------------------
$comment
SP
$end

$rem
MEM_STATIC 5000
MEM_TOTAL 20000
JOBTYPE SP
EXCHANGE B3LYP
BASIS 6-31g(d,p)
$end

$molecule
0 1
C          -2.634000     18.386000     -3.431000
C          -3.095000     19.692000     -3.474000
N          -1.421000     18.046000     -3.886000
C          -2.265000     20.687000     -3.953000
C          -0.602000     19.094000     -4.268000
C          -0.905000     20.486000     -4.356000
C           0.053000     21.617000     -4.654000
C          -0.444000     22.943000     -4.884000
C           1.431000     21.584000     -4.431000
N           0.312000     24.118000     -4.886000
N           2.140000     20.484000     -4.247000
C           2.222000     22.711000     -4.448000
C           1.622000     23.970000     -4.661000
S           3.652000     20.930000     -3.952000
N           3.593000     22.546000     -4.216000
C           2.340000     25.260000     -4.656000
S           2.273000     26.570000     -5.889000
C           3.199000     25.655000     -3.720000
C           3.434000     27.535000     -5.064000
S           3.596000     24.821000     -2.202000
C           3.707000     26.878000     -3.877000
C           3.883000     28.788000     -5.539000
C           4.358000     26.345000     -1.688000
C           4.440000     27.270000     -2.695000
N           2.993000     29.501000     -6.161000
S           5.272000     29.655000     -5.046000
C           3.602000     30.632000     -6.567000
C           4.894000     30.882000     -6.078000
C          -3.630000     17.342000     -2.987000
H          -4.127000     19.905000     -3.212000
H          -2.728000     21.668000     -3.997000
H           0.352000     18.628000     -4.512000
H          -1.513000     23.039000     -5.068000
H           4.833000     26.415000     -0.717000
H           4.916000     28.231000     -2.539000
H           2.999000     31.282000     -7.188000
H           5.593000     31.661000     -6.352000
H          -4.272000     17.664000     -2.158000
C          -2.971000     16.085000     -2.495000
H          -4.243000     17.109000     -3.866000
H          -2.431000     16.377000     -1.587000
H          -2.251000     15.642000     -3.195000
C          -3.922000     14.936000     -2.001000
H          -4.695000     15.364000     -1.351000
C          -3.150000     13.702000     -1.372000
H          -4.485000     14.463000     -2.813000
H          -3.887000     13.092000     -0.834000
H          -2.342000     14.020000     -0.702000
C          -2.427000     12.799000     -2.432000
H          -3.230000     12.657000     -3.165000
C          -1.987000     11.483000     -1.747000
H          -1.600000     13.271000     -2.977000
H          -1.820000     10.769000     -2.563000
H          -2.716000     11.126000     -1.008000
H          -1.031000     11.676000     -1.245000
C           3.457000     19.167000     -7.921000
C           3.125000     18.979000     -9.230000
N           2.572000     19.865000     -7.116000
C           1.991000     19.555000     -9.856000
C           1.458000     20.355000     -7.681000
C           1.126000     20.312000     -9.043000
C          -0.181000     20.880000     -9.643000
C          -0.174000     21.116000    -11.077000
C          -1.355000     21.322000     -8.966000
N          -1.290000     21.551000    -11.784000
N          -1.527000     21.215000     -7.633000
C          -2.453000     21.811000     -9.699000
C          -2.380000     21.944000    -11.135000
S          -3.020000     21.806000     -7.362000
N          -3.553000     21.972000     -8.945000
C          -3.391000     22.420000    -12.107000
S          -3.718000     21.689000    -13.709000
C          -4.343000     23.373000    -11.822000
C          -4.965000     22.908000    -14.086000
S          -4.669000     24.405000    -10.437000
C          -5.132000     23.676000    -12.940000
C          -5.469000     23.317000    -15.331000
C          -5.952000     25.230000    -11.357000
C          -6.099000     24.738000    -12.605000
N          -6.521000     24.110000    -15.444000
S          -4.691000     22.906000    -16.848000
C          -6.859000     24.239000    -16.796000
C          -6.037000     23.595000    -17.661000
C           4.696000     18.640000     -7.290000
H           3.753000     18.385000     -9.887000
H           1.677000     19.286000    -10.860000
H           0.739000     20.854000     -7.032000
H           0.664000     20.840000    -11.714000
H          -6.417000     26.091000    -10.897000
H          -6.782000     25.144000    -13.343000
H          -7.750000     24.763000    -17.117000
H          -6.168000     23.460000    -18.727000
H           5.576000     19.073000     -7.781000
C           4.672000     17.119000     -7.356000
H           4.866000     18.957000     -6.254000
H           5.664000     16.789000     -7.025000
H           4.662000     16.666000     -8.355000
C           3.690000     16.379000     -6.446000
H           2.662000     16.750000     -6.538000
C           4.048000     16.451000     -4.938000
H           3.823000     15.338000     -6.765000
H           3.301000     15.869000     -4.386000
H           3.967000     17.508000     -4.658000
C           5.424000     16.049000     -4.456000
H           6.202000     16.822000     -4.473000
C           6.165000     14.857000     -5.095000
H           5.229000     15.833000     -3.398000
H           5.686000     14.042000     -4.539000
H           7.236000     14.799000     -4.862000
H           5.943000     14.805000     -6.168000
$end

--------------------------------------------------------------

             Standard Nuclear Orientation (Angstroms)
    I     Atom           X                Y                Z
 ----------------------------------------------------------------
    1      C      -2.3452099779     4.2787928751     3.0521372552
    2      C      -1.7606778409     3.2522015825     3.7763185163
    3      N      -2.7464404984     4.1145465197     1.7848443908
    4      C      -1.6302170819     2.0048128364     3.1972094535
    5      C      -2.6750063397     2.8243670006     1.2895435030
    6      C      -2.1252032890     1.6565280975     1.8987117078
    7      C      -2.1807978712     0.2376352383     1.3796921547
    8      C      -1.4230072551    -0.7969777573     2.0227429548
    9      C      -3.1456750069    -0.2607638003     0.5020176643
   10      N      -1.5893938422    -2.1727534482     1.8446369413
   11      N      -3.9369796248     0.4826194081    -0.2514777950
   12      C      -3.3306120102    -1.6061039269     0.2740763371
   13      C      -2.5428123363    -2.5387857538     0.9811309910
   14      S      -4.9288165106    -0.5078858079    -1.0307364227
   15      N      -4.3279052221    -1.9799260118    -0.6349634302
   16      C      -2.6677588843    -4.0057589171     0.8714628629
   17      S      -1.3609208405    -5.2107528133     0.5867840306
   18      C      -3.8098188806    -4.6846440155     0.9408601840
   19      C      -2.4596850521    -6.5340575274     0.5500030398
   20      S      -5.4243785120    -4.0408080783     1.3098608376
   21      C      -3.7020607201    -6.0116556162     0.8642417112
   22      C      -2.0594402424    -7.8718709552     0.3325304560
   23      C      -5.9264526787    -5.7309967222     1.5519349567
   24      C      -4.9686834261    -6.6344250054     1.1739225285
   25      N      -0.9036525014    -8.1966539463     0.8285382244
   26      S      -3.0455244941    -9.1992380795    -0.1031223482
   27      C      -0.6758311646    -9.4825800443     0.4978276125
   28      C      -1.7404570716   -10.2036448007    -0.0656635545
   29      C      -2.3647125133     5.6349102799     3.7152007782
   30      H      -1.3369033063     3.4599089773     4.7542294437
   31      H      -1.1157436795     1.2786179964     3.8190005539
   32      H      -3.1249244043     2.8804268034     0.2989684005
   33      H      -0.6501635461    -0.4754519686     2.7192820913
   34      H      -6.9507671884    -5.9610537985     1.8188048252
   35      H      -5.1492834275    -7.7016320101     1.2276426238
   36      H       0.3026402749    -9.8602706381     0.7655839520
   37      H      -1.7463599843   -11.1973722448    -0.4934355996
   38      H      -2.5877799145     5.6019049212     4.7886254755
   39      C      -3.4069536466     6.5481593721     3.1354564246
   40      H      -1.3713603614     6.0703524559     3.5529028618
   41      H      -4.3689071254     6.0871007500     3.3872469161
   42      H      -3.3572668664     6.6649726497     2.0452569556
   43      C      -3.5148917960     7.9846158799     3.7628160162
   44      H      -3.4981906608     7.9011947781     4.8564224316
   45      C      -4.7247941367     8.8355207418     3.1914332706
   46      H      -2.6562033363     8.6232484998     3.5286269774
   47      H      -4.8694918432     9.6930837642     3.8610310873
   48      H      -5.6438753443     8.2423658626     3.1117776168
   49      C      -4.4929331108     9.3685304856     1.7340798207
   50      H      -3.4876931429     9.7963024498     1.8277054236
   51      C      -5.5773913137    10.4245040227     1.4122859505
   52      H      -4.4242247017     8.6032568995     0.9508981732
   53      H      -5.1824092573    11.0028956208     0.5678966242
   54      H      -5.8301323447    11.0494826586     2.2786199946
   55      H      -6.4746374681     9.8861993729     1.0830953637
   56      C      -2.0583432083     1.1185473395    -3.8616820664
   57      C      -0.8728684883     1.3957467106    -4.4755706530
   58      N      -2.0414332920     0.8324212639    -2.5065806224
   59      C       0.3939612454     1.2915776301    -3.8479567362
   60      C      -0.8534013558     0.8009499898    -1.8837558657
   61      C       0.4062602339     0.9434691660    -2.4838041669
   62      C       1.7486739652     0.9140793467    -1.7170352236
   63      C       2.9352610281     0.6668932966    -2.5189150144
   64      C       1.9741866154     0.9733625364    -0.3107640733
   65      N       4.2249603778     0.6842411958    -1.9984300121
   66      N       0.9898066239     1.1635413092     0.5907624468
   67      C       3.2862889507     0.9334738920     0.1979700004
   68      C       4.4142646650     0.7556850766    -0.6858715720
   69      S       1.7512907767     1.2012246445     2.0296831713
   70      N       3.3465243077     1.2246528755     1.5079408021
   71      C       5.8639205382     0.6896486666    -0.3898681227
   72      S       7.1588694400     1.4600512543    -1.3580009620
   73      C       6.3880281116     0.1845827335     0.7788737884
   74      C       8.4344762148     0.8114304555    -0.2925351412
   75      S       5.7018845540    -0.6148251807     2.1858844511
   76      C       7.7895076031     0.1894409160     0.7696199806
   77      C       9.7988084558     0.6059405390    -0.5527147529
   78      C       7.3416369596    -0.8964466241     2.8222926620
   79      C       8.3065656078    -0.4093805729     2.0142973862
   80      N      10.6600453233     0.2796062685     0.3960207223
   81      S      10.4712472570     0.6554947841    -2.1716231615
   82      C      11.9532646480     0.2660542009    -0.1389457437
   83      C      12.0316278995     0.5256366675    -1.4675243615
   84      C      -3.3777649114     1.1370197704    -4.5470988293
   85      H      -0.8386472166     1.6881698140    -5.5206479865
   86      H       1.3091963404     1.6422143919    -4.3152591888
   87      H      -0.8507681893     0.6311629306    -0.8074991951
   88      H       2.9050891420     0.5852763142    -3.6036349439
   89      H       7.4305991972    -1.5017791880     3.7138105851
   90      H       9.3691800606    -0.5333598695     2.1916350829
   91      H      12.8288289511     0.1215559415     0.4807359522
   92      H      12.9220988343     0.6807823233    -2.0631193075
   93      H      -3.3905801855     0.3882156290    -5.3484090854
   94      C      -3.6486725462     2.5473879096    -5.0529088383
   95      H      -4.2262018231     0.7984271241    -3.9403082338
   96      H      -4.5464153928     2.4741442173    -5.6783831728
   97      H      -2.9503590756     2.9501754114    -5.7968379512
   98      C      -3.9786724234     3.6265491477    -4.0201769742
   99      H      -3.2411697628     3.6803986828    -3.2101899044
  100      C      -5.3625299485     3.4499740142    -3.3410808304
  101      H      -4.0313681384     4.5288979078    -4.6415632283
  102      H      -5.5064743429     4.2858522784    -2.6468009598
  103      H      -5.3047878473     2.5120288370    -2.7761607526
  104      C      -6.6135941806     3.2974142103    -4.1770639603
  105      H      -6.8695761643     2.2834813081    -4.5079949104
  106      C      -6.7901218442     4.0978073861    -5.4833850342
  107      H      -7.3907994962     3.5918272795    -3.4606019291
  108      H      -7.1406554073     5.0449190632    -5.0557079454
  109      H      -7.5945768716     3.7413919072    -6.1395207788
  110      H      -5.8241644035     4.2114964336    -5.9906502737
 ----------------------------------------------------------------

   10   -5663.4620195686      3.75E-06 Convergence criterion met
 Total energy in the final basis set = -5663.4620195686

                    Orbital Energies (a.u.)
 --------------------------------------------------------------

 Alpha MOs
 -- Occupied --
-88.990 -88.983 -88.926 -88.925 -88.918 -88.915 -88.904 -88.901
-14.392 -14.389 -14.386 -14.372 -14.353 -14.351 -14.339 -14.336
-14.334 -14.330 -10.266 -10.265 -10.264 -10.264 -10.257 -10.256
-10.250 -10.247 -10.247 -10.243 -10.242 -10.241 -10.236 -10.232
-10.231 -10.227 -10.227 -10.226 -10.225 -10.225 -10.225 -10.225
-10.224 -10.223 -10.223 -10.222 -10.221 -10.221 -10.220 -10.217
-10.213 -10.211 -10.209 -10.200 -10.197 -10.196 -10.193 -10.192
-10.191 -10.184 -10.183 -10.178 -10.176 -10.176 -10.175 -10.175
-10.175 -10.172 -10.171 -10.170  -8.045  -8.038  -7.989  -7.985
 -7.980  -7.974  -7.964  -7.961  -6.010  -6.005  -6.003  -6.003
 -5.998  -5.997  -5.952  -5.949  -5.949  -5.946  -5.946  -5.944
 -5.941  -5.941  -5.939  -5.937  -5.935  -5.931  -5.929  -5.926
 -5.925  -5.922  -5.920  -5.917  -1.038  -1.038  -0.989  -0.964
 -0.955  -0.950  -0.937  -0.933  -0.917  -0.909  -0.904  -0.900
 -0.841  -0.840  -0.832  -0.830  -0.826  -0.816  -0.806  -0.805
 -0.804  -0.800  -0.796  -0.795  -0.788  -0.780  -0.766  -0.765
 -0.749  -0.746  -0.735  -0.735  -0.724  -0.722  -0.712  -0.706
 -0.695  -0.690  -0.675  -0.667  -0.666  -0.654  -0.649  -0.643
 -0.639  -0.635  -0.627  -0.623  -0.618  -0.608  -0.602  -0.599
 -0.592  -0.587  -0.586  -0.579  -0.577  -0.574  -0.559  -0.550
 -0.544  -0.541  -0.540  -0.539  -0.525  -0.520  -0.517  -0.514
 -0.506  -0.504  -0.500  -0.498  -0.488  -0.478  -0.475  -0.475
 -0.474  -0.472  -0.468  -0.467  -0.465  -0.462  -0.459  -0.454
 -0.449  -0.446  -0.442  -0.438  -0.434  -0.434  -0.432  -0.430
 -0.428  -0.427  -0.426  -0.422  -0.419  -0.416  -0.413  -0.412
 -0.411  -0.410  -0.407  -0.405  -0.399  -0.397  -0.396  -0.395
 -0.393  -0.390  -0.389  -0.386  -0.385  -0.383  -0.381  -0.378
 -0.377  -0.376  -0.371  -0.370  -0.368  -0.361  -0.357  -0.355
 -0.355  -0.353  -0.350  -0.347  -0.345  -0.343  -0.342  -0.339
 -0.337  -0.336  -0.333  -0.332  -0.329  -0.320  -0.316  -0.313
 -0.313  -0.308  -0.306  -0.303  -0.303  -0.301  -0.298  -0.297
 -0.294  -0.293  -0.288  -0.287  -0.284  -0.283  -0.282  -0.279
 -0.276  -0.275  -0.271  -0.266  -0.253  -0.251  -0.250  -0.247
 -0.244  -0.242  -0.235  -0.228  -0.195  -0.191

          Ground-State Mulliken Net Atomic Charges

     Atom                 Charge (a.u.)
  ----------------------------------------
      1 C                     0.293468
      2 C                    -0.106817
      3 N                    -0.495699
      4 C                    -0.103235
      5 C                     0.040617
      6 C                     0.074093
      7 C                     0.051297
      8 C                     0.040739
      9 C                     0.267108
     10 N                    -0.498353
     11 N                    -0.509432
     12 C                     0.191840
     13 C                     0.220986
     14 S                     0.613229
     15 N                    -0.534088
     16 C                    -0.220730
     17 S                     0.326585
     18 C                    -0.083550
     19 C                    -0.210378
     20 S                     0.243727
     21 C                     0.155339
     22 C                     0.033347
     23 C                    -0.294773
     24 C                    -0.084609
     25 N                    -0.395114
     26 S                     0.290475
     27 C                     0.101301
     28 C                    -0.309596
     29 C                    -0.239131
     30 H                     0.090495
     31 H                     0.089097
     32 H                     0.131484
     33 H                     0.093989
     34 H                     0.124442
     35 H                     0.105273
     36 H                     0.104828
     37 H                     0.144432
     38 H                     0.105726
     39 C                    -0.170083
     40 H                     0.121419
     41 H                     0.095498
     42 H                     0.119165
     43 C                    -0.192168
     44 H                     0.078349
     45 C                    -0.176883
     46 H                     0.084972
     47 H                     0.088072
     48 H                     0.090156
     49 C                    -0.180269
     50 H                     0.089209
     51 C                    -0.316512
     52 H                     0.101578
     53 H                     0.101880
     54 H                     0.104211
     55 H                     0.106235
     56 C                     0.297202
     57 C                    -0.122387
     58 N                    -0.514144
     59 C                    -0.089052
     60 C                     0.083087
     61 C                     0.060652
     62 C                     0.040958
     63 C                     0.040993
     64 C                     0.225181
     65 N                    -0.497700
     66 N                    -0.553544
     67 C                     0.222395
     68 C                     0.278379
     69 S                     0.597813
     70 N                    -0.548871
     71 C                    -0.217106
     72 S                     0.310765
     73 C                    -0.091590
     74 C                    -0.215629
     75 S                     0.258756
     76 C                     0.110825
     77 C                     0.069105
     78 C                    -0.307458
     79 C                    -0.031052
     80 N                    -0.451615
     81 S                     0.259362
     82 C                     0.121826
     83 C                    -0.304386
     84 C                    -0.231620
     85 H                     0.085929
     86 H                     0.109852
     87 H                     0.125477
     88 H                     0.116080
     89 H                     0.135325
     90 H                     0.131281
     91 H                     0.112741
     92 H                     0.133378
     93 H                     0.111473
     94 C                    -0.196992
     95 H                     0.120571
     96 H                     0.096239
     97 H                     0.093933
     98 C                    -0.177383
     99 H                     0.108917
    100 C                    -0.180985
    101 H                     0.091665
    102 H                     0.096589
    103 H                     0.105871
    104 C                    -0.189750
    105 H                     0.088151
    106 C                    -0.317265
    107 H                     0.095035
    108 H                     0.101983
    109 H                     0.103730
    110 H                     0.103771
  ----------------------------------------
  Sum of atomic charges =     0.000000

                    Cartesian Multipole Moments
 -----------------------------------------------------------------
    Charge (ESU x 10^10)
                 0.0000
    Dipole Moment (Debye)
         X      -0.3747      Y      -0.9946      Z      -1.6048
       Tot       1.9248
    Quadrupole Moments (Debye-Ang)
        XX    -409.1838     XY       9.8070     YY    -418.7308
        XZ      -0.3817     YZ       3.7491     ZZ    -421.5582

 Total job time:  96.43s(wall), 1141.74s(cpu)
        *  Thank you very much for using Q-Chem.  Have a nice day.  *
