 Q-Chem 4.4, Q-Chem, Inc., Pleasanton, CA (2016)
 Q-Chem 4.4.2 for Intel X86 Linux

User input:
--------------------------------------------------------------
$comment
SP
$end

$rem
MEM_STATIC 5000
MEM_TOTAL 20000
JOBTYPE SP
EXCHANGE B3LYP
BASIS 6-31g(d,p)
$end

$molecule
0 1
C          26.902000    -15.223000     -1.584000
C          25.834000    -15.734000     -2.344000
N          27.320000    -13.938000     -1.633000
C          25.125000    -14.878000     -3.175000
C          26.516000    -13.115000     -2.365000
C          25.417000    -13.512000     -3.122000
C          24.543000    -12.453000     -3.788000
C          24.273000    -11.220000     -3.098000
C          24.103000    -12.507000     -5.153000
N          23.448000    -10.270000     -3.581000
N          24.397000    -13.498000     -6.060000
C          23.156000    -11.581000     -5.554000
C          22.826000    -10.417000     -4.737000
S          23.481000    -13.027000     -7.386000
N          22.691000    -11.822000     -6.838000
C          21.886000     -9.356000     -5.120000
S          21.177000     -9.004000     -6.681000
C          21.481000     -8.449000     -4.181000
C          20.562000     -7.466000     -6.115000
S          21.870000     -8.142000     -2.508000
C          20.667000     -7.419000     -4.765000
C          19.918000     -6.473000     -6.943000
C          20.805000     -6.707000     -2.556000
C          20.290000     -6.450000     -3.838000
N          18.901000     -5.775000     -6.379000
S          20.101000     -6.275000     -8.675000
C          18.374000     -4.948000     -7.383000
C          18.849000     -5.107000     -8.637000
C          27.690000    -16.217000     -0.792000
H          25.457000    -16.745000     -2.226000
H          24.329000    -15.131000     -3.869000
H          26.889000    -12.120000     -2.605000
H          24.727000    -10.904000     -2.161000
H          20.536000     -6.132000     -1.678000
H          19.795000     -5.507000     -4.043000
H          17.578000     -4.335000     -6.980000
H          18.471000     -4.628000     -9.532000
H          27.147000    -17.160000     -0.651000
C          28.330000    -15.574000      0.499000
H          28.506000    -16.611000     -1.408000
H          27.767000    -14.661000      0.729000
H          29.361000    -15.230000      0.346000
C          28.224000    -16.396000      1.856000
H          28.772000    -17.347000      1.849000
C          26.721000    -16.714000      2.277000
H          28.624000    -15.830000      2.705000
H          26.889000    -17.526000      2.996000
H          26.139000    -17.181000      1.472000
C          25.958000    -15.637000      2.981000
H          26.410000    -15.348000      3.937000
C          24.443000    -15.967000      3.103000
H          26.047000    -14.700000      2.416000
H          24.201000    -15.961000      2.033000
H          23.878000    -15.240000      3.700000
H          24.299000    -16.976000      3.506000
C           8.410000    -18.595000     -1.460000
C           9.673000    -18.402000     -0.886000
N           8.171000    -18.326000     -2.751000
C          10.720000    -18.053000     -1.765000
C           9.144000    -17.805000     -3.504000
C          10.470000    -17.692000     -3.081000
C          11.550000    -17.182000     -3.977000
C          12.857000    -17.649000     -3.716000
C          11.338000    -16.184000     -4.994000
N          13.920000    -17.279000     -4.532000
N          10.199000    -15.602000     -5.283000
C          12.378000    -15.719000     -5.772000
C          13.665000    -16.339000     -5.529000
S          10.540000    -14.520000     -6.450000
N          12.148000    -14.685000     -6.622000
C          14.920000    -15.947000     -6.288000
S          15.077000    -14.470000     -7.266000
C          16.150000    -16.572000     -6.299000
C          16.869000    -14.566000     -7.237000
S          16.658000    -18.048000     -5.480000
C          17.169000    -15.782000     -6.733000
C          17.734000    -13.544000     -7.724000
C          18.338000    -17.666000     -5.950000
C          18.387000    -16.514000     -6.730000
N          17.164000    -12.695000     -8.538000
S          19.406000    -13.357000     -7.283000
C          18.176000    -11.900000     -9.045000
C          19.404000    -12.070000     -8.501000
C           7.237000    -19.088000     -0.670000
H           9.744000    -18.559000      0.186000
H          11.697000    -17.964000     -1.300000
H           8.894000    -17.535000     -4.529000
H          13.120000    -18.255000     -2.849000
H          19.085000    -18.391000     -5.653000
H          19.336000    -16.077000     -7.019000
H          17.868000    -11.132000     -9.743000
H          20.335000    -11.546000     -8.668000
H           7.144000    -18.467000      0.229000
C           7.528000    -20.592000     -0.314000
H           6.304000    -19.040000     -1.244000
H           8.456000    -20.556000      0.270000
H           7.939000    -21.164000     -1.156000
C           6.473000    -21.436000      0.454000
H           5.728000    -21.914000     -0.193000
C           5.523000    -20.630000      1.426000
H           6.998000    -22.209000      1.030000
H           4.717000    -21.240000      1.850000
H           4.948000    -19.850000      0.912000
C           6.273000    -20.033000      2.613000
H           6.799000    -20.795000      3.200000
C           5.468000    -19.230000      3.579000
H           7.016000    -19.306000      2.263000
H           4.791000    -18.504000      3.110000
H           6.122000    -18.682000      4.267000
H           4.922000    -19.926000      4.227000
$end

--------------------------------------------------------------

             Standard Nuclear Orientation (Angstroms)
    I     Atom           X                Y                Z
 ----------------------------------------------------------------
    1      C      -7.0377100378     6.0337797816    -0.9567000099
    2      C      -5.9516433233     5.4257790050    -1.6125499526
    3      N      -7.9706436356     5.3572742866    -0.2493633027
    4      C      -5.7836004038     4.0519256966    -1.5112254032
    5      C      -7.6917075209     4.0336650844    -0.0766718909
    6      C      -6.6266133162     3.3439928865    -0.6497212733
    7      C      -6.3788309530     1.8892802575    -0.2607121894
    8      C      -6.5865503933     1.4740698547     1.1008097368
    9      C      -6.1228032423     0.8324482745    -1.1973535141
   10      N      -6.3141216444     0.2301249808     1.5421686922
   11      N      -6.0663126889     0.9590165028    -2.5655476893
   12      C      -5.7211977198    -0.3888956901    -0.6853789793
   13      C      -5.8305481518    -0.6987357505     0.7370578805
   14      S      -5.6056880394    -0.5871773085    -3.0306096531
   15      N      -5.3527571491    -1.2835563757    -1.6787549421
   16      C      -5.4911909964    -1.9899931117     1.3482052835
   17      S      -5.1923013282    -3.5387801489     0.5897663080
   18      C      -5.4084196042    -2.0856462720     2.7092322376
   19      C      -5.2371839430    -4.3637565301     2.1329527910
   20      S      -5.6913833331    -1.0002697500     4.0457906289
   21      C      -5.1921787282    -3.4435110552     3.1263594533
   22      C      -5.1859228477    -5.7962154052     2.3112863858
   23      C      -5.3616370907    -2.3496940797     5.1709907862
   24      C      -5.1625654867    -3.5752312125     4.5127907917
   25      N      -4.5097414438    -6.2521746634     3.3950155327
   26      S      -5.6391573401    -7.0149090854     1.1357519503
   27      C      -4.5124877047    -7.6531641489     3.3119798810
   28      C      -5.0170024496    -8.2118589779     2.1909326206
   29      C      -7.2216504733     7.4988945550    -1.1930231296
   30      H      -5.1651987060     5.9927085378    -2.1006787971
   31      H      -5.0442097928     3.4326275724    -2.0102568228
   32      H      -8.4820726823     3.3930964384     0.3128774915
   33      H      -7.0183486398     2.0837633791     1.8918628833
   34      H      -5.2648648309    -2.2248147549     6.2428631125
   35      H      -5.1496550597    -4.4987180906     5.0813893380
   36      H      -4.0164776248    -8.0777829714     4.1753841063
   37      H      -4.9904474744    -9.2627576860     1.9296727140
   38      H      -6.3132100888     7.9737535948    -1.5844614519
   39      C      -7.9189007396     8.2142292407     0.0283974996
   40      H      -7.8549384999     7.6504423411    -2.0742311323
   41      H      -7.7809276906     7.5758251706     0.9097837266
   42      H      -9.0076416763     8.2980587206    -0.0826060641
   43      C      -7.3102123787     9.6023825838     0.5089157358
   44      H      -7.3921088075    10.4088950118    -0.2310739118
   45      C      -5.7786694211     9.4982176291     0.9342389436
   46      H      -7.8116689764     9.9747706433     1.4094852299
   47      H      -5.4947218058    10.5576837603     0.8963672060
   48      H      -5.1517653953     9.0221792133     0.1692443233
   49      C      -5.4764105018     8.9977661043     2.3111564492
   50      H      -5.8925570363     9.6364207446     3.0990037138
   51      C      -3.9642233457     8.6951799432     2.5129995063
   52      H      -6.0259875156     8.0638869813     2.4870822561
   53      H      -3.8764216504     7.8766083573     1.7879261161
   54      H      -3.7011238466     8.4198220810     3.5421349208
   55      H      -3.3535408263     9.5437304819     2.1839784680
   56      C      10.9766355030     1.0096485104     0.9357279824
   57      C       9.8310045186     1.7683007807     1.2075190426
   58      N      10.9224905149    -0.1216481282     0.2192091509
   59      C       8.6401797090     1.3665458358     0.5662856708
   60      C       9.7387139315    -0.5754964231    -0.2025416352
   61      C       8.5533317225     0.1563575123    -0.1064539882
   62      C       7.2616730449    -0.3450374087    -0.6628144773
   63      C       6.3238338529     0.6345197216    -1.0570028566
   64      C       6.9019008364    -1.7390756407    -0.7123963873
   65      N       5.1170812089     0.2682378817    -1.6420760742
   66      N       7.6365978961    -2.7440498608    -0.3003126004
   67      C       5.6793219081    -2.1484137117    -1.2031632441
   68      C       4.8231122500    -1.0927203274    -1.7053927730
   69      S       6.7281062894    -4.0757434738    -0.5242079367
   70      N       5.3398560813    -3.4596748946    -1.1035988802
   71      C       3.4417927908    -1.3594324623    -2.2759987567
   72      S       2.5502330351    -2.8838077504    -2.0660864346
   73      C       2.6087911541    -0.4938459314    -2.9546107452
   74      C       0.9913265733    -2.1038742787    -2.4936790247
   75      S       2.8860671749     1.1826888360    -3.4233859384
   76      C       1.3056844638    -0.8838934359    -2.9789602420
   77      C      -0.2800743156    -2.7354356054    -2.3730636436
   78      C       1.1628030794     1.2828393988    -3.8811574116
   79      C       0.5311274776     0.0536124830    -3.7141480596
   80      N      -0.2314037315    -4.0391430280    -2.2938479215
   81      S      -1.8048176637    -1.9027464741    -2.2904771258
   82      C      -1.5390067993    -4.4842037451    -2.3667394521
   83      C      -2.5006116569    -3.5314970977    -2.3446908259
   84      C      12.3317019554     1.3926818639     1.4457851947
   85      H       9.9614587228     2.6162197672     1.8730181732
   86      H       7.7823977848     2.0053862429     0.7527477443
   87      H       9.7253503665    -1.5326646755    -0.7218443907
   88      H       6.4515529789     1.7013817176    -0.8737344570
   89      H       0.8413972602     2.2298319119    -4.2955804798
   90      H      -0.5402992052    -0.0445353627    -3.8464464486
   91      H      -1.6762545931    -5.5566050895    -2.3118723438
   92      H      -3.5789900265    -3.6091812143    -2.3276241928
   93      H      12.2536502836     1.5715775292     2.5248566833
   94      C      12.7606220971     2.6903538182     0.6676412420
   95      H      13.0782871978     0.6116400292     1.2590952699
   96      H      11.9835352403     3.4234310009     0.9171805397
   97      H      12.5397291940     2.6433031815    -0.4066313319
   98      C      14.1585745371     3.3250691736     0.9085777341
   99      H      14.9547127405     2.8986086938     0.2869561287
  100      C      14.7764261231     3.1021142511     2.3457522260
  101      H      14.0893960053     4.4032694725     0.7145972036
  102      H      15.8102658507     3.4556299754     2.4335818919
  103      H      14.8946476620     2.0417181018     2.6003198484
  104      C      13.9882728769     3.8193027300     3.4376923096
  105      H      13.9147620014     4.8983914611     3.2586597384
  106      C      14.4769488195     3.6508442379     4.8372663733
  107      H      12.9691785950     3.4175221091     3.4933445993
  108      H      14.7149986834     2.6147936123     5.1116700239
  109      H      13.7369512830     4.0253974275     5.5538398546
  110      H      15.3415479481     4.3107226821     4.9767826293
 ----------------------------------------------------------------

   10   -5663.4962204124      3.93E-06 Convergence criterion met
 Total energy in the final basis set = -5663.4962204124

                    Orbital Energies (a.u.)
 --------------------------------------------------------------

 Alpha MOs
 -- Occupied --
-88.997 -88.989 -88.935 -88.929 -88.928 -88.914 -88.913 -88.904
-14.399 -14.396 -14.389 -14.384 -14.355 -14.350 -14.349 -14.338
-14.337 -14.322 -10.274 -10.269 -10.269 -10.264 -10.263 -10.263
-10.258 -10.257 -10.248 -10.243 -10.241 -10.241 -10.238 -10.235
-10.234 -10.232 -10.231 -10.231 -10.230 -10.228 -10.228 -10.226
-10.225 -10.225 -10.224 -10.224 -10.221 -10.218 -10.214 -10.211
-10.211 -10.210 -10.207 -10.201 -10.200 -10.199 -10.199 -10.194
-10.189 -10.185 -10.185 -10.184 -10.182 -10.180 -10.178 -10.174
-10.174 -10.173 -10.172 -10.168  -8.054  -8.045  -7.996  -7.989
 -7.988  -7.973  -7.972  -7.964  -6.019  -6.013  -6.012  -6.010
 -6.005  -6.003  -5.960  -5.957  -5.953  -5.953  -5.952  -5.949
 -5.949  -5.945  -5.945  -5.937  -5.936  -5.934  -5.932  -5.929
 -5.928  -5.928  -5.924  -5.920  -1.053  -1.051  -0.973  -0.967
 -0.964  -0.941  -0.940  -0.937  -0.920  -0.917  -0.912  -0.908
 -0.845  -0.837  -0.833  -0.831  -0.817  -0.813  -0.808  -0.807
 -0.805  -0.803  -0.800  -0.793  -0.787  -0.787  -0.769  -0.765
 -0.749  -0.747  -0.739  -0.738  -0.725  -0.718  -0.711  -0.709
 -0.695  -0.691  -0.677  -0.673  -0.659  -0.657  -0.647  -0.647
 -0.638  -0.637  -0.630  -0.623  -0.612  -0.610  -0.600  -0.597
 -0.595  -0.592  -0.587  -0.586  -0.583  -0.578  -0.558  -0.557
 -0.556  -0.545  -0.544  -0.538  -0.526  -0.524  -0.520  -0.516
 -0.510  -0.509  -0.503  -0.495  -0.491  -0.483  -0.479  -0.477
 -0.477  -0.474  -0.470  -0.465  -0.460  -0.457  -0.451  -0.448
 -0.446  -0.443  -0.441  -0.437  -0.434  -0.432  -0.431  -0.431
 -0.427  -0.424  -0.424  -0.423  -0.419  -0.416  -0.415  -0.414
 -0.412  -0.412  -0.410  -0.405  -0.405  -0.403  -0.400  -0.394
 -0.394  -0.393  -0.392  -0.387  -0.386  -0.384  -0.383  -0.382
 -0.379  -0.376  -0.376  -0.373  -0.368  -0.366  -0.362  -0.362
 -0.360  -0.353  -0.352  -0.350  -0.347  -0.346  -0.346  -0.341
 -0.341  -0.336  -0.335  -0.333  -0.331  -0.326  -0.324  -0.323
 -0.320  -0.316  -0.308  -0.308  -0.304  -0.301  -0.300  -0.299
 -0.296  -0.295  -0.294  -0.294  -0.291  -0.288  -0.286  -0.284
 -0.276  -0.274  -0.268  -0.267  -0.264  -0.258  -0.252  -0.248
 -0.244  -0.240  -0.234  -0.231  -0.198  -0.190

          Ground-State Mulliken Net Atomic Charges

     Atom                 Charge (a.u.)
  ----------------------------------------
      1 C                     0.284605
      2 C                    -0.126900
      3 N                    -0.482624
      4 C                    -0.054518
      5 C                     0.055065
      6 C                     0.056961
      7 C                    -0.031867
      8 C                     0.064245
      9 C                     0.241504
     10 N                    -0.526141
     11 N                    -0.561010
     12 C                     0.152581
     13 C                     0.336275
     14 S                     0.616570
     15 N                    -0.524540
     16 C                    -0.223002
     17 S                     0.308221
     18 C                    -0.094247
     19 C                    -0.219123
     20 S                     0.295763
     21 C                     0.152791
     22 C                     0.022550
     23 C                    -0.320476
     24 C                    -0.050757
     25 N                    -0.415946
     26 S                     0.283566
     27 C                     0.119939
     28 C                    -0.305053
     29 C                    -0.238889
     30 H                     0.095686
     31 H                     0.108011
     32 H                     0.103374
     33 H                     0.125229
     34 H                     0.128632
     35 H                     0.123756
     36 H                     0.113482
     37 H                     0.141575
     38 H                     0.102141
     39 C                    -0.173388
     40 H                     0.126019
     41 H                     0.116774
     42 H                     0.101005
     43 C                    -0.201639
     44 H                     0.085989
     45 C                    -0.170888
     46 H                     0.093944
     47 H                     0.088930
     48 H                     0.083601
     49 C                    -0.179809
     50 H                     0.088615
     51 C                    -0.314496
     52 H                     0.095421
     53 H                     0.106802
     54 H                     0.102078
     55 H                     0.102724
     56 C                     0.265083
     57 C                    -0.113100
     58 N                    -0.487188
     59 C                    -0.096095
     60 C                     0.083189
     61 C                     0.054025
     62 C                     0.037773
     63 C                     0.060262
     64 C                     0.263607
     65 N                    -0.524329
     66 N                    -0.553465
     67 C                     0.199272
     68 C                     0.273387
     69 S                     0.604337
     70 N                    -0.535665
     71 C                    -0.230702
     72 S                     0.335777
     73 C                    -0.123822
     74 C                    -0.229295
     75 S                     0.275107
     76 C                     0.160611
     77 C                     0.064211
     78 C                    -0.296546
     79 C                    -0.084277
     80 N                    -0.430538
     81 S                     0.267961
     82 C                     0.126902
     83 C                    -0.308382
     84 C                    -0.220603
     85 H                     0.095260
     86 H                     0.096601
     87 H                     0.114283
     88 H                     0.121182
     89 H                     0.132615
     90 H                     0.096950
     91 H                     0.111899
     92 H                     0.145666
     93 H                     0.107890
     94 C                    -0.186015
     95 H                     0.121436
     96 H                     0.091522
     97 H                     0.106377
     98 C                    -0.186501
     99 H                     0.096373
    100 C                    -0.176682
    101 H                     0.096194
    102 H                     0.086134
    103 H                     0.093465
    104 C                    -0.164701
    105 H                     0.089063
    106 C                    -0.318410
    107 H                     0.086866
    108 H                     0.100354
    109 H                     0.097282
    110 H                     0.098289
  ----------------------------------------
  Sum of atomic charges =     0.000000

                    Cartesian Multipole Moments
 -----------------------------------------------------------------
    Charge (ESU x 10^10)
                 0.0000
    Dipole Moment (Debye)
         X      -1.6786      Y      -0.2590      Z       0.3268
       Tot       1.7296
    Quadrupole Moments (Debye-Ang)
        XX    -466.1759     XY      37.6242     YY    -401.4265
        XZ      16.2581     YZ      -9.0424     ZZ    -438.0155

 Total job time:  88.73s(wall), 1028.82s(cpu)
        *  Thank you very much for using Q-Chem.  Have a nice day.  *
