 Q-Chem 4.4, Q-Chem, Inc., Pleasanton, CA (2016)
 Q-Chem 4.4.2 for Intel X86 Linux

User input:
--------------------------------------------------------------
$comment
SP
$end

$rem
MEM_STATIC 5000
MEM_TOTAL 20000
JOBTYPE SP
EXCHANGE B3LYP
BASIS 6-31g(d,p)
$end

$molecule
0 1
C          10.431000    -16.374000     -9.547000
C          11.006000    -17.363000     -8.768000
N           9.123000    -16.105000     -9.428000
C          10.253000    -18.102000     -7.832000
C           8.354000    -16.776000     -8.545000
C           8.884000    -17.796000     -7.692000
C           7.963000    -18.571000     -6.845000
C           8.252000    -19.928000     -6.556000
C           6.703000    -18.158000     -6.273000
N           7.536000    -20.755000     -5.813000
N           6.274000    -16.874000     -6.293000
C           5.949000    -19.003000     -5.472000
C           6.438000    -20.289000     -5.241000
S           4.944000    -16.891000     -5.380000
N           4.926000    -18.462000     -4.877000
C           5.808000    -21.365000     -4.414000
S           6.772000    -22.552000     -3.515000
C           4.456000    -21.545000     -4.182000
C           5.293000    -23.299000     -2.847000
S           3.069000    -20.868000     -4.955000
C           4.216000    -22.579000     -3.286000
C           5.263000    -24.445000     -1.969000
C           2.029000    -21.875000     -3.914000
C           2.792000    -22.745000     -3.088000
N           4.140000    -24.815000     -1.425000
S           6.647000    -25.349000     -1.397000
C           4.350000    -25.943000     -0.674000
C           5.650000    -26.311000     -0.522000
C          11.185000    -15.569000    -10.614000
H          12.030000    -17.670000     -8.955000
H          10.681000    -18.937000     -7.286000
H           7.278000    -16.606000     -8.546000
H           9.081000    -20.400000     -7.080000
H           0.949000    -21.808000     -3.898000
H           2.376000    -23.463000     -2.391000
H           3.566000    -26.477000     -0.154000
H           6.134000    -27.077000      0.069000
H          11.073000    -16.201000    -11.504000
C          12.673000    -15.365000    -10.195000
H          10.650000    -14.631000    -10.808000
H          13.162000    -16.294000     -9.873000
H          12.661000    -14.606000     -9.404000
C          13.658000    -14.548000    -11.150000
H          13.710000    -15.137000    -12.074000
C          15.129000    -14.315000    -10.775000
H          13.086000    -13.635000    -11.360000
H          15.669000    -15.198000    -10.411000
H          15.067000    -13.551000     -9.988000
C          16.007000    -13.616000    -11.874000
H          17.017000    -13.543000    -11.452000
C          15.621000    -12.178000    -12.209000
H          16.022000    -14.158000    -12.827000
H          15.660000    -11.622000    -11.265000
H          14.565000    -12.137000    -12.506000
H          16.356000    -11.821000    -12.940000
C           8.410000    -18.595000     -1.460000
C           9.673000    -18.402000     -0.886000
N           8.171000    -18.326000     -2.751000
C          10.720000    -18.053000     -1.765000
C           9.144000    -17.805000     -3.504000
C          10.470000    -17.692000     -3.081000
C          11.550000    -17.182000     -3.977000
C          12.857000    -17.649000     -3.716000
C          11.338000    -16.184000     -4.994000
N          13.920000    -17.279000     -4.532000
N          10.199000    -15.602000     -5.283000
C          12.378000    -15.719000     -5.772000
C          13.665000    -16.339000     -5.529000
S          10.540000    -14.520000     -6.450000
N          12.148000    -14.685000     -6.622000
C          14.920000    -15.947000     -6.288000
S          15.077000    -14.470000     -7.266000
C          16.150000    -16.572000     -6.299000
C          16.869000    -14.566000     -7.237000
S          16.658000    -18.048000     -5.480000
C          17.169000    -15.782000     -6.733000
C          17.734000    -13.544000     -7.724000
C          18.338000    -17.666000     -5.950000
C          18.387000    -16.514000     -6.730000
N          17.164000    -12.695000     -8.538000
S          19.406000    -13.357000     -7.283000
C          18.176000    -11.900000     -9.045000
C          19.404000    -12.070000     -8.501000
C           7.237000    -19.088000     -0.670000
H           9.744000    -18.559000      0.186000
H          11.697000    -17.964000     -1.300000
H           8.894000    -17.535000     -4.529000
H          13.120000    -18.255000     -2.849000
H          19.085000    -18.391000     -5.653000
H          19.336000    -16.077000     -7.019000
H          17.868000    -11.132000     -9.743000
H          20.335000    -11.546000     -8.668000
H           7.144000    -18.467000      0.229000
C           7.528000    -20.592000     -0.314000
H           6.304000    -19.040000     -1.244000
H           8.456000    -20.556000      0.270000
H           7.939000    -21.164000     -1.156000
C           6.473000    -21.436000      0.454000
H           5.728000    -21.914000     -0.193000
C           5.523000    -20.630000      1.426000
H           6.998000    -22.209000      1.030000
H           4.717000    -21.240000      1.850000
H           4.948000    -19.850000      0.912000
C           6.273000    -20.033000      2.613000
H           6.799000    -20.795000      3.200000
C           5.468000    -19.230000      3.579000
H           7.016000    -19.306000      2.263000
H           4.791000    -18.504000      3.110000
H           6.122000    -18.682000      4.267000
H           4.922000    -19.926000      4.227000
$end

--------------------------------------------------------------

             Standard Nuclear Orientation (Angstroms)
    I     Atom           X                Y                Z
 ----------------------------------------------------------------
    1      C      -2.9297947499     3.5874360721     0.6801046903
    2      C      -2.5057769786     2.4360358487     1.3204744702
    3      N      -2.0516504679     4.3333342123    -0.0053765893
    4      C      -1.1625811476     2.0091520327     1.2673598091
    5      C      -0.7547443883     3.9711029077    -0.0954549037
    6      C      -0.2494536163     2.7829246910     0.5224631823
    7      C       1.1979285607     2.5180145668     0.4880762674
    8      C       1.8115985606     1.8410785264     1.5714311162
    9      C       2.1620530617     2.9142046431    -0.5113487523
   10      N       3.0895278585     1.5233149820     1.6920836729
   11      N       1.8058745389     3.4515389137    -1.7019392534
   12      C       3.5024404356     2.5705488025    -0.4143727185
   13      C       3.9066079126     1.8335406629     0.6990659429
   14      S       3.1916447323     3.5367664705    -2.5236053867
   15      N       4.2352837776     2.8335915403    -1.4569580408
   16      C       5.2861903651     1.3478614188     1.0144592348
   17      S       5.5773050705    -0.1700541724     1.8848904419
   18      C       6.4779997422     1.9398487051     0.6359497084
   19      C       7.3448185541     0.0432173983     1.7362791287
   20      S       6.8175927075     3.5079138777    -0.0008196629
   21      C       7.5777128264     1.1761153017     1.0059691957
   22      C       8.3396248717    -0.8553394767     2.2729875533
   23      C       8.5567840875     3.1160666305     0.0307885420
   24      C       8.8007397113     1.8403907921     0.6091325648
   25      N       9.5955805067    -0.6811566677     1.9793878396
   26      S       8.0327570991    -2.3128722736     3.1902041668
   27      C      10.3489254156    -1.6212381863     2.6345238459
   28      C       9.6451183087    -2.5926220059     3.2745215267
   29      C      -4.3645343152     4.1287813540     0.7392457562
   30      H      -3.1839611022     1.9048324942     1.9805375663
   31      H      -0.8104661971     1.1579003147     1.8417382334
   32      H      -0.0485937618     4.6506758026    -0.5710692150
   33      H       1.2170173652     1.6533705488     2.4635297191
   34      H       9.3265306329     3.7635952333    -0.3683880662
   35      H       9.7808546246     1.4012910715     0.7538916484
   36      H      11.4290269141    -1.6651444199     2.5937194885
   37      H       9.9396459029    -3.4979633820     3.7882369039
   38      H      -4.3397829959     4.7543270497     1.6404382743
   39      C      -5.3876225729     2.9563541354     0.8393748433
   40      H      -4.5386853480     4.7927801249    -0.1166058957
   41      H      -5.1287996728     2.2226279643     1.6142958794
   42      H      -5.4293350853     2.5078709645    -0.1601394947
   43      C      -6.9507040794     3.2752727742     0.9087009266
   44      H      -7.0840055722     3.8379167449     1.8409366663
   45      C      -7.9952734780     2.1530724742     0.9997847254
   46      H      -7.0915194375     3.9686299491     0.0694870903
   47      H      -7.7797437513     1.3658198106     1.7329730917
   48      H      -8.0043820397     1.7386300825    -0.0175959988
   49      C      -9.4805752986     2.6231200767     1.2003333556
   50      H     -10.0816265242     1.7072609783     1.2590916415
   51      C     -10.0844215758     3.4104298538     0.0407739616
   52      H      -9.6234147132     3.2400594960     2.0954203092
   53      H      -9.9925925096     2.7710465633    -0.8449739881
   54      H      -9.4543203678     4.2805722747    -0.1847268921
   55      H     -11.1280245174     3.6104567255     0.3108057207
   56      C       3.2093298368    -1.9237039881    -1.8408743945
   57      C       2.4251153364    -3.0838131075    -1.8732541466
   58      N       2.6882695921    -0.7256051908    -1.5421797456
   59      C       1.0912540247    -2.9574937464    -1.4310908058
   60      C       1.3745587095    -0.6170465823    -1.3241023612
   61      C       0.5199051762    -1.7144553973    -1.2006712842
   62      C      -0.9289738937    -1.5614601095    -0.8740860999
   63      C      -1.5395864140    -2.6418737873    -0.2000552142
   64      C      -1.7286304223    -0.4410823905    -1.2989863269
   65      N      -2.8688792547    -2.5695663472     0.2005408141
   66      N      -1.3136803233     0.5842629038    -2.0032941025
   67      C      -3.0736549677    -0.3648150935    -1.0019993378
   68      C      -3.5981259394    -1.4509302585    -0.1988168876
   69      S      -2.6300172603     1.5073133672    -2.2565309680
   70      N      -3.8064166102     0.6444660677    -1.5395566955
   71      C      -5.0559241527    -1.5330693971     0.2169324735
   72      S      -6.3590113492    -0.5646923717    -0.5089268070
   73      C      -5.6455755592    -2.3894583023     1.1238807972
   74      C      -7.6200441696    -1.6789850980     0.1151476646
   75      S      -4.9028219534    -3.6323387639     2.1293489664
   76      C      -6.9944573468    -2.4998423014     0.9854962032
   77      C      -8.9981636178    -1.6082876856    -0.2393472753
   78      C      -6.5442788351    -4.1945463139     2.5521562231
   79      C      -7.5138335225    -3.3819931847     1.9711001842
   80      N      -9.3685787822    -0.4616969597    -0.7457259015
   81      S     -10.1388100790    -2.9113323664    -0.0779960732
   82      C     -10.7464516238    -0.5103401279    -0.8567136238
   83      C     -11.3299896964    -1.7012623096    -0.5846701071
   84      C       4.6722404587    -1.9354825177    -2.1615483388
   85      H       2.9175643798    -3.9887155161    -2.2160654223
   86      H       0.5248904208    -3.8835996654    -1.4157579913
   87      H       0.9761508644     0.3818876661    -1.1525606570
   88      H      -1.0452763376    -3.5956542656    -0.0155170130
   89      H      -6.5923247381    -5.0211203077     3.2495155451
   90      H      -8.5656790925    -3.6356814456     2.0370862681
   91      H     -11.2182537666     0.3729727803    -1.2678742301
   92      H     -12.3607893678    -2.0206715528    -0.6529033312
   93      H       4.8084483540    -2.4476334550    -3.1215690816
   94      C       5.3894657791    -2.6958531512    -0.9864494751
   95      H       5.0880899563    -0.9230069878    -2.2265982945
   96      H       4.9381739613    -3.6957297502    -0.9973344184
   97      H       5.0177428282    -2.4079476177     0.0055189979
   98      C       6.9373265712    -2.8336878209    -0.9687415078
   99      H       7.4549197192    -1.9858034923    -0.5047291174
  100      C       7.6422167209    -2.8514725635    -2.3828608732
  101      H       7.1987130628    -3.7533882765    -0.4295215397
  102      H       8.7363630973    -2.8235875396    -2.3230433803
  103      H       7.4409449726    -1.9484189782    -2.9721018303
  104      C       7.2929183161    -4.0958653773    -3.1936352866
  105      H       7.5526328574    -5.0224087731    -2.6683213875
  106      C       7.8896950533    -4.1963661635    -4.5573607421
  107      H       6.2167649701    -4.1191907355    -3.4044145637
  108      H       7.8111429671    -3.2782893622    -5.1542950405
  109      H       7.4208144633    -5.0070982321    -5.1267714070
  110      H       8.9332290474    -4.5152146921    -4.4486941924
 ----------------------------------------------------------------

   10   -5663.4966955095      3.27E-06 Convergence criterion met
 Total energy in the final basis set = -5663.4966955095

                    Orbital Energies (a.u.)
 --------------------------------------------------------------

 Alpha MOs
 -- Occupied --
-88.987 -88.983 -88.932 -88.919 -88.918 -88.916 -88.906 -88.905
-14.393 -14.382 -14.381 -14.381 -14.355 -14.343 -14.341 -14.338
-14.327 -14.324 -10.270 -10.268 -10.262 -10.257 -10.255 -10.254
-10.253 -10.247 -10.243 -10.241 -10.235 -10.233 -10.232 -10.231
-10.230 -10.230 -10.229 -10.229 -10.228 -10.227 -10.225 -10.224
-10.223 -10.223 -10.222 -10.221 -10.219 -10.218 -10.217 -10.215
-10.212 -10.211 -10.202 -10.201 -10.201 -10.200 -10.199 -10.194
-10.190 -10.182 -10.180 -10.180 -10.178 -10.174 -10.172 -10.169
-10.169 -10.168 -10.166 -10.164  -8.043  -8.039  -7.993  -7.982
 -7.978  -7.974  -7.966  -7.965  -6.008  -6.004  -6.002  -6.000
 -5.999  -5.997  -5.957  -5.953  -5.950  -5.946  -5.942  -5.942
 -5.939  -5.938  -5.938  -5.935  -5.934  -5.931  -5.930  -5.930
 -5.927  -5.926  -5.922  -5.921  -1.050  -1.046  -0.979  -0.978
 -0.965  -0.942  -0.938  -0.937  -0.918  -0.914  -0.913  -0.905
 -0.839  -0.837  -0.831  -0.831  -0.823  -0.811  -0.807  -0.806
 -0.802  -0.796  -0.795  -0.790  -0.785  -0.779  -0.765  -0.762
 -0.748  -0.744  -0.738  -0.735  -0.720  -0.718  -0.707  -0.707
 -0.691  -0.688  -0.673  -0.672  -0.657  -0.653  -0.647  -0.647
 -0.637  -0.633  -0.627  -0.623  -0.611  -0.608  -0.602  -0.595
 -0.592  -0.591  -0.585  -0.579  -0.579  -0.575  -0.554  -0.549
 -0.547  -0.547  -0.542  -0.538  -0.527  -0.523  -0.522  -0.512
 -0.509  -0.508  -0.499  -0.497  -0.484  -0.483  -0.478  -0.474
 -0.471  -0.470  -0.466  -0.466  -0.463  -0.456  -0.449  -0.444
 -0.443  -0.441  -0.437  -0.436  -0.435  -0.433  -0.431  -0.430
 -0.427  -0.424  -0.421  -0.421  -0.418  -0.415  -0.414  -0.413
 -0.411  -0.410  -0.407  -0.404  -0.402  -0.400  -0.396  -0.394
 -0.391  -0.390  -0.387  -0.386  -0.384  -0.383  -0.382  -0.380
 -0.377  -0.375  -0.373  -0.369  -0.368  -0.364  -0.360  -0.354
 -0.353  -0.350  -0.348  -0.347  -0.344  -0.341  -0.338  -0.338
 -0.336  -0.334  -0.332  -0.329  -0.328  -0.322  -0.317  -0.315
 -0.314  -0.310  -0.307  -0.307  -0.305  -0.302  -0.299  -0.298
 -0.295  -0.294  -0.290  -0.288  -0.287  -0.284  -0.280  -0.278
 -0.277  -0.272  -0.268  -0.267  -0.255  -0.248  -0.247  -0.246
 -0.241  -0.240  -0.231  -0.225  -0.192  -0.187

          Ground-State Mulliken Net Atomic Charges

     Atom                 Charge (a.u.)
  ----------------------------------------
      1 C                     0.271680
      2 C                    -0.116867
      3 N                    -0.494617
      4 C                    -0.104968
      5 C                     0.080243
      6 C                     0.051898
      7 C                     0.035895
      8 C                     0.052189
      9 C                     0.187843
     10 N                    -0.496391
     11 N                    -0.530066
     12 C                     0.277747
     13 C                     0.279307
     14 S                     0.600499
     15 N                    -0.562046
     16 C                    -0.218209
     17 S                     0.303193
     18 C                    -0.096435
     19 C                    -0.230540
     20 S                     0.267448
     21 C                     0.149935
     22 C                     0.070296
     23 C                    -0.308767
     24 C                    -0.062072
     25 N                    -0.444830
     26 S                     0.267179
     27 C                     0.113256
     28 C                    -0.300996
     29 C                    -0.221443
     30 H                     0.093824
     31 H                     0.108760
     32 H                     0.122499
     33 H                     0.101201
     34 H                     0.129539
     35 H                     0.128233
     36 H                     0.107108
     37 H                     0.140428
     38 H                     0.120072
     39 C                    -0.203312
     40 H                     0.121219
     41 H                     0.094375
     42 H                     0.127087
     43 C                    -0.189852
     44 H                     0.078779
     45 C                    -0.176098
     46 H                     0.088074
     47 H                     0.091426
     48 H                     0.121748
     49 C                    -0.179611
     50 H                     0.092410
     51 C                    -0.320167
     52 H                     0.084938
     53 H                     0.103978
     54 H                     0.104465
     55 H                     0.098100
     56 C                     0.269788
     57 C                    -0.113484
     58 N                    -0.505715
     59 C                    -0.095661
     60 C                     0.084954
     61 C                     0.053724
     62 C                     0.032829
     63 C                     0.057046
     64 C                     0.267677
     65 N                    -0.524542
     66 N                    -0.556905
     67 C                     0.208393
     68 C                     0.267995
     69 S                     0.622930
     70 N                    -0.548723
     71 C                    -0.232144
     72 S                     0.347091
     73 C                    -0.128602
     74 C                    -0.236625
     75 S                     0.273175
     76 C                     0.158294
     77 C                     0.071728
     78 C                    -0.295343
     79 C                    -0.086069
     80 N                    -0.433732
     81 S                     0.271915
     82 C                     0.129170
     83 C                    -0.308195
     84 C                    -0.226110
     85 H                     0.096827
     86 H                     0.096804
     87 H                     0.120587
     88 H                     0.120915
     89 H                     0.134379
     90 H                     0.098914
     91 H                     0.115943
     92 H                     0.133734
     93 H                     0.106805
     94 C                    -0.185759
     95 H                     0.127471
     96 H                     0.085414
     97 H                     0.115166
     98 C                    -0.194427
     99 H                     0.111066
    100 C                    -0.177432
    101 H                     0.094096
    102 H                     0.086824
    103 H                     0.094082
    104 C                    -0.164030
    105 H                     0.087373
    106 C                    -0.317785
    107 H                     0.085410
    108 H                     0.100009
    109 H                     0.095696
    110 H                     0.097475
  ----------------------------------------
  Sum of atomic charges =     0.000000

                    Cartesian Multipole Moments
 -----------------------------------------------------------------
    Charge (ESU x 10^10)
                 0.0000
    Dipole Moment (Debye)
         X      -0.9716      Y      -4.1017      Z       0.3683
       Tot       4.2313
    Quadrupole Moments (Debye-Ang)
        XX    -386.1431     XY       3.5191     YY    -429.9748
        XZ      -1.5501     YZ     -11.2864     ZZ    -443.2636

 Total job time:  105.18s(wall), 1272.65s(cpu)
        *  Thank you very much for using Q-Chem.  Have a nice day.  *
