 Q-Chem 4.4, Q-Chem, Inc., Pleasanton, CA (2016)
 Q-Chem 4.4.2 for Intel X86 Linux

User input:
--------------------------------------------------------------
$comment
SP
$end

$rem
MEM_STATIC 5000
MEM_TOTAL 20000
JOBTYPE SP
EXCHANGE B3LYP
BASIS 6-31g(d,p)
$end

$molecule
0 1
C         -22.081000    -13.277000     -4.137000
C         -21.760000    -12.009000     -3.679000
N         -23.203000    -13.909000     -3.685000
C         -22.510000    -11.375000     -2.639000
C         -23.937000    -13.377000     -2.705000
C         -23.648000    -12.062000     -2.140000
C         -24.536000    -11.325000     -1.195000
C         -25.982000    -11.570000     -1.212000
C         -24.132000    -10.260000     -0.341000
N         -26.897000    -11.012000     -0.334000
N         -22.877000     -9.871000     -0.170000
C         -25.087000     -9.663000      0.498000
C         -26.479000    -10.016000      0.469000
S         -23.027000     -8.707000      0.981000
N         -24.589000     -8.756000      1.387000
C         -27.563000     -9.363000      1.264000
S         -27.610000     -7.642000      1.755000
C         -28.806000     -9.938000      1.493000
C         -29.141000     -7.862000      2.551000
S         -29.359000    -11.538000      1.132000
C         -29.650000     -9.152000      2.274000
C         -29.773000     -6.841000      3.363000
C         -30.934000    -11.000000      1.895000
C         -30.918000     -9.804000      2.559000
N         -30.911000     -7.154000      3.926000
S         -29.277000     -5.160000      3.339000
C         -31.350000     -6.140000      4.679000
C         -30.510000     -5.013000      4.554000
C         -21.418000    -13.952000     -5.383000
H         -20.960000    -11.489000     -4.198000
H         -22.338000    -10.330000     -2.398000
H         -24.776000    -13.977000     -2.356000
H         -26.377000    -12.347000     -1.865000
H         -31.768000    -11.688000      1.857000
H         -31.719000     -9.236000      3.017000
H         -32.205000     -6.219000      5.337000
H         -30.508000     -4.028000      5.000000
H         -20.360000    -13.665000     -5.424000
C         -22.051000    -13.458000     -6.693000
H         -21.389000    -15.048000     -5.415000
H         -21.928000    -12.372000     -6.782000
H         -23.120000    -13.644000     -6.858000
C         -21.288000    -14.071000     -7.914000
H         -20.260000    -13.902000     -7.567000
C         -21.509000    -13.261000     -9.195000
H         -21.349000    -15.164000     -7.991000
H         -21.385000    -12.189000     -8.997000
H         -22.550000    -13.314000     -9.538000
C         -20.514000    -13.521000    -10.374000
H         -20.614000    -12.812000    -11.206000
C         -20.546000    -15.006000    -10.810000
H         -19.508000    -13.295000    -10.001000
H         -21.365000    -15.189000    -11.518000
H         -20.586000    -15.668000     -9.936000
H         -19.572000    -15.224000    -11.265000
C         -31.123000     -4.454000      0.332000
C         -30.373000     -5.422000     -0.299000
N         -30.662000     -3.212000      0.596000
C         -29.005000     -5.179000     -0.591000
C         -29.394000     -2.939000      0.211000
C         -28.495000     -3.898000     -0.259000
C         -27.088000     -3.529000     -0.598000
C         -26.137000     -4.626000     -0.602000
C         -26.515000     -2.252000     -1.038000
N         -24.902000     -4.555000     -1.016000
N         -27.179000     -1.044000     -1.018000
C         -25.204000     -2.177000     -1.355000
C         -24.392000     -3.364000     -1.431000
S         -26.004000     -0.007000     -1.484000
N         -24.720000     -0.964000     -1.769000
C         -22.908000     -3.383000     -1.828000
S         -21.979000     -2.019000     -2.344000
C         -22.024000     -4.451000     -1.665000
C         -20.429000     -2.929000     -2.342000
S         -22.345000     -6.078000     -1.348000
C         -20.692000     -4.197000     -1.952000
C         -19.196000     -2.276000     -2.553000
C         -20.629000     -6.395000     -1.203000
C         -19.859000     -5.352000     -1.647000
N         -19.198000     -0.916000     -2.488000
S         -17.719000     -3.113000     -2.842000
C         -17.859000     -0.559000     -2.651000
C         -16.967000     -1.603000     -2.768000
C         -32.482000     -4.687000      1.023000
H         -30.783000     -6.418000     -0.441000
H         -28.452000     -5.961000     -1.104000
H         -29.052000     -1.969000      0.568000
H         -26.426000     -5.653000     -0.383000
H         -20.299000     -7.415000     -1.059000
H         -18.785000     -5.426000     -1.773000
H         -17.527000      0.467000     -2.570000
H         -15.909000     -1.545000     -2.987000
H         -32.578000     -4.205000      2.003000
C         -32.882000     -6.166000      1.075000
H         -33.175000     -4.148000      0.366000
H         -32.087000     -6.779000      1.516000
H         -33.020000     -6.552000      0.058000
C         -34.105000     -6.340000      1.992000
H         -33.881000     -6.064000      3.030000
C         -34.636000     -7.769000      1.871000
H         -34.913000     -5.667000      1.679000
H         -33.782000     -8.439000      1.712000
H         -35.228000     -7.814000      0.947000
C         -35.401000     -8.320000      3.145000
H         -36.001000     -7.454000      3.450000
C         -34.506000     -8.923000      4.257000
H         -36.069000     -9.054000      2.679000
H         -35.069000     -9.315000      5.114000
H         -33.787000     -8.180000      4.623000
H         -33.995000     -9.820000      3.885000
$end

--------------------------------------------------------------

             Standard Nuclear Orientation (Angstroms)
    I     Atom           X                Y                Z
 ----------------------------------------------------------------
    1      C       5.7231713484    -5.3744146983     0.4951437857
    2      C       5.5404286715    -4.0221582431     0.7372937256
    3      N       4.6518516384    -6.2193137766     0.4630248476
    4      C       4.2588356228    -3.4883154788     1.0816585910
    5      C       3.4320354221    -5.7860716257     0.7894136299
    6      C       3.1576984010    -4.3846210030     1.0937922609
    7      C       1.7967483398    -3.7989946469     1.2658233682
    8      C       0.6485535998    -4.4118054152     0.5895528593
    9      C       1.5015821353    -2.5736194392     1.9277066753
   10      N      -0.6701835273    -4.0125843554     0.7345629803
   11      N       2.3858986332    -1.8545033012     2.6033125601
   12      C       0.1645658556    -2.1519579704     2.0110377835
   13      C      -0.9153219145    -2.8556492653     1.3771805714
   14      S       1.4566460072    -0.6436881637     3.2137331199
   15      N      -0.0465760281    -1.0495159954     2.7862892245
   16      C      -2.3442565823    -2.4189758929     1.3463247597
   17      S      -2.9212351733    -0.7243374557     1.3256541859
   18      C      -3.4045932159    -3.2666732062     1.0544164032
   19      C      -4.5817548039    -1.2405925695     1.2794782827
   20      S      -3.4132778959    -4.9861954792     0.8561798558
   21      C      -4.6485698165    -2.6417386871     1.0999363338
   22      C      -5.7043962206    -0.3316636075     1.4008594651
   23      C      -5.2129037244    -4.7911514487     0.5813295269
   24      C      -5.7475219250    -3.5632225140     0.8605103123
   25      N      -6.8994627869    -0.8620157949     1.3779583879
   26      S      -5.5483125245     1.4058380515     1.2303342034
   27      C      -7.8295317394     0.0835146827     1.5478697165
   28      C      -7.2463765751     1.3676598140     1.5953600961
   29      C       7.0502939873    -5.9941732928    -0.0547241856
   30      H       6.3992538786    -3.3761464989     0.5796577838
   31      H       4.1051845452    -2.4138338790     1.1212898688
   32      H       2.6452538187    -6.5387088920     0.8047059129
   33      H       0.7970929230    -5.3353658038     0.0317578449
   34      H      -5.7730526873    -5.6719167408     0.2970239873
   35      H      -6.7472464442    -3.1736929844     0.7094916672
   36      H      -8.8788468606    -0.1378860519     1.6898186197
   37      H      -7.6415843357     2.3643024052     1.7355719766
   38      H       7.9020641218    -5.4487455015     0.3700229891
   39      C       7.1538864026    -5.8378196868    -1.5797314516
   40      H       7.2657363912    -7.0409345826     0.1921692588
   41      H       7.1309778743    -4.7752146366    -1.8495308339
   42      H       6.3879508522    -6.3132873928    -2.2057148324
   43      C       8.5404160502    -6.3692343807    -2.0736069008
   44      H       9.1770756135    -5.8995245432    -1.3121666411
   45      C       8.9190091607    -5.7994729740    -3.4439868468
   46      H       8.7051684674    -7.4417628987    -1.9097831572
   47      H       8.7445229414    -4.7165996417    -3.4705180636
   48      H       8.2510011748    -6.1609049363    -4.2359914348
   49      C      10.4187375776    -5.9273023525    -3.8707658594
   50      H      10.6715767829    -5.3705959599    -4.7823882202
   51      C      10.8632131204    -7.4098574717    -3.8993457522
   52      H      11.0141277472    -5.4056470262    -3.1120648205
   53      H      10.5961877340    -7.8806905127    -4.8546089047
   54      H      10.4644504041    -7.9530223765    -3.0335050149
   55      H      11.9488141832    -7.4185608535    -3.7424394630
   56      C      -5.5676377333     1.2523477034    -2.3646996280
   57      C      -4.4533170187     0.4459859038    -2.2888379573
   58      N      -5.5259000542     2.5934882590    -2.2085555398
   59      C      -3.2028514102     1.0006077711    -1.9087493541
   60      C      -4.3128277148     3.1400329207    -1.9629492855
   61      C      -3.1634115181     2.3997929899    -1.6806918648
   62      C      -1.8753856187     3.0798590004    -1.3501914808
   63      C      -0.9120861628     2.2751364350    -0.6206013555
   64      C      -1.3672497506     4.4016732365    -1.7339401807
   65      N       0.3214173761     2.6160949747    -0.3678598003
   66      N      -2.1193739021     5.3892838053    -2.3335188870
   67      C      -0.1237679195     4.7775252795    -1.3633687604
   68      C       0.7776325964     3.8420043645    -0.7417847135
   69      S      -1.0610383579     6.6345473336    -2.3824537500
   70      N       0.3069014403     6.0178788687    -1.7546076598
   71      C       2.2222836698     4.1634174697    -0.3295919285
   72      S       3.0520622487     5.6523400231    -0.6200573134
   73      C       3.0355669813     3.3885229360     0.4991165347
   74      C       4.4779667489     5.1833162044     0.3685867143
   75      S       2.8578170264     1.7824130612     0.9884783882
   76      C       4.2518069086     3.9449106363     0.8628501820
   77      C       5.5079340642     6.1052770469     0.6520907434
   78      C       4.2497525846     1.9416301157     2.0388760897
   79      C       4.9602188545     3.0899003593     1.8052136688
   80      N       5.2550865433     7.4159605667     0.3837517002
   81      S       7.0186266825     5.6533524564     1.3443269585
   82      C       6.3939369024     8.0873421637     0.8300762577
   83      C       7.3608827640     7.3049203566     1.4234739460
   84      C      -7.0272208526     0.7561246194    -2.4097636817
   85      H      -4.5576947236    -0.6318797894    -2.3759633956
   86      H      -2.3446525915     0.3350574228    -1.8765077428
   87      H      -4.3764127298     4.2003369342    -1.7241494851
   88      H      -1.1059315006     1.2410647677    -0.3389441669
   89      H       4.6073108995     1.0664835266     2.5645247356
   90      H       5.9284034276     3.2835503348     2.2523672434
   91      H       6.4618812479     9.1665781986     0.8203733299
   92      H       8.3449555808     7.6101070412     1.7538536955
   93      H      -7.7112629031     1.3073301730    -1.7538681787
   94      C      -7.1510761520    -0.7595262976    -2.2158380195
   95      H      -7.3322444173     1.0160695575    -3.4304537689
   96      H      -6.6335273855    -1.0890407889    -1.3070814655
   97      H      -6.6559499875    -1.2838643136    -3.0418215098
   98      C      -8.6292871823    -1.1375092594    -2.0185690906
   99      H      -9.0470942037    -0.6938046823    -1.1062316852
  100      C      -8.7762589777    -2.6594447636    -2.0460392991
  101      H      -9.2360920807    -0.7389531231    -2.8411885783
  102      H      -7.8775695674    -3.0981401287    -1.5950396090
  103      H      -8.7610422618    -2.9641318470    -3.1011218706
  104      C     -10.0079807992    -3.2381332524    -1.2337074780
  105      H     -10.8063486422    -2.5285118011    -1.4827600490
  106      C      -9.7708125055    -3.4539064754     0.2823304887
  107      H     -10.1928853432    -4.1696799586    -1.7815825037
  108      H     -10.6360179462    -3.8762310743     0.8097235856
  109      H      -9.4912673162    -2.5121192938     0.7700367443
  110      H      -9.0050498383    -4.2241883826     0.4384948925
 ----------------------------------------------------------------

   10   -5663.5049132527      6.92E-06 Convergence criterion met
 Total energy in the final basis set = -5663.5049132527

                    Orbital Energies (a.u.)
 --------------------------------------------------------------

 Alpha MOs
 -- Occupied --
-88.992 -88.987 -88.934 -88.928 -88.925 -88.919 -88.910 -88.909
-14.396 -14.395 -14.391 -14.386 -14.353 -14.350 -14.348 -14.343
-14.330 -14.327 -10.270 -10.268 -10.267 -10.265 -10.263 -10.259
-10.258 -10.258 -10.246 -10.245 -10.242 -10.240 -10.237 -10.236
-10.235 -10.235 -10.234 -10.233 -10.231 -10.231 -10.230 -10.227
-10.227 -10.226 -10.226 -10.226 -10.225 -10.223 -10.222 -10.219
-10.218 -10.214 -10.210 -10.209 -10.209 -10.202 -10.199 -10.197
-10.192 -10.183 -10.181 -10.181 -10.180 -10.180 -10.179 -10.179
-10.176 -10.174 -10.173 -10.171  -8.048  -8.043  -7.997  -7.989
 -7.984  -7.978  -7.971  -7.969  -6.012  -6.007  -6.007  -6.006
 -6.002  -6.000  -5.960  -5.957  -5.954  -5.953  -5.950  -5.949
 -5.947  -5.945  -5.942  -5.941  -5.938  -5.935  -5.934  -5.933
 -5.932  -5.930  -5.927  -5.925  -1.047  -1.045  -0.983  -0.967
 -0.961  -0.950  -0.937  -0.934  -0.921  -0.919  -0.908  -0.907
 -0.852  -0.840  -0.830  -0.828  -0.823  -0.813  -0.812  -0.806
 -0.805  -0.799  -0.799  -0.791  -0.782  -0.781  -0.763  -0.763
 -0.749  -0.745  -0.741  -0.737  -0.728  -0.721  -0.709  -0.706
 -0.692  -0.690  -0.675  -0.667  -0.653  -0.653  -0.647  -0.645
 -0.635  -0.632  -0.625  -0.625  -0.613  -0.611  -0.599  -0.598
 -0.597  -0.593  -0.588  -0.586  -0.578  -0.577  -0.566  -0.566
 -0.553  -0.550  -0.541  -0.534  -0.529  -0.523  -0.519  -0.514
 -0.505  -0.503  -0.502  -0.500  -0.488  -0.481  -0.477  -0.476
 -0.474  -0.471  -0.467  -0.466  -0.460  -0.460  -0.451  -0.447
 -0.447  -0.443  -0.442  -0.439  -0.435  -0.434  -0.432  -0.431
 -0.429  -0.425  -0.424  -0.421  -0.419  -0.416  -0.412  -0.411
 -0.411  -0.410  -0.407  -0.405  -0.400  -0.399  -0.397  -0.396
 -0.394  -0.392  -0.392  -0.389  -0.389  -0.387  -0.386  -0.385
 -0.380  -0.380  -0.375  -0.372  -0.369  -0.366  -0.361  -0.357
 -0.355  -0.354  -0.353  -0.352  -0.349  -0.347  -0.345  -0.345
 -0.340  -0.339  -0.337  -0.337  -0.334  -0.331  -0.325  -0.322
 -0.321  -0.317  -0.316  -0.312  -0.307  -0.304  -0.304  -0.300
 -0.298  -0.297  -0.296  -0.294  -0.290  -0.287  -0.287  -0.284
 -0.276  -0.273  -0.272  -0.267  -0.253  -0.250  -0.249  -0.248
 -0.246  -0.243  -0.234  -0.231  -0.193  -0.191

          Ground-State Mulliken Net Atomic Charges

     Atom                 Charge (a.u.)
  ----------------------------------------
      1 C                     0.256753
      2 C                    -0.125629
      3 N                    -0.467588
      4 C                    -0.062790
      5 C                     0.076510
      6 C                     0.020854
      7 C                     0.032700
      8 C                     0.044368
      9 C                     0.242858
     10 N                    -0.516764
     11 N                    -0.569333
     12 C                     0.163639
     13 C                     0.289648
     14 S                     0.612532
     15 N                    -0.518418
     16 C                    -0.218551
     17 S                     0.298537
     18 C                    -0.098663
     19 C                    -0.245475
     20 S                     0.276755
     21 C                     0.141898
     22 C                     0.083307
     23 C                    -0.322915
     24 C                    -0.033341
     25 N                    -0.446293
     26 S                     0.292919
     27 C                     0.136401
     28 C                    -0.321860
     29 C                    -0.220925
     30 H                     0.087517
     31 H                     0.124508
     32 H                     0.107792
     33 H                     0.114701
     34 H                     0.119664
     35 H                     0.144096
     36 H                     0.119199
     37 H                     0.130624
     38 H                     0.095583
     39 C                    -0.171894
     40 H                     0.117989
     41 H                     0.093439
     42 H                     0.109816
     43 C                    -0.180173
     44 H                     0.087311
     45 C                    -0.177090
     46 H                     0.099029
     47 H                     0.086688
     48 H                     0.091616
     49 C                    -0.182380
     50 H                     0.091059
     51 C                    -0.314564
     52 H                     0.090467
     53 H                     0.106054
     54 H                     0.105427
     55 H                     0.097548
     56 C                     0.258211
     57 C                    -0.118708
     58 N                    -0.479505
     59 C                    -0.082505
     60 C                     0.065645
     61 C                     0.033178
     62 C                     0.013544
     63 C                     0.057531
     64 C                     0.231850
     65 N                    -0.505430
     66 N                    -0.530883
     67 C                     0.177336
     68 C                     0.285035
     69 S                     0.617812
     70 N                    -0.527365
     71 C                    -0.224410
     72 S                     0.357375
     73 C                    -0.125890
     74 C                    -0.270044
     75 S                     0.285647
     76 C                     0.160231
     77 C                     0.054801
     78 C                    -0.315860
     79 C                    -0.071052
     80 N                    -0.432280
     81 S                     0.298610
     82 C                     0.115217
     83 C                    -0.299858
     84 C                    -0.213343
     85 H                     0.102367
     86 H                     0.116745
     87 H                     0.116083
     88 H                     0.113666
     89 H                     0.130329
     90 H                     0.114793
     91 H                     0.114129
     92 H                     0.130769
     93 H                     0.122885
     94 C                    -0.200716
     95 H                     0.118166
     96 H                     0.118524
     97 H                     0.094067
     98 C                    -0.177347
     99 H                     0.090920
    100 C                    -0.190235
    101 H                     0.089683
    102 H                     0.091216
    103 H                     0.090465
    104 C                    -0.183336
    105 H                     0.092430
    106 C                    -0.323106
    107 H                     0.092750
    108 H                     0.103376
    109 H                     0.112847
    110 H                     0.108478
  ----------------------------------------
  Sum of atomic charges =     0.000000

                    Cartesian Multipole Moments
 -----------------------------------------------------------------
    Charge (ESU x 10^10)
                 0.0000
    Dipole Moment (Debye)
         X       2.0413      Y       1.6493      Z       0.7945
       Tot       2.7420
    Quadrupole Moments (Debye-Ang)
        XX    -393.6274     XY      20.1622     YY    -451.4869
        XZ       7.5336     YZ      14.0384     ZZ    -450.4806

 Total job time:  100.24s(wall), 1213.53s(cpu)
        *  Thank you very much for using Q-Chem.  Have a nice day.  *
