 Q-Chem 4.4, Q-Chem, Inc., Pleasanton, CA (2016)
 Q-Chem 4.4.2 for Intel X86 Linux

User input:
--------------------------------------------------------------
$comment
SP
$end

$rem
MEM_STATIC 5000
MEM_TOTAL 20000
JOBTYPE SP
EXCHANGE B3LYP
BASIS 6-31g(d,p)
$end

$molecule
0 1
C         -12.484000     -4.720000     -3.691000
C         -12.142000     -5.825000     -2.880000
N         -13.516000     -3.967000     -3.390000
C         -12.761000     -5.970000     -1.591000
C         -14.133000     -4.116000     -2.209000
C         -13.700000     -5.024000     -1.167000
C         -14.184000     -4.955000      0.215000
C         -13.264000     -5.184000      1.276000
C         -15.460000     -4.513000      0.572000
N         -13.560000     -5.104000      2.593000
N         -16.499000     -4.201000     -0.258000
C         -15.688000     -4.332000      1.912000
C         -14.726000     -4.631000      2.961000
S         -17.644000     -3.596000      0.750000
N         -16.854000     -3.768000      2.162000
C         -15.004000     -4.505000      4.353000
S         -16.166000     -3.264000      5.037000
C         -14.107000     -4.933000      5.360000
C         -15.484000     -3.514000      6.664000
S         -12.599000     -5.929000      5.314000
C         -14.336000     -4.292000      6.555000
C         -15.831000     -2.739000      7.810000
C         -12.396000     -5.625000      7.112000
C         -13.320000     -4.670000      7.507000
N         -15.400000     -3.121000      8.985000
S         -17.042000     -1.492000      7.744000
C         -15.745000     -2.200000      9.913000
C         -16.732000     -1.325000      9.437000
C         -11.844000     -4.473000     -5.112000
H         -11.282000     -6.422000     -3.171000
H         -12.504000     -6.847000     -1.004000
H         -14.858000     -3.350000     -1.938000
H         -12.271000     -5.607000      1.125000
H         -11.534000     -6.021000      7.633000
H         -13.287000     -4.339000      8.540000
H         -15.310000     -2.166000     10.902000
H         -17.346000     -0.588000      9.937000
H         -12.685000     -4.370000     -5.810000
C         -10.944000     -5.577000     -5.650000
H         -11.269000     -3.546000     -5.000000
H         -11.405000     -6.572000     -5.674000
H         -10.124000     -5.708000     -4.931000
C         -10.427000     -5.306000     -7.050000
H         -11.278000     -5.036000     -7.686000
C          -9.655000     -6.561000     -7.611000
H          -9.862000     -4.366000     -7.042000
H         -10.426000     -7.335000     -7.515000
H          -8.791000     -6.986000     -7.084000
C          -9.247000     -6.584000     -9.075000
H         -10.176000     -6.274000     -9.570000
C          -8.722000     -7.961000     -9.428000
H          -8.624000     -5.710000     -9.303000
H          -9.531000     -8.685000     -9.273000
H          -7.865000     -8.333000     -8.852000
H          -8.500000     -8.094000    -10.494000
C         -31.123000     -4.454000      0.332000
C         -30.373000     -5.422000     -0.299000
N         -30.662000     -3.212000      0.596000
C         -29.005000     -5.179000     -0.591000
C         -29.394000     -2.939000      0.211000
C         -28.495000     -3.898000     -0.259000
C         -27.088000     -3.529000     -0.598000
C         -26.137000     -4.626000     -0.602000
C         -26.515000     -2.252000     -1.038000
N         -24.902000     -4.555000     -1.016000
N         -27.179000     -1.044000     -1.018000
C         -25.204000     -2.177000     -1.355000
C         -24.392000     -3.364000     -1.431000
S         -26.004000     -0.007000     -1.484000
N         -24.720000     -0.964000     -1.769000
C         -22.908000     -3.383000     -1.828000
S         -21.979000     -2.019000     -2.344000
C         -22.024000     -4.451000     -1.665000
C         -20.429000     -2.929000     -2.342000
S         -22.345000     -6.078000     -1.348000
C         -20.692000     -4.197000     -1.952000
C         -19.196000     -2.276000     -2.553000
C         -20.629000     -6.395000     -1.203000
C         -19.859000     -5.352000     -1.647000
N         -19.198000     -0.916000     -2.488000
S         -17.719000     -3.113000     -2.842000
C         -17.859000     -0.559000     -2.651000
C         -16.967000     -1.603000     -2.768000
C         -32.482000     -4.687000      1.023000
H         -30.783000     -6.418000     -0.441000
H         -28.452000     -5.961000     -1.104000
H         -29.052000     -1.969000      0.568000
H         -26.426000     -5.653000     -0.383000
H         -20.299000     -7.415000     -1.059000
H         -18.785000     -5.426000     -1.773000
H         -17.527000      0.467000     -2.570000
H         -15.909000     -1.545000     -2.987000
H         -32.578000     -4.205000      2.003000
C         -32.882000     -6.166000      1.075000
H         -33.175000     -4.148000      0.366000
H         -32.087000     -6.779000      1.516000
H         -33.020000     -6.552000      0.058000
C         -34.105000     -6.340000      1.992000
H         -33.881000     -6.064000      3.030000
C         -34.636000     -7.769000      1.871000
H         -34.913000     -5.667000      1.679000
H         -33.782000     -8.439000      1.712000
H         -35.228000     -7.814000      0.947000
C         -35.401000     -8.320000      3.145000
H         -36.001000     -7.454000      3.450000
C         -34.506000     -8.923000      4.257000
H         -36.069000     -9.054000      2.679000
H         -35.069000     -9.315000      5.114000
H         -33.787000     -8.180000      4.623000
H         -33.995000     -9.820000      3.885000
$end

--------------------------------------------------------------

             Standard Nuclear Orientation (Angstroms)
    I     Atom           X                Y                Z
 ----------------------------------------------------------------
    1      C      -7.5804280726    -3.5037374996    -0.3052264510
    2      C      -7.8553359311    -2.7562004493    -1.4719843641
    3      N      -6.5306667325    -3.2258056443     0.4319227962
    4      C      -7.1382680498    -1.5334286709    -1.7093655588
    5      C      -5.8239133790    -2.1105495820     0.1987820386
    6      C      -6.1723489083    -1.1112633034    -0.7900236124
    7      C      -5.5833789916     0.2307536487    -0.8223645670
    8      C      -6.4180418670     1.3384431458    -1.1400497294
    9      C      -4.2850417132     0.5217481508    -0.3973569066
   10      N      -6.0215606597     2.6311068566    -1.1581655546
   11      N      -3.3141730346    -0.3590554722    -0.0134767345
   12      C      -3.9549022495     1.8502506826    -0.3171449536
   13      C      -4.8321442036     2.9438538774    -0.7040875932
   14      S      -2.0967297363     0.6016615670     0.5231503109
   15      N      -2.7748783622     2.0526866199     0.2366738946
   16      C      -4.4479678293     4.3159889842    -0.6822298234
   17      S      -3.2405863896     5.0021813153     0.5134085601
   18      C      -5.2632365360     5.3529444463    -1.1939937392
   19      C      -3.7942216699     6.6526606318     0.1337257946
   20      S      -6.7671323489     5.3463396929    -2.1972134366
   21      C      -4.9447430444     6.5725692855    -0.6440627006
   22      C      -3.3622851676     7.8248210665     0.8220721996
   23      C      -6.8317561378     7.1726387252    -2.0332481644
   24      C      -5.8830582754     7.5678172777    -1.1028545501
   25      N      -3.7001282594     8.9965809403     0.3475715741
   26      S      -2.1639381408     7.7621487741     2.0814063836
   27      C      -3.2874681972     9.9634003096     1.1981137425
   28      C      -2.3429107573     9.4817482088     2.1158242070
   29      C      -8.3289408283    -4.8482820249     0.0437415618
   30      H      -8.7333327303    -3.0253962935    -2.0527986357
   31      H      -7.3464344630    -0.9975690419    -2.6309230461
   32      H      -5.0825911576    -1.8378981684     0.9483983209
   33      H      -7.4183896208     1.2319881226    -1.5592760401
   34      H      -7.6497297601     7.7262406900    -2.4756789699
   35      H      -5.8373016119     8.6226744242    -0.8520125116
   36      H      -3.6449666716    10.9825276755     1.1525478248
   37      H      -1.6944959733     9.9883307121     2.8180331753
   38      H      -7.5446348612    -5.5987389284     0.2073648671
   39      C      -9.2642727903    -5.3989038192    -1.0240738532
   40      H      -8.8965140308    -4.6216257649     0.9542280249
   41      H      -8.8033541043    -5.5345620765    -2.0101127988
   42      H     -10.0259325699    -4.6313327406    -1.2170272660
   43      C      -9.8886084246    -6.7301612355    -0.6516645254
   44      H      -9.0900766859    -7.4069206937    -0.3261791986
   45      C     -10.6976196675    -7.3250647154    -1.8671153300
   46      H     -10.4542771242    -6.6066584741     0.2798154744
   47      H      -9.9190666587    -7.3482260750    -2.6391592173
   48      H     -11.5170326389    -6.7675729199    -2.3389365675
   49      C     -11.2172890542    -8.7508912266    -1.7819596583
   50      H     -10.3302373644    -9.2903924303    -1.4266516920
   51      C     -11.7636029755    -9.1673393751    -3.1326909561
   52      H     -11.8587852797    -8.8626166893    -0.8987897914
   53      H     -10.9427692198    -9.1309220384    -3.8590432971
   54      H     -12.5724237048    -8.5576019420    -3.5553471881
   55      H     -12.0667706628   -10.2202333776    -3.1859128769
   56      C      11.3124806721    -0.9134778450    -0.1781041266
   57      C      10.5190948486    -1.5576044061    -1.1018599971
   58      N      10.8692988526    -0.5202606953     1.0358774005
   59      C       9.1318810020    -1.7242986354    -0.8496938262
   60      C       9.5745157275    -0.7847693020     1.3259633461
   61      C       8.6449689508    -1.2567291837     0.3975352876
   62      C       7.2148465699    -1.4574741343     0.7785634237
   63      C       6.2698475707    -1.4728026706    -0.3235109511
   64      C       6.6055686960    -1.7528184533     2.0801817263
   65      N       5.0063672115    -1.7841904309    -0.2323131193
   66      N       7.2653081886    -1.6910465666     3.2891019205
   67      C       5.2737870414    -1.9616437633     2.1672714175
   68      C       4.4621021911    -2.0661213239     0.9822224130
   69      S       6.0545809877    -1.9845099208     4.3479545564
   70      N       4.7554519537    -2.2428842005     3.4039013352
   71      C       2.9519617617    -2.3484287867     0.9801295910
   72      S       1.9816077292    -2.6853384853     2.3710637758
   73      C       2.0865564835    -2.2006542765    -0.1051746975
   74      C       0.4392689461    -2.6343985259     1.4495431853
   75      S       2.4362033791    -2.0351482375    -1.7486508304
   76      C       0.7355861353    -2.3642937141     0.1579037178
   77      C      -0.8083949839    -2.6994238397     2.1055351261
   78      C       0.7375183859    -1.7837623974    -2.0913525274
   79      C      -0.0677397107    -2.0859537571    -1.0245232159
   80      N      -0.8056872474    -2.5304716059     3.4565631831
   81      S      -2.3006358704    -2.9377538532     1.2796810582
   82      C      -2.1543947832    -2.5623934426     3.8128046451
   83      C      -3.0494565508    -2.6905068176     2.7727371495
   84      C      12.7214761321    -0.3486830107    -0.4508486750
   85      H      10.9200642537    -1.8067310390    -2.0803483501
   86      H       8.5434233278    -2.2519397148    -1.5952234749
   87      H       9.2580146426    -0.3291256563     2.2627284882
   88      H       6.5781306900    -1.3561650445    -1.3615707676
   89      H       0.4228409125    -1.6936733503    -3.1223219990
   90      H      -1.1480204818    -2.1345308137    -1.0984267011
   91      H      -2.4823986883    -2.3775831375     4.8265697014
   92      H      -4.1213783805    -2.8226196592     2.8376893473
   93      H      12.8912805527     0.6551959138    -0.0442363735
   94      C      13.1289719149    -0.4412984241    -1.9258112413
   95      H      13.3600085217    -1.0135340781     0.1430102692
   96      H      12.3723118724     0.0109658923    -2.5778829921
   97      H      13.1893102035    -1.4925281388    -2.2317595668
   98      C      14.4196247765     0.3631235496    -2.1582213942
   99      H      14.2755115611     1.4333730292    -1.9643311348
  100      C      14.9442227443     0.0923257807    -3.5689334628
  101      H      15.1989325497     0.0417156999    -1.4559832658
  102      H      14.0826238869    -0.0517188940    -4.2325565039
  103      H      15.4633025004    -0.8750709898    -3.5378739197
  104      C      15.8069814162     1.2577963736    -4.2086425930
  105      H      16.4259840174     1.5815160367    -3.3630526454
  106      C      15.0023619291     2.3855325879    -4.9028878753
  107      H      16.4393522317     0.6869283463    -4.8988257911
  108      H      15.6310456787     3.1641746781    -5.3540588389
  109      H      14.3113990618     2.8615941749    -4.1965581497
  110      H      14.4670219668     1.9860018052    -5.7734625582
 ----------------------------------------------------------------

   10   -5663.5006232547      3.78E-06 Convergence criterion met
 Total energy in the final basis set = -5663.5006232547

                    Orbital Energies (a.u.)
 --------------------------------------------------------------

 Alpha MOs
 -- Occupied --
-88.987 -88.987 -88.931 -88.929 -88.925 -88.913 -88.910 -88.903
-14.392 -14.387 -14.384 -14.381 -14.347 -14.345 -14.343 -14.342
-14.331 -14.324 -10.269 -10.265 -10.259 -10.259 -10.259 -10.253
-10.252 -10.250 -10.245 -10.245 -10.242 -10.238 -10.238 -10.236
-10.234 -10.234 -10.232 -10.231 -10.230 -10.229 -10.228 -10.224
-10.224 -10.224 -10.221 -10.220 -10.219 -10.219 -10.217 -10.216
-10.216 -10.215 -10.211 -10.204 -10.204 -10.202 -10.199 -10.198
-10.192 -10.186 -10.183 -10.182 -10.182 -10.181 -10.180 -10.179
-10.178 -10.178 -10.176 -10.175  -8.043  -8.042  -7.993  -7.987
 -7.987  -7.972  -7.968  -7.964  -6.008  -6.008  -6.002  -6.002
 -6.001  -6.000  -5.957  -5.954  -5.951  -5.950  -5.950  -5.948
 -5.947  -5.944  -5.944  -5.936  -5.933  -5.932  -5.929  -5.929
 -5.928  -5.925  -5.924  -5.921  -1.043  -1.040  -0.985  -0.966
 -0.960  -0.957  -0.947  -0.935  -0.915  -0.908  -0.904  -0.902
 -0.846  -0.842  -0.834  -0.827  -0.817  -0.814  -0.812  -0.808
 -0.807  -0.806  -0.798  -0.793  -0.786  -0.781  -0.767  -0.761
 -0.753  -0.744  -0.737  -0.734  -0.727  -0.722  -0.710  -0.707
 -0.695  -0.688  -0.673  -0.671  -0.658  -0.652  -0.648  -0.642
 -0.637  -0.632  -0.631  -0.621  -0.616  -0.610  -0.601  -0.596
 -0.594  -0.590  -0.584  -0.582  -0.581  -0.578  -0.577  -0.567
 -0.557  -0.544  -0.543  -0.536  -0.526  -0.523  -0.513  -0.512
 -0.507  -0.503  -0.497  -0.495  -0.485  -0.481  -0.479  -0.477
 -0.473  -0.472  -0.471  -0.466  -0.462  -0.458  -0.454  -0.452
 -0.448  -0.444  -0.444  -0.438  -0.437  -0.435  -0.434  -0.429
 -0.429  -0.426  -0.423  -0.421  -0.416  -0.415  -0.414  -0.412
 -0.410  -0.409  -0.406  -0.405  -0.403  -0.399  -0.396  -0.395
 -0.393  -0.392  -0.391  -0.390  -0.387  -0.385  -0.384  -0.383
 -0.380  -0.378  -0.375  -0.374  -0.372  -0.365  -0.359  -0.359
 -0.353  -0.352  -0.349  -0.349  -0.347  -0.347  -0.344  -0.342
 -0.339  -0.335  -0.334  -0.333  -0.331  -0.329  -0.325  -0.319
 -0.318  -0.318  -0.317  -0.313  -0.309  -0.307  -0.306  -0.301
 -0.299  -0.294  -0.292  -0.290  -0.287  -0.284  -0.283  -0.280
 -0.273  -0.272  -0.268  -0.266  -0.251  -0.250  -0.249  -0.248
 -0.245  -0.240  -0.234  -0.230  -0.194  -0.187

          Ground-State Mulliken Net Atomic Charges

     Atom                 Charge (a.u.)
  ----------------------------------------
      1 C                     0.253238
      2 C                    -0.117196
      3 N                    -0.483953
      4 C                    -0.108278
      5 C                     0.088295
      6 C                     0.045594
      7 C                     0.008673
      8 C                     0.051798
      9 C                     0.277746
     10 N                    -0.526111
     11 N                    -0.600799
     12 C                     0.187250
     13 C                     0.345674
     14 S                     0.621526
     15 N                    -0.559204
     16 C                    -0.236699
     17 S                     0.318221
     18 C                    -0.101896
     19 C                    -0.204121
     20 S                     0.261046
     21 C                     0.141045
     22 C                     0.058818
     23 C                    -0.301456
     24 C                    -0.058107
     25 N                    -0.416511
     26 S                     0.283878
     27 C                     0.126368
     28 C                    -0.314508
     29 C                    -0.214190
     30 H                     0.091167
     31 H                     0.104902
     32 H                     0.102218
     33 H                     0.112758
     34 H                     0.135505
     35 H                     0.120476
     36 H                     0.119707
     37 H                     0.133832
     38 H                     0.121639
     39 C                    -0.183789
     40 H                     0.118860
     41 H                     0.096602
     42 H                     0.094662
     43 C                    -0.186722
     44 H                     0.094787
     45 C                    -0.173314
     46 H                     0.091425
     47 H                     0.090868
     48 H                     0.089865
     49 C                    -0.174148
     50 H                     0.091585
     51 C                    -0.323427
     52 H                     0.093203
     53 H                     0.106263
     54 H                     0.106977
     55 H                     0.101792
     56 C                     0.254945
     57 C                    -0.118343
     58 N                    -0.480180
     59 C                    -0.082269
     60 C                     0.069803
     61 C                     0.035778
     62 C                     0.012462
     63 C                     0.060078
     64 C                     0.231690
     65 N                    -0.504167
     66 N                    -0.533072
     67 C                     0.177727
     68 C                     0.284708
     69 S                     0.615198
     70 N                    -0.526148
     71 C                    -0.224835
     72 S                     0.352821
     73 C                    -0.119667
     74 C                    -0.268014
     75 S                     0.282593
     76 C                     0.157516
     77 C                     0.038157
     78 C                    -0.309698
     79 C                    -0.087432
     80 N                    -0.438524
     81 S                     0.337932
     82 C                     0.110669
     83 C                    -0.316094
     84 C                    -0.211710
     85 H                     0.090993
     86 H                     0.109934
     87 H                     0.118146
     88 H                     0.106144
     89 H                     0.126721
     90 H                     0.129010
     91 H                     0.110892
     92 H                     0.147153
     93 H                     0.123201
     94 C                    -0.192028
     95 H                     0.120485
     96 H                     0.100612
     97 H                     0.096634
     98 C                    -0.179287
     99 H                     0.095427
    100 C                    -0.186184
    101 H                     0.093046
    102 H                     0.085814
    103 H                     0.090904
    104 C                    -0.181253
    105 H                     0.093974
    106 C                    -0.317572
    107 H                     0.092818
    108 H                     0.105696
    109 H                     0.107382
    110 H                     0.105579
  ----------------------------------------
  Sum of atomic charges =     0.000000

                    Cartesian Multipole Moments
 -----------------------------------------------------------------
    Charge (ESU x 10^10)
                 0.0000
    Dipole Moment (Debye)
         X      -2.9647      Y       1.9757      Z      -2.1172
       Tot       4.1443
    Quadrupole Moments (Debye-Ang)
        XX    -415.9530     XY       0.9720     YY    -411.8699
        XZ     -12.0002     YZ      23.1243     ZZ    -435.4259

 Total job time:  89.04s(wall), 1038.79s(cpu)
        *  Thank you very much for using Q-Chem.  Have a nice day.  *
