 Q-Chem 4.4, Q-Chem, Inc., Pleasanton, CA (2016)
 Q-Chem 4.4.2 for Intel X86 Linux

User input:
--------------------------------------------------------------
$comment
SP
$end

$rem
MEM_STATIC 5000
MEM_TOTAL 20000
JOBTYPE SP
EXCHANGE B3LYP
BASIS 6-31g(d,p)
$end

$molecule
0 1
C         -23.936000      9.814000     -8.354000
C         -24.076000      8.493000     -8.488000
N         -24.026000     10.381000     -7.127000
C         -24.252000      7.580000     -7.407000
C         -24.251000      9.592000     -6.097000
C         -24.315000      8.185000     -6.154000
C         -24.604000      7.415000     -4.861000
C         -25.100000      8.001000     -3.665000
C         -24.075000      6.132000     -4.644000
N         -25.358000      7.381000     -2.543000
N         -23.391000      5.439000     -5.556000
C         -24.237000      5.484000     -3.467000
C         -24.899000      6.154000     -2.396000
S         -23.038000      4.048000     -4.824000
N         -23.781000      4.253000     -3.407000
C         -25.200000      5.470000     -1.118000
S         -24.767000      3.824000     -0.546000
C         -25.880000      6.103000     -0.102000
C         -25.583000      4.027000      0.926000
S         -26.630000      7.671000     -0.004000
C         -26.090000      5.316000      0.992000
C         -25.709000      2.908000      1.960000
C         -27.077000      7.342000      1.645000
C         -26.847000      5.971000      2.020000
N         -25.281000      1.715000      1.680000
S         -26.554000      2.998000      3.486000
C         -25.477000      0.778000      2.734000
C         -26.052000      1.395000      3.773000
C         -23.662000     10.737000     -9.508000
H         -23.979000      8.125000     -9.507000
H         -24.583000      6.548000     -7.469000
H         -24.161000     10.151000     -5.165000
H         -25.381000      9.052000     -3.698000
H         -27.540000      8.054000      2.315000
H         -27.266000      5.515000      2.910000
H         -25.086000     -0.228000      2.662000
H         -26.104000      1.024000      4.787000
H         -22.949000     11.501000     -9.174000
C         -25.010000     11.181000    -10.160000
H         -23.149000     10.149000    -10.280000
H         -25.521000     11.787000     -9.403000
H         -25.606000     10.286000    -10.376000
C         -24.916000     11.963000    -11.444000
H         -24.257000     11.390000    -12.109000
C         -24.390000     13.332000    -11.291000
H         -25.871000     11.860000    -11.975000
H         -23.354000     13.090000    -11.024000
H         -24.795000     13.892000    -10.440000
C         -24.473000     14.143000    -12.553000
H         -24.297000     13.509000    -13.431000
C         -23.584000     15.318000    -12.506000
H         -25.516000     14.478000    -12.622000
H         -24.063000     16.243000    -12.161000
H         -23.246000     15.659000    -13.492000
H         -22.730000     15.213000    -11.826000
C         -31.123000     -4.454000      0.332000
C         -30.373000     -5.422000     -0.299000
N         -30.662000     -3.212000      0.596000
C         -29.005000     -5.179000     -0.591000
C         -29.394000     -2.939000      0.211000
C         -28.495000     -3.898000     -0.259000
C         -27.088000     -3.529000     -0.598000
C         -26.137000     -4.626000     -0.602000
C         -26.515000     -2.252000     -1.038000
N         -24.902000     -4.555000     -1.016000
N         -27.179000     -1.044000     -1.018000
C         -25.204000     -2.177000     -1.355000
C         -24.392000     -3.364000     -1.431000
S         -26.004000     -0.007000     -1.484000
N         -24.720000     -0.964000     -1.769000
C         -22.908000     -3.383000     -1.828000
S         -21.979000     -2.019000     -2.344000
C         -22.024000     -4.451000     -1.665000
C         -20.429000     -2.929000     -2.342000
S         -22.345000     -6.078000     -1.348000
C         -20.692000     -4.197000     -1.952000
C         -19.196000     -2.276000     -2.553000
C         -20.629000     -6.395000     -1.203000
C         -19.859000     -5.352000     -1.647000
N         -19.198000     -0.916000     -2.488000
S         -17.719000     -3.113000     -2.842000
C         -17.859000     -0.559000     -2.651000
C         -16.967000     -1.603000     -2.768000
C         -32.482000     -4.687000      1.023000
H         -30.783000     -6.418000     -0.441000
H         -28.452000     -5.961000     -1.104000
H         -29.052000     -1.969000      0.568000
H         -26.426000     -5.653000     -0.383000
H         -20.299000     -7.415000     -1.059000
H         -18.785000     -5.426000     -1.773000
H         -17.527000      0.467000     -2.570000
H         -15.909000     -1.545000     -2.987000
H         -32.578000     -4.205000      2.003000
C         -32.882000     -6.166000      1.075000
H         -33.175000     -4.148000      0.366000
H         -32.087000     -6.779000      1.516000
H         -33.020000     -6.552000      0.058000
C         -34.105000     -6.340000      1.992000
H         -33.881000     -6.064000      3.030000
C         -34.636000     -7.769000      1.871000
H         -34.913000     -5.667000      1.679000
H         -33.782000     -8.439000      1.712000
H         -35.228000     -7.814000      0.947000
C         -35.401000     -8.320000      3.145000
H         -36.001000     -7.454000      3.450000
C         -34.506000     -8.923000      4.257000
H         -36.069000     -9.054000      2.679000
H         -35.069000     -9.315000      5.114000
H         -33.787000     -8.180000      4.623000
H         -33.995000     -9.820000      3.885000
$end

--------------------------------------------------------------

             Standard Nuclear Orientation (Angstroms)
    I     Atom           X                Y                Z
 ----------------------------------------------------------------
    1      C     -10.2478715704    -0.5719759441    -1.7191981976
    2      C      -9.1549564216    -0.1744455795    -2.3750206482
    3      N     -10.1313396731    -1.1343271602    -0.4922917518
    4      C      -7.8289152200    -0.2284835952    -1.8536756335
    5      C      -8.9229632961    -1.2677297732     0.0137480433
    6      C      -7.7388880574    -0.7864273666    -0.5806489810
    7      C      -6.4077446236    -1.0422860432     0.1340981744
    8      C      -6.2251250853    -1.9707744896     1.1944694817
    9      C      -5.3416128839    -0.1331505917     0.0348266056
   10      N      -5.1092349732    -2.2173247329     1.8299616022
   11      N      -5.3446098594     0.9424874283    -0.7543773401
   12      C      -4.1989612254    -0.2947852223     0.7417201151
   13      C      -4.1069100275    -1.3768648665     1.6662822928
   14      S      -3.9026053466     1.6205027924    -0.5172441474
   15      N      -3.2334258423     0.5635484749     0.5010924187
   16      C      -2.8530371363    -1.6724257776     2.3957941299
   17      S      -1.2886446362    -0.7918207603     2.4304338340
   18      C      -2.7511116025    -2.7448174991     3.2530759863
   19      C      -0.5745004212    -1.9258656575     3.4686001074
   20      S      -3.8586287966    -4.0288096755     3.6474080234
   21      C      -1.5179211475    -2.8794887694     3.8200062737
   22      C       0.8925718785    -1.8474626921     3.8913823710
   23      C      -2.6971789353    -4.6701225431     4.7730203125
   24      C      -1.4106882861    -4.0321250728     4.6678203249
   25      N       1.6726382856    -0.9540106146     3.3640562995
   26      S       1.7350426204    -2.9771988431     4.9232448997
   27      C       3.0111483006    -1.0111679023     3.8461610436
   28      C       3.1124471282    -1.9880066638     4.7552042668
   29      C     -11.6400995440    -0.4173668665    -2.2637331393
   30      H      -9.3444665765     0.2741343251    -3.3476747339
   31      H      -6.9021868058    -0.1269819820    -2.4098238770
   32      H      -8.9812504036    -1.6002009816     1.0507005537
   33      H      -7.0667367461    -2.6099937046     1.4547378190
   34      H      -2.8768022101    -5.5006639041     5.4424600236
   35      H      -0.5048467686    -4.4342289812     5.1075481862
   36      H       3.7389250993    -0.2666432257     3.5526905390
   37      H       3.9168500381    -2.1184250043     5.4654633850
   38      H     -12.3022938107    -0.1340406237    -1.4361789154
   39      C     -12.0025160957    -1.6551259029    -3.1446138411
   40      H     -11.6257251730     0.4341988965    -2.9562113908
   41      H     -12.0397154582    -2.5083350712    -2.4575502905
   42      H     -11.2014221019    -1.8098908578    -3.8775485052
   43      C     -13.2931287352    -1.5814360612    -3.9178568961
   44      H     -13.2760063941    -0.6273961168    -4.4603968577
   45      C     -14.5099385763    -1.6532883891    -3.0881237742
   46      H     -13.2275448388    -2.2869436260    -4.7560411411
   47      H     -14.4257910837    -0.6878054806    -2.5744011322
   48      H     -14.4891288783    -2.4143894542    -2.2993791228
   49      C     -15.7726462622    -1.7547605757    -3.8959150191
   50      H     -15.6886643916    -1.1663894548    -4.8181852992
   51      C     -16.9609944138    -1.4036937172    -3.0973314409
   52      H     -15.8410607196    -2.8047734770    -4.2083688063
   53      H     -17.4706037908    -2.2570749835    -2.6324339284
   54      H     -17.7949348496    -1.0104903226    -3.6911794348
   55      H     -16.7556913178    -0.7440408970    -2.2455980345
   56      C       7.6740261234    -3.6140083868    -2.1956545628
   57      C       8.0210912184    -2.4376290870    -2.8228407894
   58      N       6.6328225643    -3.7212521625    -1.3417371657
   59      C       7.3511217333    -1.2318775951    -2.4866247442
   60      C       5.9174796968    -2.5964349315    -1.1101151050
   61      C       6.2970646494    -1.3244761550    -1.5423397393
   62      C       5.4886284282    -0.1204224142    -1.1853853084
   63      C       6.1921760164     1.1478275271    -1.2516339117
   64      C       4.0599847690     0.0145519090    -0.8797429896
   65      N       5.6427188983     2.3248541809    -1.1317709416
   66      N       3.2012029620    -1.0401392977    -0.6546202090
   67      C       3.5346124384     1.2372882945    -0.6479356429
   68      C       4.3139306478     2.4297588061    -0.8595159048
   69      S       1.8207348214    -0.2672275615    -0.2422306350
   70      N       2.1937991337     1.3103143683    -0.3760756156
   71      C       3.7895723228     3.8610947825    -0.6683309955
   72      S       2.1663813713     4.3009574493    -0.2663795439
   73      C       4.5629693068     5.0214978166    -0.6053158897
   74      C       2.5710169100     6.0376495138    -0.0410470025
   75      S       6.1711119076     5.2715261922    -1.0547846729
   76      C       3.8945872166     6.1895989575    -0.2737829259
   77      C       1.6229181917     6.9505817022     0.4677581074
   78      C       6.0994903491     6.9045431452    -0.4268547536
   79      C       4.8208367922     7.3054594064    -0.1401558995
   80      N       0.4982802827     6.4256418229     1.0276301434
   81      S       1.8461109215     8.6580022710     0.4449763875
   82      C      -0.2009964487     7.5343150925     1.5059549642
   83      C       0.4184538614     8.7543540187     1.3414091288
   84      C       8.5209459267    -4.9028982698    -2.1837921789
   85      H       8.8984524518    -2.4032358155    -3.4626332315
   86      H       7.6425835261    -0.3284814106    -3.0152336328
   87      H       5.1795108577    -2.7295234032    -0.3208100618
   88      H       7.2367560144     1.2236752979    -1.5504829431
   89      H       6.9552634635     7.5519705239    -0.5629656131
   90      H       4.5683905917     8.3285104792     0.1137445106
   91      H      -1.1139316954     7.4317926440     2.0764804963
   92      H       0.0139293820     9.7339929042     1.5590248440
   93      H       8.5950086151    -5.3846802186    -1.2017835883
   94      C       9.8975684562    -4.7213132112    -2.8334707746
   95      H       7.9192707548    -5.5849195014    -2.7963711756
   96      H      10.4362501122    -3.8723239204    -2.3960759214
   97      H       9.7803285507    -4.4781836260    -3.8962368868
   98      C      10.7681802370    -5.9593015617    -2.5572209398
   99      H      10.9682610942    -6.0883867679    -1.4861930876
  100      C      12.0522130933    -5.8765218230    -3.3836894141
  101      H      10.2417931820    -6.8705273261    -2.8676179027
  102      H      12.3431668460    -4.8214543176    -3.4590251484
  103      H      11.7971828821    -6.1904601587    -4.4048002370
  104      C      13.3018249004    -6.6390586838    -2.7763099054
  105      H      12.8523966911    -7.5706180239    -2.4113544553
  106      C      14.1236420898    -5.8508654329    -1.7253361157
  107      H      13.8657352260    -6.8641136200    -3.6892674183
  108      H      14.9939194719    -6.3994306973    -1.3422233009
  109      H      13.4929072734    -5.5612931736    -0.8760496517
  110      H      14.5891336355    -4.9732060737    -2.1913250320
 ----------------------------------------------------------------

   10   -5663.5020047434      3.31E-06 Convergence criterion met
 Total energy in the final basis set = -5663.5020047434

                    Orbital Energies (a.u.)
 --------------------------------------------------------------

 Alpha MOs
 -- Occupied --
-88.985 -88.983 -88.930 -88.926 -88.925 -88.913 -88.912 -88.902
-14.387 -14.383 -14.383 -14.376 -14.347 -14.345 -14.344 -14.343
-14.324 -14.322 -10.275 -10.264 -10.263 -10.259 -10.256 -10.250
-10.245 -10.244 -10.243 -10.238 -10.238 -10.235 -10.233 -10.232
-10.230 -10.228 -10.227 -10.226 -10.226 -10.224 -10.223 -10.222
-10.221 -10.220 -10.220 -10.219 -10.219 -10.216 -10.216 -10.215
-10.214 -10.210 -10.205 -10.205 -10.204 -10.203 -10.198 -10.191
-10.184 -10.183 -10.182 -10.181 -10.179 -10.179 -10.177 -10.175
-10.171 -10.169 -10.168 -10.165  -8.041  -8.039  -7.992  -7.989
 -7.984  -7.972  -7.972  -7.964  -6.007  -6.003  -6.001  -5.999
 -5.998  -5.997  -5.956  -5.953  -5.953  -5.949  -5.949  -5.948
 -5.945  -5.945  -5.941  -5.936  -5.936  -5.932  -5.932  -5.929
 -5.928  -5.928  -5.924  -5.920  -1.057  -1.036  -0.975  -0.970
 -0.963  -0.955  -0.944  -0.934  -0.920  -0.915  -0.914  -0.900
 -0.846  -0.845  -0.833  -0.825  -0.819  -0.819  -0.810  -0.807
 -0.806  -0.805  -0.796  -0.794  -0.791  -0.781  -0.768  -0.761
 -0.755  -0.745  -0.743  -0.738  -0.729  -0.722  -0.711  -0.707
 -0.694  -0.688  -0.675  -0.670  -0.657  -0.651  -0.649  -0.641
 -0.635  -0.631  -0.629  -0.620  -0.610  -0.607  -0.598  -0.596
 -0.594  -0.592  -0.587  -0.583  -0.582  -0.578  -0.567  -0.567
 -0.547  -0.545  -0.542  -0.535  -0.525  -0.524  -0.520  -0.513
 -0.507  -0.503  -0.500  -0.494  -0.489  -0.482  -0.477  -0.475
 -0.473  -0.470  -0.468  -0.462  -0.460  -0.457  -0.452  -0.448
 -0.447  -0.444  -0.439  -0.437  -0.434  -0.434  -0.432  -0.430
 -0.427  -0.427  -0.424  -0.421  -0.419  -0.415  -0.413  -0.412
 -0.411  -0.409  -0.407  -0.405  -0.404  -0.401  -0.399  -0.395
 -0.394  -0.393  -0.391  -0.391  -0.388  -0.387  -0.383  -0.382
 -0.380  -0.377  -0.372  -0.372  -0.365  -0.365  -0.359  -0.358
 -0.355  -0.352  -0.351  -0.349  -0.349  -0.347  -0.343  -0.343
 -0.340  -0.335  -0.335  -0.333  -0.329  -0.325  -0.319  -0.319
 -0.318  -0.316  -0.315  -0.311  -0.304  -0.301  -0.300  -0.299
 -0.298  -0.293  -0.292  -0.291  -0.288  -0.283  -0.282  -0.275
 -0.272  -0.271  -0.268  -0.268  -0.256  -0.250  -0.249  -0.248
 -0.245  -0.240  -0.230  -0.229  -0.194  -0.188

          Ground-State Mulliken Net Atomic Charges

     Atom                 Charge (a.u.)
  ----------------------------------------
      1 C                     0.275785
      2 C                    -0.129603
      3 N                    -0.481324
      4 C                    -0.051077
      5 C                     0.065527
      6 C                     0.050727
      7 C                     0.014024
      8 C                     0.055971
      9 C                     0.226892
     10 N                    -0.522222
     11 N                    -0.548286
     12 C                     0.227628
     13 C                     0.317129
     14 S                     0.597501
     15 N                    -0.560187
     16 C                    -0.248782
     17 S                     0.362448
     18 C                    -0.106500
     19 C                    -0.234817
     20 S                     0.308592
     21 C                     0.151015
     22 C                     0.092961
     23 C                    -0.314986
     24 C                    -0.104247
     25 N                    -0.448213
     26 S                     0.274013
     27 C                     0.117656
     28 C                    -0.308373
     29 C                    -0.221780
     30 H                     0.078134
     31 H                     0.118417
     32 H                     0.098623
     33 H                     0.103997
     34 H                     0.128772
     35 H                     0.114761
     36 H                     0.128660
     37 H                     0.136347
     38 H                     0.119432
     39 C                    -0.177982
     40 H                     0.091651
     41 H                     0.109307
     42 H                     0.089817
     43 C                    -0.183474
     44 H                     0.085549
     45 C                    -0.160510
     46 H                     0.083960
     47 H                     0.094746
     48 H                     0.094514
     49 C                    -0.167320
     50 H                     0.092958
     51 C                    -0.325421
     52 H                     0.098235
     53 H                     0.101078
     54 H                     0.097394
     55 H                     0.103689
     56 C                     0.254951
     57 C                    -0.118511
     58 N                    -0.480501
     59 C                    -0.082304
     60 C                     0.069772
     61 C                     0.034930
     62 C                     0.011099
     63 C                     0.057749
     64 C                     0.228606
     65 N                    -0.504172
     66 N                    -0.538238
     67 C                     0.174320
     68 C                     0.283244
     69 S                     0.644788
     70 N                    -0.529087
     71 C                    -0.223427
     72 S                     0.356207
     73 C                    -0.119764
     74 C                    -0.271172
     75 S                     0.280427
     76 C                     0.160782
     77 C                     0.055144
     78 C                    -0.307569
     79 C                    -0.072834
     80 N                    -0.432333
     81 S                     0.296148
     82 C                     0.114630
     83 C                    -0.301434
     84 C                    -0.211971
     85 H                     0.090597
     86 H                     0.109859
     87 H                     0.119108
     88 H                     0.104593
     89 H                     0.124950
     90 H                     0.112382
     91 H                     0.112546
     92 H                     0.128931
     93 H                     0.122590
     94 C                    -0.191601
     95 H                     0.120686
     96 H                     0.100261
     97 H                     0.096786
     98 C                    -0.179063
     99 H                     0.095065
    100 C                    -0.186458
    101 H                     0.093081
    102 H                     0.085781
    103 H                     0.091091
    104 C                    -0.181473
    105 H                     0.094013
    106 C                    -0.317282
    107 H                     0.092964
    108 H                     0.105633
    109 H                     0.107105
    110 H                     0.105569
  ----------------------------------------
  Sum of atomic charges =     0.000000

                    Cartesian Multipole Moments
 -----------------------------------------------------------------
    Charge (ESU x 10^10)
                 0.0000
    Dipole Moment (Debye)
         X       2.8161      Y       2.1876      Z      -0.3610
       Tot       3.5842
    Quadrupole Moments (Debye-Ang)
        XX    -418.7933     XY      -2.9843     YY    -406.8208
        XZ      10.2415     YZ      -4.3849     ZZ    -424.8819

 Total job time:  86.53s(wall), 999.48s(cpu)
        *  Thank you very much for using Q-Chem.  Have a nice day.  *
