 Q-Chem 4.4, Q-Chem, Inc., Pleasanton, CA (2016)
 Q-Chem 4.4.2 for Intel X86 Linux

User input:
--------------------------------------------------------------
$comment
SP
$end

$rem
MEM_STATIC 5000
MEM_TOTAL 20000
JOBTYPE SP
EXCHANGE B3LYP
BASIS 6-31g(d,p)
$end

$molecule
0 1
C         -21.758000     -3.179000      2.082000
C         -22.947000     -3.642000      1.610000
N         -21.051000     -3.801000      3.033000
C         -23.706000     -4.658000      2.210000
C         -21.677000     -4.803000      3.628000
C         -23.005000     -5.277000      3.261000
C         -23.697000     -6.424000      3.951000
C         -25.160000     -6.427000      4.154000
C         -23.135000     -7.640000      4.301000
N         -25.898000     -7.468000      4.450000
N         -21.826000     -7.873000      4.269000
C         -23.924000     -8.758000      4.641000
C         -25.302000     -8.701000      4.542000
S         -21.625000     -9.356000      4.847000
N         -23.167000     -9.800000      5.021000
C         -26.231000     -9.794000      4.769000
S         -27.864000     -9.698000      5.567000
C         -26.058000    -11.099000      4.271000
C         -28.247000    -11.359000      5.185000
S         -24.868000    -11.714000      3.158000
C         -27.133000    -11.912000      4.528000
C         -29.436000    -12.127000      5.495000
C         -25.773000    -13.268000      3.095000
C         -26.979000    -13.192000      3.836000
N         -29.234000    -13.327000      5.943000
S         -30.936000    -11.306000      5.899000
C         -30.384000    -13.772000      6.547000
C         -31.430000    -12.834000      6.580000
C         -20.963000     -2.099000      1.365000
H         -23.384000     -3.194000      0.724000
H         -24.706000     -4.930000      1.885000
H         -21.121000     -5.423000      4.330000
H         -25.698000     -5.488000      4.030000
H         -25.331000    -14.040000      2.480000
H         -27.666000    -14.031000      3.853000
H         -30.405000    -14.814000      6.837000
H         -32.459000    -12.957000      6.887000
H         -19.878000     -2.215000      1.485000
C         -21.512000     -0.659000      1.628000
H         -21.088000     -2.275000      0.290000
H         -21.319000     -0.381000      2.671000
H         -22.576000     -0.752000      1.377000
C         -20.866000      0.362000      0.711000
H         -19.853000      0.561000      1.082000
C         -21.688000      1.682000      0.600000
H         -20.754000      0.003000     -0.319000
H         -21.607000      2.313000      1.492000
H         -22.736000      1.461000      0.363000
C         -21.101000      2.691000     -0.493000
H         -21.714000      3.596000     -0.580000
C         -20.956000      2.039000     -1.913000
H         -20.129000      3.010000     -0.094000
H         -19.967000      1.591000     -2.066000
H         -21.226000      2.755000     -2.700000
H         -21.740000      1.297000     -2.109000
C         -31.123000     -4.454000      0.332000
C         -30.373000     -5.422000     -0.299000
N         -30.662000     -3.212000      0.596000
C         -29.005000     -5.179000     -0.591000
C         -29.394000     -2.939000      0.211000
C         -28.495000     -3.898000     -0.259000
C         -27.088000     -3.529000     -0.598000
C         -26.137000     -4.626000     -0.602000
C         -26.515000     -2.252000     -1.038000
N         -24.902000     -4.555000     -1.016000
N         -27.179000     -1.044000     -1.018000
C         -25.204000     -2.177000     -1.355000
C         -24.392000     -3.364000     -1.431000
S         -26.004000     -0.007000     -1.484000
N         -24.720000     -0.964000     -1.769000
C         -22.908000     -3.383000     -1.828000
S         -21.979000     -2.019000     -2.344000
C         -22.024000     -4.451000     -1.665000
C         -20.429000     -2.929000     -2.342000
S         -22.345000     -6.078000     -1.348000
C         -20.692000     -4.197000     -1.952000
C         -19.196000     -2.276000     -2.553000
C         -20.629000     -6.395000     -1.203000
C         -19.859000     -5.352000     -1.647000
N         -19.198000     -0.916000     -2.488000
S         -17.719000     -3.113000     -2.842000
C         -17.859000     -0.559000     -2.651000
C         -16.967000     -1.603000     -2.768000
C         -32.482000     -4.687000      1.023000
H         -30.783000     -6.418000     -0.441000
H         -28.452000     -5.961000     -1.104000
H         -29.052000     -1.969000      0.568000
H         -26.426000     -5.653000     -0.383000
H         -20.299000     -7.415000     -1.059000
H         -18.785000     -5.426000     -1.773000
H         -17.527000      0.467000     -2.570000
H         -15.909000     -1.545000     -2.987000
H         -32.578000     -4.205000      2.003000
C         -32.882000     -6.166000      1.075000
H         -33.175000     -4.148000      0.366000
H         -32.087000     -6.779000      1.516000
H         -33.020000     -6.552000      0.058000
C         -34.105000     -6.340000      1.992000
H         -33.881000     -6.064000      3.030000
C         -34.636000     -7.769000      1.871000
H         -34.913000     -5.667000      1.679000
H         -33.782000     -8.439000      1.712000
H         -35.228000     -7.814000      0.947000
C         -35.401000     -8.320000      3.145000
H         -36.001000     -7.454000      3.450000
C         -34.506000     -8.923000      4.257000
H         -36.069000     -9.054000      2.679000
H         -35.069000     -9.315000      5.114000
H         -33.787000     -8.180000      4.623000
H         -33.995000     -9.820000      3.885000
$end

--------------------------------------------------------------

             Standard Nuclear Orientation (Angstroms)
    I     Atom           X                Y                Z
 ----------------------------------------------------------------
    1      C       3.5555104436    -1.3847490046     1.9634599849
    2      C       2.6813969538    -0.5921228244     1.2863016982
    3      N       3.2277900324    -2.5817540807     2.4643713343
    4      C       1.2927345136    -0.7869546935     1.2416455681
    5      C       1.9368078228    -2.8678173349     2.4264536708
    6      C       0.9216323839    -2.0102563914     1.8289948385
    7      C      -0.5438179463    -2.3592427615     1.7938260579
    8      C      -1.5835954969    -1.3184426244     1.9249165609
    9      C      -1.0948210051    -3.5868120169     1.4675296400
   10      N      -2.8486676992    -1.4444067009     1.6092167439
   11      N      -0.3761522262    -4.7000604118     1.3535682536
   12      C      -2.4602743198    -3.7320051355     1.1473715482
   13      C      -3.2815543994    -2.6234017308     1.0555482291
   14      S      -1.4265091712    -5.8793117328     1.0709189835
   15      N      -2.7859950230    -5.0186688483     0.9433727401
   16      C      -4.6756489662    -2.6116016717     0.6486328849
   17      S      -6.0095511155    -1.5796008618     1.3330219441
   18      C      -5.1859618257    -3.3188201257    -0.4560756032
   19      C      -7.1565654006    -2.1046434286     0.1246252655
   20      S      -4.3403207768    -4.2062228167    -1.6932100666
   21      C      -6.5097571652    -3.0477704337    -0.6942792215
   22      C      -8.5480263723    -1.7390046297    -0.0479714699
   23      C      -5.8916840098    -4.3790096501    -2.5883786706
   24      C      -6.9363046512    -3.6633232048    -1.9513122474
   25      N      -9.3641324012    -2.7166311657    -0.2923590838
   26      S      -9.1715466743    -0.2694735667     0.6861660429
   27      C     -10.6465849999    -2.2935043085    -0.0441253334
   28      C     -10.7462536615    -0.9810759447     0.4484667370
   29      C       5.0567184836    -1.1429215676     1.9432631692
   30      H       3.0477087734     0.2807211535     0.7565583252
   31      H       0.6023829819    -0.0773322024     0.7950364743
   32      H       1.6149317011    -3.8682500039     2.7125834263
   33      H      -1.2864518699    -0.3392857179     2.2984114302
   34      H      -5.8395452925    -4.9504901480    -3.5050381465
   35      H      -7.9243410234    -3.6228823967    -2.3966521942
   36      H     -11.4423247951    -2.9613712131    -0.3458818180
   37      H     -11.6223379936    -0.3708491433     0.6167477339
   38      H       5.6407861757    -2.0697183221     2.0139293355
   39      C       5.5048871383     0.0020342766     2.9088671107
   40      H       5.3081828739    -0.7979568161     0.9333171407
   41      H       5.3758070963    -0.3263461747     3.9470802978
   42      H       4.8559210161     0.8373240571     2.6175254644
   43      C       6.9542116107     0.3884690935     2.6835391148
   44      H       7.5876241123    -0.3872650820     3.1312400103
   45      C       7.3028847143     1.7941048494     3.2606181291
   46      H       7.2253081677     0.4356947932     1.6221243089
   47      H       7.3875443742     1.7994015177     4.3529508107
   48      H       6.5772303582     2.5403114826     2.9143300756
   49      C       8.7789380706     2.2757279370     2.8777282092
   50      H       8.9902698579     3.2804422204     3.2627620835
   51      C       9.0467523369     2.2591173241     1.3315947718
   52      H       9.4502779388     1.5898280364     3.4111980845
   53      H       9.4702402849     1.3060986051     0.9929987307
   54      H       9.6512661348     3.1248022536     1.0314653478
   55      H       8.1452334120     2.4972362508     0.7534952953
   56      C      -2.6365082808     5.5595932781    -0.4503263305
   57      C      -2.5014658610     4.6490710213    -1.4752154781
   58      N      -1.6560353542     5.8269205827     0.4396118429
   59      C      -1.3343146532     3.8449727935    -1.5584086153
   60      C      -0.4965436338     5.1458267808     0.2903865661
   61      C      -0.3252496864     4.0751049344    -0.5888148393
   62      C       0.9668331274     3.3280217921    -0.6446698374
   63      C       0.8915384518     1.9882015507    -1.1987803251
   64      C       2.3338540816     3.7593629472    -0.3318495715
   65      N       1.9131679137     1.2272868270    -1.4797501203
   66      N       2.6601794354     4.9392972148     0.3020485967
   67      C       3.3674426127     2.9115599209    -0.5261683223
   68      C       3.1741267916     1.6495833402    -1.1926014421
   69      S       4.2779738006     4.7871902967     0.4830316823
   70      N       4.6250138768     3.3656763384    -0.2273141857
   71      C       4.2938872894     0.6435540234    -1.4996314751
   72      S       5.9797438654     0.8790871193    -1.1959790984
   73      C       4.1242366660    -0.6834362649    -1.8983349248
   74      C       6.4113302753    -0.8107857869    -1.6303369367
   75      S       2.7500321271    -1.4636797676    -2.4928439338
   76      C       5.2728361154    -1.4556611392    -1.9724770072
   77      C       7.7174494490    -1.3070294906    -1.4328175940
   78      C       3.6074591264    -2.9904334475    -2.4893594370
   79      C       4.9559023489    -2.8394261737    -2.2975713275
   80      N       8.5533573965    -0.5573731587    -0.6626862497
   81      S       8.2682255571    -2.8056042841    -2.0782153525
   82      C       9.7206581750    -1.3169891034    -0.5770620178
   83      C       9.6873248087    -2.5453536147    -1.2009999266
   84      C      -3.9565272922     6.2326941476    -0.0223823750
   85      H      -3.3428636371     4.4425522744    -2.1307151269
   86      H      -1.2583608092     3.1505374035    -2.3905699595
   87      H       0.1950403241     5.3192029659     1.1131655933
   88      H      -0.0400303839     1.5549934219    -1.5603342235
   89      H       3.1149588267    -3.8643094444    -2.8941065147
   90      H       5.6612681851    -3.6540821340    -2.4142876645
   91      H      10.5555002375    -1.0145486859     0.0402138723
   92      H      10.5046072694    -3.2429572480    -1.3278366334
   93      H      -4.1183531246     6.2591904634     1.0616150167
   94      C      -5.1785589401     5.6822589105    -0.7665629320
   95      H      -3.7940596775     7.2764741912    -0.3165702311
   96      H      -5.2321681433     4.5896185661    -0.6921443123
   97      H      -5.0929967195     5.8994132211    -1.8379415354
   98      C      -6.4659281208     6.2121424528    -0.1117362188
   99      H      -6.5739980628     5.8607681801     0.9220205263
  100      C      -7.6700232046     5.8455462205    -0.9803012604
  101      H      -6.4356336618     7.3069214518    -0.0461375223
  102      H      -7.4731255745     4.8711973328    -1.4443837620
  103      H      -7.7022873484     6.5693346199    -1.8057431893
  104      C      -9.0460226266     5.6989714082    -0.2076154153
  105      H      -9.0131875677     6.5442180927     0.4905685873
  106      C      -9.3057097210     4.3178719847     0.4453049439
  107      H      -9.7551116474     5.9415772130    -1.0079098511
  108      H     -10.2764434215     4.2438673518     0.9525340804
  109      H      -8.5162744377     4.0742529992     1.1666978488
  110      H      -9.3885476690     3.5443293522    -0.3285708020
 ----------------------------------------------------------------

   10   -5663.4901252881      3.75E-06 Convergence criterion met
 Total energy in the final basis set = -5663.4901252881

                    Orbital Energies (a.u.)
 --------------------------------------------------------------

 Alpha MOs
 -- Occupied --
-88.995 -88.985 -88.936 -88.931 -88.927 -88.921 -88.907 -88.905
-14.399 -14.395 -14.375 -14.369 -14.353 -14.352 -14.347 -14.343
-14.328 -14.320 -10.273 -10.270 -10.269 -10.267 -10.261 -10.251
-10.246 -10.246 -10.243 -10.241 -10.240 -10.238 -10.238 -10.238
-10.237 -10.237 -10.233 -10.233 -10.229 -10.228 -10.227 -10.227
-10.225 -10.225 -10.223 -10.221 -10.220 -10.219 -10.217 -10.212
-10.211 -10.210 -10.207 -10.207 -10.204 -10.204 -10.201 -10.185
-10.184 -10.183 -10.182 -10.180 -10.178 -10.177 -10.171 -10.170
-10.169 -10.167 -10.162 -10.157  -8.051  -8.041  -7.998  -7.992
 -7.985  -7.979  -7.968  -7.965  -6.015  -6.010  -6.009  -6.006
 -6.000  -5.999  -5.962  -5.958  -5.956  -5.955  -5.953  -5.949
 -5.949  -5.946  -5.944  -5.942  -5.940  -5.936  -5.933  -5.930
 -5.929  -5.926  -5.925  -5.921  -1.048  -1.043  -0.981  -0.969
 -0.966  -0.955  -0.939  -0.938  -0.922  -0.911  -0.907  -0.901
 -0.852  -0.835  -0.833  -0.825  -0.825  -0.815  -0.813  -0.809
 -0.807  -0.800  -0.793  -0.790  -0.784  -0.770  -0.766  -0.757
 -0.750  -0.743  -0.739  -0.729  -0.728  -0.722  -0.712  -0.699
 -0.694  -0.679  -0.678  -0.670  -0.656  -0.648  -0.645  -0.639
 -0.638  -0.630  -0.628  -0.621  -0.616  -0.605  -0.602  -0.598
 -0.597  -0.588  -0.586  -0.581  -0.576  -0.570  -0.569  -0.551
 -0.549  -0.548  -0.544  -0.538  -0.531  -0.520  -0.520  -0.512
 -0.508  -0.504  -0.502  -0.497  -0.483  -0.481  -0.479  -0.475
 -0.473  -0.468  -0.468  -0.463  -0.459  -0.455  -0.453  -0.449
 -0.443  -0.441  -0.440  -0.436  -0.436  -0.434  -0.433  -0.432
 -0.428  -0.427  -0.422  -0.421  -0.416  -0.414  -0.413  -0.412
 -0.409  -0.408  -0.403  -0.401  -0.400  -0.397  -0.395  -0.394
 -0.392  -0.391  -0.388  -0.387  -0.387  -0.385  -0.384  -0.382
 -0.378  -0.375  -0.371  -0.369  -0.363  -0.360  -0.356  -0.355
 -0.353  -0.350  -0.349  -0.349  -0.346  -0.343  -0.340  -0.339
 -0.337  -0.334  -0.333  -0.328  -0.324  -0.323  -0.320  -0.319
 -0.317  -0.312  -0.309  -0.307  -0.307  -0.302  -0.299  -0.297
 -0.297  -0.295  -0.294  -0.293  -0.289  -0.288  -0.284  -0.281
 -0.277  -0.274  -0.272  -0.257  -0.253  -0.250  -0.248  -0.248
 -0.246  -0.242  -0.235  -0.224  -0.195  -0.188

          Ground-State Mulliken Net Atomic Charges

     Atom                 Charge (a.u.)
  ----------------------------------------
      1 C                     0.267500
      2 C                    -0.099031
      3 N                    -0.468233
      4 C                    -0.047709
      5 C                     0.089402
      6 C                     0.006083
      7 C                     0.004918
      8 C                     0.054845
      9 C                     0.224414
     10 N                    -0.488610
     11 N                    -0.546433
     12 C                     0.232781
     13 C                     0.237315
     14 S                     0.606318
     15 N                    -0.545313
     16 C                    -0.224444
     17 S                     0.320234
     18 C                    -0.101629
     19 C                    -0.205574
     20 S                     0.248659
     21 C                     0.139397
     22 C                     0.034341
     23 C                    -0.303901
     24 C                    -0.063305
     25 N                    -0.389672
     26 S                     0.275284
     27 C                     0.113824
     28 C                    -0.312433
     29 C                    -0.242542
     30 H                     0.072657
     31 H                     0.109105
     32 H                     0.115129
     33 H                     0.105649
     34 H                     0.133729
     35 H                     0.114962
     36 H                     0.117458
     37 H                     0.138732
     38 H                     0.108284
     39 C                    -0.167853
     40 H                     0.111098
     41 H                     0.102297
     42 H                     0.086877
     43 C                    -0.186975
     44 H                     0.083839
     45 C                    -0.180277
     46 H                     0.133373
     47 H                     0.085589
     48 H                     0.083795
     49 C                    -0.185978
     50 H                     0.085698
     51 C                    -0.328594
     52 H                     0.088730
     53 H                     0.119694
     54 H                     0.085259
     55 H                     0.115331
     56 C                     0.256663
     57 C                    -0.117261
     58 N                    -0.478697
     59 C                    -0.080593
     60 C                     0.070384
     61 C                     0.034585
     62 C                     0.017821
     63 C                     0.043288
     64 C                     0.225655
     65 N                    -0.483272
     66 N                    -0.529955
     67 C                     0.194148
     68 C                     0.243994
     69 S                     0.623695
     70 N                    -0.529562
     71 C                    -0.226426
     72 S                     0.353689
     73 C                    -0.112230
     74 C                    -0.280347
     75 S                     0.289095
     76 C                     0.165787
     77 C                     0.065492
     78 C                    -0.300933
     79 C                    -0.069735
     80 N                    -0.440032
     81 S                     0.306141
     82 C                     0.117258
     83 C                    -0.301335
     84 C                    -0.212284
     85 H                     0.094107
     86 H                     0.111627
     87 H                     0.118998
     88 H                     0.113238
     89 H                     0.128663
     90 H                     0.115144
     91 H                     0.116087
     92 H                     0.132792
     93 H                     0.125041
     94 C                    -0.193096
     95 H                     0.120997
     96 H                     0.103634
     97 H                     0.096487
     98 C                    -0.179726
     99 H                     0.096426
    100 C                    -0.186592
    101 H                     0.093031
    102 H                     0.087075
    103 H                     0.091011
    104 C                    -0.181564
    105 H                     0.094546
    106 C                    -0.319972
    107 H                     0.092767
    108 H                     0.102688
    109 H                     0.109544
    110 H                     0.107918
  ----------------------------------------
  Sum of atomic charges =     0.000000

                    Cartesian Multipole Moments
 -----------------------------------------------------------------
    Charge (ESU x 10^10)
                 0.0000
    Dipole Moment (Debye)
         X      -1.4173      Y      -0.8807      Z      -4.0311
       Tot       4.3628
    Quadrupole Moments (Debye-Ang)
        XX    -379.9003     XY     -25.0936     YY    -440.5347
        XZ      -0.4538     YZ      11.0694     ZZ    -445.9384

 Total job time:  99.80s(wall), 1216.48s(cpu)
        *  Thank you very much for using Q-Chem.  Have a nice day.  *
