 Q-Chem 4.4, Q-Chem, Inc., Pleasanton, CA (2016)
 Q-Chem 4.4.2 for Intel X86 Linux

User input:
--------------------------------------------------------------
$comment
SP
$end

$rem
MEM_STATIC 5000
MEM_TOTAL 20000
JOBTYPE SP
EXCHANGE B3LYP
BASIS 6-31g(d,p)
$end

$molecule
0 1
C         -28.022000     -0.605000     -4.779000
C         -27.259000     -1.720000     -4.487000
N         -27.420000      0.479000     -5.192000
C         -25.875000     -1.812000     -4.879000
C         -26.063000      0.507000     -5.335000
C         -25.185000     -0.638000     -5.254000
C         -23.693000     -0.634000     -5.445000
C         -22.980000      0.552000     -5.063000
C         -22.833000     -1.770000     -5.778000
N         -21.647000      0.817000     -5.251000
N         -23.230000     -3.014000     -6.054000
C         -21.462000     -1.591000     -5.727000
C         -20.910000     -0.216000     -5.647000
S         -21.952000     -3.890000     -6.313000
N         -20.812000     -2.692000     -6.067000
C         -19.448000      0.068000     -5.712000
S         -18.233000     -1.247000     -5.842000
C         -18.911000      1.340000     -5.788000
C         -16.962000     -0.027000     -5.845000
S         -19.649000      2.940000     -5.789000
C         -17.512000      1.303000     -5.785000
C         -15.563000     -0.296000     -6.005000
C         -18.011000      3.516000     -6.033000
C         -16.963000      2.593000     -5.966000
N         -14.656000      0.648000     -6.038000
S         -15.022000     -1.963000     -5.974000
C         -13.407000      0.085000     -6.247000
C         -13.417000     -1.284000     -6.209000
C         -29.527000     -0.598000     -4.762000
H         -27.788000     -2.604000     -4.143000
H         -25.351000     -2.746000     -4.700000
H         -25.558000      1.426000     -5.630000
H         -23.501000      1.471000     -4.800000
H         -17.835000      4.584000     -6.059000
H         -15.922000      2.797000     -6.189000
H         -12.563000      0.752000     -6.365000
H         -12.546000     -1.910000     -6.351000
H         -29.951000      0.414000     -4.762000
C         -30.063000     -0.970000     -3.372000
H         -29.972000     -1.253000     -5.522000
H         -29.708000     -0.310000     -2.571000
H         -29.686000     -1.936000     -3.016000
C         -31.648000     -1.058000     -3.345000
H         -32.024000     -0.071000     -3.046000
C         -32.337000     -1.997000     -2.307000
H         -31.998000     -1.443000     -4.310000
H         -33.242000     -1.557000     -1.872000
H         -31.675000     -2.235000     -1.466000
C         -32.875000     -3.331000     -3.009000
H         -33.376000     -3.923000     -2.234000
C         -31.774000     -4.173000     -3.803000
H         -33.614000     -3.076000     -3.779000
H         -31.307000     -3.679000     -4.664000
H         -32.095000     -5.144000     -4.199000
H         -30.917000     -4.357000     -3.143000
C         -31.123000     -4.454000      0.332000
C         -30.373000     -5.422000     -0.299000
N         -30.662000     -3.212000      0.596000
C         -29.005000     -5.179000     -0.591000
C         -29.394000     -2.939000      0.211000
C         -28.495000     -3.898000     -0.259000
C         -27.088000     -3.529000     -0.598000
C         -26.137000     -4.626000     -0.602000
C         -26.515000     -2.252000     -1.038000
N         -24.902000     -4.555000     -1.016000
N         -27.179000     -1.044000     -1.018000
C         -25.204000     -2.177000     -1.355000
C         -24.392000     -3.364000     -1.431000
S         -26.004000     -0.007000     -1.484000
N         -24.720000     -0.964000     -1.769000
C         -22.908000     -3.383000     -1.828000
S         -21.979000     -2.019000     -2.344000
C         -22.024000     -4.451000     -1.665000
C         -20.429000     -2.929000     -2.342000
S         -22.345000     -6.078000     -1.348000
C         -20.692000     -4.197000     -1.952000
C         -19.196000     -2.276000     -2.553000
C         -20.629000     -6.395000     -1.203000
C         -19.859000     -5.352000     -1.647000
N         -19.198000     -0.916000     -2.488000
S         -17.719000     -3.113000     -2.842000
C         -17.859000     -0.559000     -2.651000
C         -16.967000     -1.603000     -2.768000
C         -32.482000     -4.687000      1.023000
H         -30.783000     -6.418000     -0.441000
H         -28.452000     -5.961000     -1.104000
H         -29.052000     -1.969000      0.568000
H         -26.426000     -5.653000     -0.383000
H         -20.299000     -7.415000     -1.059000
H         -18.785000     -5.426000     -1.773000
H         -17.527000      0.467000     -2.570000
H         -15.909000     -1.545000     -2.987000
H         -32.578000     -4.205000      2.003000
C         -32.882000     -6.166000      1.075000
H         -33.175000     -4.148000      0.366000
H         -32.087000     -6.779000      1.516000
H         -33.020000     -6.552000      0.058000
C         -34.105000     -6.340000      1.992000
H         -33.881000     -6.064000      3.030000
C         -34.636000     -7.769000      1.871000
H         -34.913000     -5.667000      1.679000
H         -33.782000     -8.439000      1.712000
H         -35.228000     -7.814000      0.947000
C         -35.401000     -8.320000      3.145000
H         -36.001000     -7.454000      3.450000
C         -34.506000     -8.923000      4.257000
H         -36.069000     -9.054000      2.679000
H         -35.069000     -9.315000      5.114000
H         -33.787000     -8.180000      4.623000
H         -33.995000     -9.820000      3.885000
$end

--------------------------------------------------------------

             Standard Nuclear Orientation (Angstroms)
    I     Atom           X                Y                Z
 ----------------------------------------------------------------
    1      C       2.6560305588     3.8742411086     0.7896283917
    2      C       2.3699083316     2.5707036333     1.1496035600
    3      N       1.6785936467     4.6475531445     0.3963923584
    4      C       1.0157336091     2.1264887902     1.3651679216
    5      C       0.3987810751     4.1761745054     0.3457567975
    6      C      -0.0531109447     2.9109069596     0.8780740337
    7      C      -1.4641489919     2.3899769137     0.8652476337
    8      C      -2.3051570759     2.7838075084    -0.2295088987
    9      C      -2.0400121358     1.3522339386     1.7210841585
   10      N      -3.6431689886     2.5230759243    -0.3850761273
   11      N      -1.4330164048     0.7285630282     2.7329694179
   12      C      -3.3092484011     0.8881355014     1.4245458925
   13      C      -4.1571967227     1.6462136779     0.4716397470
   14      S      -2.4326446627    -0.3269767468     3.3282173742
   15      N      -3.7075172274    -0.0322028661     2.2874828725
   16      C      -5.5758949699     1.2825365925     0.1935044181
   17      S      -6.3555629210    -0.1418836730     0.9586807332
   18      C      -6.4340145357     2.0501155190    -0.5723822591
   19      C      -7.8375237598     0.2429977685     0.0871829717
   20      S      -6.2064078316     3.5564571780    -1.4576929360
   21      C      -7.6853542757     1.4373356440    -0.7036403253
   22      C      -9.0795832315    -0.4595207541     0.2247256714
   23      C      -7.9234302712     3.4302193716    -1.7897380505
   24      C      -8.5941673626     2.2674790573    -1.3987537595
   25      N     -10.1674884206    -0.1140134526    -0.4171162125
   26      S      -9.1010910167    -1.9493139145     1.1480808330
   27      C     -11.2100013291    -0.9488561018    -0.0471762353
   28      C     -10.8135380783    -1.9893022957     0.7503158388
   29      C       4.0178932589     4.4984683346     0.9346572040
   30      H       3.2037564835     1.9522395459     1.4687155028
   31      H       0.8581351784     1.1163771102     1.7309685893
   32      H      -0.4066875635     4.8056123950    -0.0305930601
   33      H      -1.9990923173     3.5537340973    -0.9357017982
   34      H      -8.3832946212     4.1698698387    -2.4329471659
   35      H      -9.6636218133     2.1008991645    -1.4582879279
   36      H     -12.1935018200    -0.7406864210    -0.4478521247
   37      H     -11.4754004401    -2.7481664162     1.1462255010
   38      H       4.1234554635     5.4330577346     0.3695737814
   39      C       5.0659226899     3.7274232608     0.1192408650
   40      H       4.3459105173     4.5851726013     1.9784661177
   41      H       4.8313951623     3.6608805209    -0.9502426097
   42      H       5.1086321706     2.6634820012     0.3804417383
   43      C       6.5293137122     4.3087358781     0.3223673204
   44      H       6.6978911718     5.0505513794    -0.4689843095
   45      C       7.7535196018     3.3583034923     0.1438057904
   46      H       6.6294737651     4.6635866961     1.3548395286
   47      H       8.5944756911     3.8411383316    -0.3675779931
   48      H       7.5011105904     2.4707238216    -0.4483605875
   49      C       8.3706510543     2.9455166816     1.5617478975
   50      H       9.2426969685     2.3119734283     1.3611266880
   51      C       7.3434296635     2.2648748879     2.5781847932
   52      H       8.7115151464     3.8413656068     2.0958942950
   53      H       6.5002805206     2.8835261718     2.9095699346
   54      H       7.7671747108     1.8757328458     3.5118370872
   55      H       6.8400432681     1.4296369262     2.0753083828
   56      C       8.2087341733    -0.3472632482    -0.5886700287
   57      C       7.5869881879    -1.0598154620     0.4130216765
   58      N       7.5405391660     0.2543973763    -1.5967875443
   59      C       6.1888110467    -1.2980412157     0.3490985032
   60      C       6.1934455898     0.1282549752    -1.5945533939
   61      C       5.4883466243    -0.7226485992    -0.7415700669
   62      C       4.0048418506    -0.8585860489    -0.8486475913
   63      C       3.4456508959    -2.0745732733    -0.2860584462
   64      C       2.9917528026     0.0852405443    -1.3339309549
   65      N       2.1739897371    -2.3232592710    -0.1354092786
   66      N       3.2668877919     1.2563873041    -2.0071887098
   67      C       1.6826884856    -0.2421213742    -1.2705291555
   68      C       1.2496150923    -1.4304267754    -0.5817137161
   69      S       1.7676042215     1.7828102636    -2.3921272029
   70      N       0.7760861473     0.6775132364    -1.7280937774
   71      C      -0.2164494324    -1.8591174759    -0.4170774723
   72      S      -1.5999012017    -0.9594865749    -0.9333317157
   73      C      -0.6675525115    -3.1114772274     0.0033390650
   74      C      -2.7488332028    -2.2883944087    -0.5531170049
   75      S       0.1730246705    -4.3591123064     0.7698217529
   76      C      -2.0345908481    -3.3290267356    -0.0672824455
   77      C      -4.1104811846    -2.2050510297    -0.9139322688
   78      C      -1.2404738911    -5.3869183749     0.6611640243
   79      C      -2.3686051487    -4.6984087932     0.2990046375
   80      N      -4.4593803339    -1.2194002296    -1.7860508869
   81      S      -5.3103475280    -3.2989385605    -0.3400421854
   82      C      -5.8196755506    -1.4266283951    -2.0175512345
   83      C      -6.3777330268    -2.5201090232    -1.3913236647
   84      C       9.7288114531    -0.3108543741    -0.8469149843
   85      H       8.1824053837    -1.5614055703     1.1707589175
   86      H       5.7331796767    -1.8499451966     1.1665971579
   87      H       5.7380472706     0.5279804475    -2.4990670299
   88      H       4.0604795679    -2.8358186601     0.1921697056
   89      H      -1.2111064277    -6.3624734925     1.1274962713
   90      H      -3.3594552296    -5.1368770378     0.3271065192
   91      H      -6.3732147565    -0.8386165038    -2.7367851069
   92      H      -7.4212265987    -2.8051581070    -1.3677188918
   93      H      10.0095599347    -0.4147746963    -1.9015812143
   94      C      10.5119867478    -1.2782044078     0.0480796359
   95      H       9.9880118144     0.7202396338    -0.5784390644
   96      H      10.1091302507    -2.2959753677    -0.0161380871
   97      H      10.4038082736    -0.9857401745     1.0993127641
   98      C      11.9683811764    -1.3707726019    -0.4389936623
   99      H      12.0360550279    -1.7922890334    -1.4497063553
  100      C      12.7985207407    -2.1569208578     0.5766254708
  101      H      12.4091321027    -0.3685951668    -0.5106944967
  102      H      12.1583888961    -2.9328814695     1.0143620933
  103      H      13.0376224057    -1.4676766751     1.3976235526
  104      C      14.0636100320    -2.9067162950    -0.0143549753
  105      H      14.4694496154    -2.1651590998    -0.7131884023
  106      C      13.7910373670    -4.3043853488    -0.6254223680
  107      H      14.7123149661    -2.9376071102     0.8690269726
  108      H      14.6915618099    -4.8045611813    -1.0048454357
  109      H      13.0605726462    -4.2365117457    -1.4407630734
  110      H      13.4517060285    -4.9975154675     0.1546666533
 ----------------------------------------------------------------

   10   -5663.4926224593      4.70E-06 Convergence criterion met
 Total energy in the final basis set = -5663.4926224593

                    Orbital Energies (a.u.)
 --------------------------------------------------------------

 Alpha MOs
 -- Occupied --
-88.988 -88.987 -88.931 -88.926 -88.926 -88.917 -88.916 -88.906
-14.392 -14.388 -14.380 -14.377 -14.351 -14.347 -14.346 -14.341
-14.330 -14.325 -10.268 -10.267 -10.265 -10.264 -10.260 -10.256
-10.254 -10.254 -10.242 -10.242 -10.238 -10.238 -10.237 -10.234
-10.232 -10.231 -10.231 -10.229 -10.229 -10.229 -10.228 -10.226
-10.224 -10.224 -10.223 -10.222 -10.221 -10.221 -10.220 -10.220
-10.219 -10.209 -10.209 -10.207 -10.206 -10.202 -10.195 -10.194
-10.186 -10.183 -10.183 -10.182 -10.181 -10.179 -10.178 -10.177
-10.174 -10.173 -10.171 -10.170  -8.044  -8.043  -7.993  -7.988
 -7.984  -7.976  -7.975  -7.967  -6.008  -6.008  -6.003  -6.003
 -6.002  -6.001  -5.956  -5.953  -5.952  -5.950  -5.948  -5.948
 -5.945  -5.945  -5.941  -5.940  -5.940  -5.936  -5.936  -5.933
 -5.932  -5.931  -5.928  -5.924  -1.046  -1.041  -0.970  -0.964
 -0.960  -0.955  -0.940  -0.940  -0.919  -0.906  -0.905  -0.903
 -0.849  -0.843  -0.831  -0.830  -0.819  -0.810  -0.809  -0.805
 -0.801  -0.797  -0.794  -0.790  -0.784  -0.771  -0.763  -0.758
 -0.747  -0.745  -0.741  -0.733  -0.726  -0.724  -0.710  -0.703
 -0.691  -0.690  -0.673  -0.671  -0.654  -0.650  -0.646  -0.641
 -0.634  -0.630  -0.624  -0.624  -0.613  -0.607  -0.599  -0.594
 -0.593  -0.593  -0.586  -0.581  -0.578  -0.572  -0.569  -0.554
 -0.550  -0.547  -0.539  -0.536  -0.527  -0.520  -0.515  -0.509
 -0.507  -0.501  -0.498  -0.495  -0.485  -0.481  -0.475  -0.475
 -0.473  -0.469  -0.465  -0.462  -0.462  -0.457  -0.451  -0.447
 -0.445  -0.441  -0.440  -0.435  -0.433  -0.430  -0.430  -0.429
 -0.427  -0.425  -0.423  -0.419  -0.418  -0.414  -0.413  -0.410
 -0.408  -0.407  -0.405  -0.401  -0.398  -0.397  -0.396  -0.395
 -0.393  -0.391  -0.391  -0.387  -0.386  -0.384  -0.383  -0.382
 -0.380  -0.377  -0.374  -0.373  -0.368  -0.363  -0.361  -0.357
 -0.355  -0.352  -0.351  -0.350  -0.349  -0.347  -0.343  -0.339
 -0.337  -0.337  -0.334  -0.333  -0.329  -0.322  -0.320  -0.320
 -0.318  -0.312  -0.310  -0.306  -0.305  -0.302  -0.301  -0.297
 -0.295  -0.294  -0.292  -0.290  -0.288  -0.284  -0.283  -0.281
 -0.277  -0.275  -0.272  -0.262  -0.257  -0.253  -0.249  -0.245
 -0.243  -0.242  -0.233  -0.228  -0.193  -0.187

          Ground-State Mulliken Net Atomic Charges

     Atom                 Charge (a.u.)
  ----------------------------------------
      1 C                     0.294578
      2 C                    -0.133847
      3 N                    -0.487917
      4 C                    -0.090041
      5 C                     0.058970
      6 C                     0.049664
      7 C                     0.054722
      8 C                     0.048530
      9 C                     0.213908
     10 N                    -0.494155
     11 N                    -0.542980
     12 C                     0.234573
     13 C                     0.308378
     14 S                     0.600179
     15 N                    -0.584280
     16 C                    -0.212927
     17 S                     0.339721
     18 C                    -0.107357
     19 C                    -0.226197
     20 S                     0.307718
     21 C                     0.124813
     22 C                     0.087215
     23 C                    -0.306654
     24 C                    -0.063694
     25 N                    -0.454300
     26 S                     0.238558
     27 C                     0.129718
     28 C                    -0.313587
     29 C                    -0.225799
     30 H                     0.088076
     31 H                     0.119476
     32 H                     0.097822
     33 H                     0.109211
     34 H                     0.120005
     35 H                     0.131960
     36 H                     0.116674
     37 H                     0.125450
     38 H                     0.126411
     39 C                    -0.209015
     40 H                     0.114682
     41 H                     0.112400
     42 H                     0.096668
     43 C                    -0.180122
     44 H                     0.095500
     45 C                    -0.196473
     46 H                     0.093314
     47 H                     0.089056
     48 H                     0.121144
     49 C                    -0.190559
     50 H                     0.088000
     51 C                    -0.333755
     52 H                     0.095436
     53 H                     0.100045
     54 H                     0.096254
     55 H                     0.104496
     56 C                     0.257377
     57 C                    -0.111173
     58 N                    -0.475968
     59 C                    -0.087750
     60 C                     0.063849
     61 C                     0.042234
     62 C                     0.009233
     63 C                     0.059653
     64 C                     0.242700
     65 N                    -0.505282
     66 N                    -0.542499
     67 C                     0.179276
     68 C                     0.281843
     69 S                     0.628833
     70 N                    -0.528302
     71 C                    -0.229715
     72 S                     0.353909
     73 C                    -0.121486
     74 C                    -0.276949
     75 S                     0.280622
     76 C                     0.158276
     77 C                     0.062413
     78 C                    -0.307002
     79 C                    -0.072351
     80 N                    -0.431291
     81 S                     0.292609
     82 C                     0.115637
     83 C                    -0.297596
     84 C                    -0.217634
     85 H                     0.093873
     86 H                     0.111277
     87 H                     0.120613
     88 H                     0.105897
     89 H                     0.125957
     90 H                     0.115040
     91 H                     0.120666
     92 H                     0.140893
     93 H                     0.124181
     94 C                    -0.193305
     95 H                     0.124731
     96 H                     0.100524
     97 H                     0.098473
     98 C                    -0.179552
     99 H                     0.095821
    100 C                    -0.186333
    101 H                     0.093490
    102 H                     0.085628
    103 H                     0.091463
    104 C                    -0.181364
    105 H                     0.094240
    106 C                    -0.317641
    107 H                     0.093287
    108 H                     0.106209
    109 H                     0.107236
    110 H                     0.105567
  ----------------------------------------
  Sum of atomic charges =     0.000000

                    Cartesian Multipole Moments
 -----------------------------------------------------------------
    Charge (ESU x 10^10)
                 0.0000
    Dipole Moment (Debye)
         X      -1.6856      Y      -4.6773      Z       2.2746
       Tot       5.4673
    Quadrupole Moments (Debye-Ang)
        XX    -388.3280     XY       5.7809     YY    -440.6007
        XZ       9.2248     YZ     -12.8841     ZZ    -445.5538

 Total job time:  111.18s(wall), 1329.55s(cpu)
        *  Thank you very much for using Q-Chem.  Have a nice day.  *
