 Q-Chem 4.4, Q-Chem, Inc., Pleasanton, CA (2016)
 Q-Chem 4.4.2 for Intel X86 Linux

User input:
--------------------------------------------------------------
$comment
SP
$end

$rem
MEM_STATIC 5000
MEM_TOTAL 20000
JOBTYPE SP
EXCHANGE B3LYP
BASIS 6-31g(d,p)
$end

$molecule
0 1
C         -27.192000     21.090000     -5.133000
C         -26.591000     19.897000     -5.587000
N         -27.929000     21.774000     -5.986000
C         -26.492000     19.548000     -6.945000
C         -28.003000     21.454000     -7.241000
C         -27.341000     20.346000     -7.866000
C         -27.323000     20.062000     -9.359000
C         -26.259000     19.350000     -9.913000
C         -28.278000     20.483000    -10.284000
N         -26.126000     18.889000    -11.242000
N         -29.430000     21.089000     -9.976000
C         -28.136000     20.088000    -11.645000
C         -27.092000     19.254000    -12.121000
S         -30.180000     21.155000    -11.433000
N         -29.175000     20.387000    -12.397000
C         -26.953000     18.690000    -13.534000
S         -26.098000     17.176000    -13.978000
C         -27.169000     19.394000    -14.685000
C         -26.374000     17.464000    -15.741000
S         -27.514000     21.107000    -14.813000
C         -26.956000     18.696000    -15.866000
C         -25.757000     16.799000    -16.914000
C         -27.439000     20.886000    -16.583000
C         -27.217000     19.576000    -16.963000
N         -26.176000     16.993000    -18.154000
S         -24.482000     15.576000    -16.692000
C         -25.314000     16.279000    -18.970000
C         -24.395000     15.471000    -18.390000
C         -27.197000     21.463000     -3.677000
H         -26.224000     19.266000     -4.782000
H         -26.045000     18.589000     -7.189000
H         -28.554000     22.107000     -7.917000
H         -25.493000     18.960000     -9.244000
H         -27.531000     21.814000    -17.131000
H         -27.256000     19.307000    -18.013000
H         -25.403000     16.408000    -20.041000
H         -23.571000     14.915000    -18.817000
H         -28.228000     21.669000     -3.362000
C         -26.259000     22.725000     -3.450000
H         -26.856000     20.638000     -3.039000
H         -26.590000     23.213000     -2.525000
H         -26.389000     23.394000     -4.311000
C         -24.749000     22.313000     -3.332000
H         -24.669000     21.640000     -2.470000
C         -23.773000     23.499000     -3.122000
H         -24.356000     21.796000     -4.216000
H         -24.098000     24.007000     -2.205000
H         -23.828000     24.120000     -4.023000
C         -22.298000     22.980000     -3.105000
H         -22.092000     22.217000     -2.345000
C         -21.350000     24.175000     -3.053000
H         -22.028000     22.573000     -4.088000
H         -21.477000     24.770000     -2.140000
H         -21.567000     24.741000     -3.966000
H         -20.289000     23.898000     -3.074000
C         -24.183000     22.885000     -7.722000
C         -23.013000     22.786000     -6.891000
N         -24.387000     22.009000     -8.751000
C         -22.020000     21.863000     -7.324000
C         -23.497000     21.040000     -8.977000
C         -22.310000     20.914000     -8.311000
C         -21.346000     19.886000     -8.719000
C         -19.912000     20.100000     -8.622000
C         -21.757000     18.590000     -9.025000
N         -19.093000     19.154000     -9.141000
N         -23.052000     18.193000     -8.858000
C         -20.878000     17.624000     -9.403000
C         -19.534000     17.947000     -9.539000
S         -23.054000     16.601000     -9.217000
N         -21.431000     16.398000     -9.509000
C         -18.409000     17.101000    -10.036000
S         -16.574000     17.244000     -9.699000
C         -18.633000     16.352000    -11.185000
C         -16.181000     16.134000    -11.084000
S         -20.015000     16.188000    -12.136000
C         -17.398000     15.876000    -11.768000
C         -14.874000     15.862000    -11.706000
C         -19.040000     15.479000    -13.376000
C         -17.693000     15.340000    -13.063000
N         -13.919000     16.613000    -11.267000
S         -14.481000     14.784000    -13.044000
C         -12.759000     16.377000    -11.921000
C         -12.871000     15.442000    -12.942000
C         -25.268000     23.897000     -7.348000
H         -22.768000     23.450000     -6.068000
H         -21.044000     21.855000     -6.847000
H         -23.852000     20.384000     -9.769000
H         -19.497000     21.088000     -8.427000
H         -19.528000     15.339000    -14.331000
H         -16.914000     15.148000    -13.794000
H         -11.829000     16.855000    -11.643000
H         -12.110000     14.962000    -13.543000
H         -25.889000     23.415000     -6.582000
C         -26.117000     24.242000     -8.616000
H         -24.850000     24.813000     -6.913000
H         -26.719000     23.362000     -8.876000
H         -25.559000     24.352000     -9.553000
C         -27.091000     25.458000     -8.470000
H         -26.592000     26.351000     -8.074000
C         -28.263000     25.140000     -7.450000
H         -27.447000     25.689000     -9.483000
H         -27.831000     24.744000     -6.522000
H         -28.890000     24.370000     -7.915000
C         -29.076000     26.380000     -7.098000
H         -29.821000     26.314000     -6.295000
C         -29.999000     26.787000     -8.355000
H         -28.351000     27.158000     -6.830000
H         -30.287000     25.792000     -8.717000
H         -29.352000     27.314000     -9.067000
H         -30.901000     27.332000     -8.050000
$end

--------------------------------------------------------------

             Standard Nuclear Orientation (Angstroms)
    I     Atom           X                Y                Z
 ----------------------------------------------------------------
    1      C      -5.5813145435    -2.6877867373    -2.2532402791
    2      C      -4.3228036496    -2.4109456596    -2.8277621216
    3      N      -6.1744226668    -1.7269966185    -1.5722563573
    4      C      -3.5438812214    -1.2925310763    -2.4839676034
    5      C      -5.5814819472    -0.6032067967    -1.3106865973
    6      C      -4.2560142446    -0.2377990109    -1.7182961155
    7      C      -3.5211230595     1.0217479843    -1.2899209143
    8      C      -2.1264930611     1.0303256569    -1.2600948976
    9      C      -4.1134845362     2.2128593177    -0.8712890090
   10      N      -1.2738532964     2.1288356246    -1.0096307634
   11      N      -5.4248496299     2.4734579338    -0.9114630337
   12      C      -3.2765455401     3.3192973608    -0.5490500081
   13      C      -1.8626609925     3.2997515055    -0.6613729608
   14      S      -5.4709184701     4.0550483204    -0.4800067660
   15      N      -3.9345831214     4.4401874004    -0.3368754088
   16      C      -0.9190319588     4.4837122217    -0.4569536147
   17      S       0.6975378097     4.6770955775    -1.2117132197
   18      C      -1.0132750306     5.3970490740     0.5549787140
   19      C       1.0112852867     6.2032908462    -0.2954274986
   20      S      -2.1287582536     5.3492107089     1.9052330122
   21      C      -0.0316997656     6.3786450992     0.5726773721
   22      C       2.2789512739     6.9503849394    -0.1118073454
   23      C      -1.2777714012     6.7900081201     2.5275594515
   24      C      -0.2735083994     7.2377505032     1.6904414302
   25      N       2.3335076886     8.1487897962     0.4464456409
   26      S       3.8058870993     6.3146000229    -0.7712635799
   27      C       3.6762225085     8.4813280751     0.5187727148
   28      C       4.5772858934     7.6672421302    -0.0805384319
   29      C      -6.3390776877    -3.9421136090    -2.5872299740
   30      H      -4.0199945781    -3.1404897537    -3.5740509940
   31      H      -2.6059287748    -1.1484530452    -3.0117106555
   32      H      -6.0848840799     0.1180128300    -0.6677133918
   33      H      -1.5958699529     0.1446075803    -1.6070237171
   34      H      -1.6268187469     7.1009309447     3.5029798467
   35      H       0.2406324383     8.1656675823     1.9162977856
   36      H       3.9507278445     9.3745007906     1.0651172223
   37      H       5.6589825173     7.6731454674    -0.0621383109
   38      H      -7.3505208800    -3.6739147874    -2.9184007168
   39      C      -6.3792974230    -4.8918121355    -1.3142523302
   40      H      -5.8898299351    -4.4831287630    -3.4295060926
   41      H      -7.2417370683    -5.5589667712    -1.4343878797
   42      H      -6.5008640444    -4.2542385497    -0.4285303200
   43      C      -5.0616131059    -5.7333190041    -1.1751759825
   44      H      -4.9762599804    -6.3435035500    -2.0822386396
   45      C      -5.0264411639    -6.6749095529     0.0558569873
   46      H      -4.1525435544    -5.1276832298    -1.0752166943
   47      H      -5.8918050250    -7.3428341395    -0.0421232889
   48      H      -5.0504917020    -6.0363956316     0.9459067297
   49      C      -3.6402611085    -7.3938866589     0.1386324369
   50      H      -3.3728258221    -7.9723576069    -0.7535865552
   51      C      -3.5705896754    -8.1935645021     1.4367442343
   52      H      -2.8445871635    -6.6622997369     0.3297385561
   53      H      -4.3300323943    -8.9840794262     1.4820863945
   54      H      -3.6839834678    -7.4455625545     2.2296180794
   55      H      -2.6115214271    -8.7029174374     1.5904929981
   56      C      -3.2529348023    -2.5910149861     1.4275626237
   57      C      -2.6311373233    -3.8876893994     1.3919907110
   58      N      -2.5521563022    -1.4689154545     1.0845828356
   59      C      -1.2255111342    -3.8965016268     1.1692703455
   60      C      -1.2796894291    -1.5802815365     0.6965587996
   61      C      -0.5675967704    -2.7468566529     0.7172359178
   62      C       0.8617866690    -2.7391863547     0.3865576003
   63      C       1.7999568936    -3.6465632768     1.0253570609
   64      C       1.3500400052    -2.0073950728    -0.6943046478
   65      N       3.1186011024    -3.4855623049     0.7602266442
   66      N       0.5127072646    -1.3542541637    -1.5515116440
   67      C       2.6707703300    -1.9898464616    -1.0168638756
   68      C       3.5724112180    -2.6803011062    -0.2171907593
   69      S       1.4875732090    -0.7446723908    -2.7096979212
   70      N       2.9378228912    -1.3566324406    -2.1778306852
   71      C       5.0621194813    -2.7247952953    -0.3016866609
   72      S       6.2500919876    -4.0328051946     0.3140035436
   73      C       5.7267367543    -1.5195228710    -0.4939891927
   74      C       7.6634584811    -2.9021457255     0.1443618040
   75      S       5.1286146120     0.0431786130    -0.6975450201
   76      C       7.1378525055    -1.6280809357    -0.1962351278
   77      C       9.0366332053    -3.0590844599     0.6531627577
   78      C       6.7167575938     0.6572371054    -0.3948239647
   79      C       7.6922449756    -0.3076758315    -0.1733146151
   80      N       9.1974363960    -4.0886274833     1.4166616095
   81      S      10.4151432379    -1.9729757304     0.4892880563
   82      C      10.4523513087    -4.1461628723     1.9175510593
   83      C      11.2509656784    -3.0692461050     1.5546800563
   84      C      -4.7526815759    -2.5015589289     1.7173940038
   85      H      -3.1102233452    -4.8227177734     1.6648432780
   86      H      -0.6633466487    -4.8173696590     1.2963221397
   87      H      -0.9001519330    -0.6117375027     0.3779701248
   88      H       1.5195419069    -4.2290741721     1.9019655779
   89      H       6.7858609149     1.7284040597    -0.2621774911
   90      H       8.6643593408    -0.1025856674     0.2637182047
   91      H      10.7996860511    -4.9768768260     2.5175018105
   92      H      12.3114227570    -2.9025824671     1.6902382220
   93      H      -5.2631274363    -2.6875442623     0.7636773376
   94      C      -5.0932508360    -1.0747732599     2.2614024907
   95      H      -5.0847582858    -3.2663572213     2.4300044378
   96      H      -4.9867552450    -0.3584554362     1.4368107951
   97      H      -4.3691077594    -0.6413039984     2.9607980898
   98      C      -6.5289908101    -0.9015332086     2.8591370568
   99      H      -6.7725560444    -1.6744676827     3.5984030952
  100      C      -7.6411837285    -1.0244967189     1.7352977056
  101      H      -6.5330333780     0.0705657077     3.3702861101
  102      H      -7.4599825509    -1.9363607712     1.1519503962
  103      H      -7.5331436848    -0.1498293783     1.0829646678
  104      C      -9.0462728812    -1.1116297403     2.3189117131
  105      H      -9.8841932974    -1.3425002284     1.6490026194
  106      C      -9.4798749135     0.3344403873     2.8832675082
  107      H      -9.0087507223    -1.8815638003     3.0989928825
  108      H      -9.0354737546     0.9844031953     2.1190234646
  109      H      -8.9940879909     0.4533502484     3.8595633194
  110      H     -10.5682531378     0.4725896215     2.8819908479
 ----------------------------------------------------------------

   10   -5663.4734123982      3.55E-06 Convergence criterion met
 Total energy in the final basis set = -5663.4734123982

                    Orbital Energies (a.u.)
 --------------------------------------------------------------

 Alpha MOs
 -- Occupied --
-88.994 -88.985 -88.929 -88.926 -88.924 -88.922 -88.912 -88.904
-14.388 -14.388 -14.387 -14.384 -14.355 -14.347 -14.346 -14.337
-14.328 -14.324 -10.275 -10.268 -10.267 -10.259 -10.257 -10.256
-10.253 -10.252 -10.245 -10.244 -10.244 -10.243 -10.242 -10.238
-10.235 -10.229 -10.228 -10.228 -10.228 -10.228 -10.227 -10.226
-10.226 -10.226 -10.226 -10.226 -10.223 -10.222 -10.219 -10.219
-10.214 -10.212 -10.208 -10.208 -10.206 -10.203 -10.199 -10.198
-10.191 -10.190 -10.189 -10.185 -10.184 -10.181 -10.175 -10.175
-10.173 -10.172 -10.169 -10.168  -8.049  -8.041  -7.990  -7.984
 -7.984  -7.980  -7.974  -7.965  -6.014  -6.009  -6.007  -6.006
 -6.000  -5.999  -5.953  -5.950  -5.949  -5.947  -5.947  -5.945
 -5.945  -5.944  -5.942  -5.941  -5.940  -5.938  -5.937  -5.935
 -5.930  -5.930  -5.926  -5.921  -1.054  -1.039  -0.978  -0.969
 -0.955  -0.952  -0.944  -0.937  -0.923  -0.911  -0.908  -0.901
 -0.839  -0.838  -0.832  -0.828  -0.814  -0.811  -0.808  -0.807
 -0.801  -0.796  -0.794  -0.791  -0.788  -0.778  -0.766  -0.761
 -0.747  -0.747  -0.741  -0.738  -0.721  -0.717  -0.710  -0.703
 -0.693  -0.685  -0.674  -0.669  -0.655  -0.654  -0.650  -0.645
 -0.638  -0.633  -0.626  -0.623  -0.612  -0.610  -0.601  -0.594
 -0.593  -0.589  -0.583  -0.580  -0.579  -0.576  -0.573  -0.555
 -0.551  -0.544  -0.541  -0.538  -0.523  -0.522  -0.516  -0.514
 -0.510  -0.509  -0.504  -0.499  -0.488  -0.482  -0.480  -0.476
 -0.474  -0.472  -0.471  -0.468  -0.464  -0.450  -0.448  -0.447
 -0.444  -0.440  -0.439  -0.438  -0.435  -0.434  -0.433  -0.432
 -0.428  -0.427  -0.423  -0.422  -0.417  -0.415  -0.414  -0.413
 -0.410  -0.408  -0.407  -0.402  -0.399  -0.398  -0.397  -0.397
 -0.395  -0.391  -0.390  -0.387  -0.386  -0.383  -0.382  -0.381
 -0.375  -0.373  -0.371  -0.370  -0.367  -0.363  -0.361  -0.361
 -0.359  -0.352  -0.350  -0.344  -0.344  -0.343  -0.343  -0.342
 -0.337  -0.334  -0.333  -0.332  -0.331  -0.329  -0.327  -0.321
 -0.320  -0.316  -0.313  -0.308  -0.304  -0.304  -0.300  -0.298
 -0.296  -0.292  -0.291  -0.290  -0.288  -0.284  -0.283  -0.281
 -0.279  -0.269  -0.267  -0.266  -0.253  -0.250  -0.248  -0.246
 -0.243  -0.242  -0.229  -0.227  -0.197  -0.190

          Ground-State Mulliken Net Atomic Charges

     Atom                 Charge (a.u.)
  ----------------------------------------
      1 C                     0.274746
      2 C                    -0.123243
      3 N                    -0.471246
      4 C                    -0.081005
      5 C                     0.087983
      6 C                     0.027318
      7 C                     0.105536
      8 C                     0.023065
      9 C                     0.216353
     10 N                    -0.524387
     11 N                    -0.555462
     12 C                     0.181046
     13 C                     0.271341
     14 S                     0.595541
     15 N                    -0.506366
     16 C                    -0.206980
     17 S                     0.298857
     18 C                    -0.111012
     19 C                    -0.234033
     20 S                     0.255117
     21 C                     0.163067
     22 C                     0.059082
     23 C                    -0.289400
     24 C                    -0.069671
     25 N                    -0.427285
     26 S                     0.258523
     27 C                     0.114331
     28 C                    -0.299670
     29 C                    -0.225080
     30 H                     0.083567
     31 H                     0.108785
     32 H                     0.119963
     33 H                     0.129957
     34 H                     0.134133
     35 H                     0.129080
     36 H                     0.106928
     37 H                     0.137986
     38 H                     0.118117
     39 C                    -0.191816
     40 H                     0.096179
     41 H                     0.094224
     42 H                     0.115611
     43 C                    -0.183792
     44 H                     0.088211
     45 C                    -0.166564
     46 H                     0.101070
     47 H                     0.095589
     48 H                     0.089245
     49 C                    -0.187907
     50 H                     0.095381
     51 C                    -0.314154
     52 H                     0.094335
     53 H                     0.103660
     54 H                     0.097342
     55 H                     0.096541
     56 C                     0.260169
     57 C                    -0.120439
     58 N                    -0.491302
     59 C                    -0.095916
     60 C                     0.084945
     61 C                     0.069864
     62 C                     0.003739
     63 C                     0.059552
     64 C                     0.249789
     65 N                    -0.497552
     66 N                    -0.568501
     67 C                     0.230432
     68 C                     0.243604
     69 S                     0.621560
     70 N                    -0.561583
     71 C                    -0.187020
     72 S                     0.334537
     73 C                    -0.113920
     74 C                    -0.203268
     75 S                     0.297750
     76 C                     0.099459
     77 C                     0.062189
     78 C                    -0.310225
     79 C                    -0.082863
     80 N                    -0.415239
     81 S                     0.267111
     82 C                     0.125826
     83 C                    -0.316768
     84 C                    -0.239514
     85 H                     0.094791
     86 H                     0.096735
     87 H                     0.121393
     88 H                     0.121510
     89 H                     0.132200
     90 H                     0.110644
     91 H                     0.116497
     92 H                     0.134628
     93 H                     0.148551
     94 C                    -0.177060
     95 H                     0.101166
     96 H                     0.108515
     97 H                     0.097342
     98 C                    -0.189234
     99 H                     0.083434
    100 C                    -0.180211
    101 H                     0.090864
    102 H                     0.105896
    103 H                     0.096695
    104 C                    -0.183503
    105 H                     0.091124
    106 C                    -0.322791
    107 H                     0.086523
    108 H                     0.103381
    109 H                     0.107576
    110 H                     0.098183
  ----------------------------------------
  Sum of atomic charges =     0.000000

                    Cartesian Multipole Moments
 -----------------------------------------------------------------
    Charge (ESU x 10^10)
                 0.0000
    Dipole Moment (Debye)
         X       2.0793      Y      -0.1342      Z       0.2272
       Tot       2.0959
    Quadrupole Moments (Debye-Ang)
        XX    -409.3982     XY      27.7299     YY    -432.7587
        XZ       9.7719     YZ      10.9461     ZZ    -441.0807

 Total job time:  99.79s(wall), 1213.97s(cpu)
        *  Thank you very much for using Q-Chem.  Have a nice day.  *
