 Q-Chem 4.4, Q-Chem, Inc., Pleasanton, CA (2016)
 Q-Chem 4.4.2 for Intel X86 Linux

User input:
--------------------------------------------------------------
$comment
SP
$end

$rem
MEM_STATIC 5000
MEM_TOTAL 20000
JOBTYPE SP
EXCHANGE B3LYP
BASIS 6-31g(d,p)
$end

$molecule
0 1
C           0.994000    -10.361000     -4.335000
C          -0.263000    -10.153000     -3.788000
N           1.114000    -10.794000     -5.590000
C          -1.372000    -10.437000     -4.570000
C          -0.013000    -11.076000     -6.348000
C          -1.321000    -10.901000     -5.873000
C          -2.516000    -11.204000     -6.775000
C          -2.726000    -12.409000     -7.306000
C          -3.238000    -10.115000     -7.255000
N          -3.735000    -12.641000     -8.210000
N          -3.058000     -8.822000     -6.848000
C          -4.298000    -10.322000     -8.139000
C          -4.605000    -11.609000     -8.620000
S          -4.261000     -8.014000     -7.616000
N          -5.012000     -9.250000     -8.421000
C          -5.646000    -11.836000     -9.518000
S          -6.430000    -10.581000    -10.489000
C          -6.236000    -13.071000     -9.744000
C          -7.393000    -11.802000    -11.265000
S          -6.007000    -14.717000     -9.022000
C          -7.169000    -13.055000    -10.718000
C          -8.188000    -11.516000    -12.478000
C          -7.153000    -15.331000    -10.212000
C          -7.677000    -14.379000    -10.987000
N          -8.712000    -12.444000    -13.187000
S          -8.252000     -9.866000    -13.117000
C          -9.193000    -11.956000    -14.386000
C          -9.181000    -10.557000    -14.452000
C           2.227000    -10.344000     -3.487000
H          -0.395000     -9.900000     -2.740000
H          -2.332000    -10.152000     -4.148000
H           0.187000    -11.530000     -7.318000
H          -2.098000    -13.252000     -7.023000
H          -7.417000    -16.378000    -10.140000
H          -8.471000    -14.594000    -11.692000
H          -9.573000    -12.701000    -15.072000
H          -9.538000     -9.949000    -15.274000
H           3.117000    -10.458000     -4.118000
C           2.265000    -11.366000     -2.325000
H           2.557000     -9.348000     -3.164000
H           2.013000    -12.383000     -2.653000
H           1.478000    -11.209000     -1.577000
C           3.719000    -11.394000     -1.810000
H           4.401000    -11.723000     -2.605000
C           3.928000    -12.440000     -0.737000
H           3.999000    -10.418000     -1.397000
H           4.214000    -13.395000     -1.196000
H           3.017000    -12.580000     -0.143000
C           5.135000    -12.048000      0.151000
H           6.083000    -12.222000     -0.372000
C           5.153000    -12.687000      1.543000
H           5.146000    -10.960000      0.291000
H           4.400000    -12.256000      2.214000
H           6.102000    -12.622000      2.087000
H           4.894000    -13.749000      1.457000
C           5.964000    -14.236000    -17.412000
C           6.841000    -13.705000    -16.485000
N           4.913000    -14.991000    -17.006000
C           6.583000    -13.783000    -15.149000
C           4.749000    -15.179000    -15.690000
C           5.436000    -14.476000    -14.713000
C           4.943000    -14.327000    -13.331000
C           5.803000    -14.307000    -12.204000
C           3.567000    -14.335000    -12.961000
N           5.376000    -14.194000    -10.921000
N           2.587000    -14.275000    -13.867000
C           3.135000    -14.305000    -11.659000
C           4.064000    -14.192000    -10.607000
S           1.165000    -14.430000    -13.063000
N           1.785000    -14.295000    -11.595000
C           3.595000    -14.142000     -9.140000
S           1.926000    -14.083000     -8.594000
C           4.393000    -13.923000     -8.031000
C           2.383000    -14.101000     -6.858000
S           6.101000    -13.568000     -7.972000
C           3.712000    -13.712000     -6.847000
C           1.544000    -14.286000     -5.720000
C           5.916000    -13.269000     -6.165000
C           4.569000    -13.341000     -5.773000
N           0.269000    -14.313000     -6.012000
S           2.114000    -14.749000     -4.085000
C          -0.458000    -14.609000     -4.946000
C           0.383000    -14.824000     -3.844000
C           6.174000    -14.070000    -18.923000
H           7.725000    -13.185000    -16.845000
H           7.284000    -13.425000    -14.400000
H           4.013000    -15.900000    -15.336000
H           6.881000    -14.246000    -12.345000
H           6.828000    -13.079000     -5.616000
H           4.285000    -13.256000     -4.730000
H          -1.536000    -14.703000     -4.962000
H           0.067000    -15.017000     -2.827000
H           5.346000    -13.529000    -19.398000
C           6.592000    -15.284000    -19.692000
H           6.935000    -13.295000    -19.078000
H           5.806000    -16.037000    -19.828000
H           7.338000    -15.833000    -19.104000
C           7.138000    -14.779000    -20.999000
H           6.379000    -14.250000    -21.589000
C           7.524000    -16.010000    -21.872000
H           7.978000    -14.087000    -20.860000
H           6.583000    -16.496000    -22.155000
H           8.085000    -16.767000    -21.311000
C           8.188000    -15.506000    -23.188000
H           7.532000    -14.806000    -23.721000
C           8.509000    -16.745000    -24.083000
H           9.097000    -14.938000    -22.955000
H           7.600000    -16.969000    -24.655000
H           8.803000    -17.603000    -23.465000
H           9.270000    -16.455000    -24.820000
$end

--------------------------------------------------------------

             Standard Nuclear Orientation (Angstroms)
    I     Atom           X                Y                Z
 ----------------------------------------------------------------
    1      C       4.5662343106    -3.6486932846    -1.8562972649
    2      C       5.7752372570    -2.9806009348    -1.7359374381
    3      N       3.4212657192    -3.0065448839    -1.6247668002
    4      C       5.7519538175    -1.6515481008    -1.3420625269
    5      C       3.4276601262    -1.6779236081    -1.2260919739
    6      C       4.6030391664    -0.9281506704    -1.0729950965
    7      C       4.5324226208     0.5406321578    -0.6593185235
    8      C       3.9702168022     0.9374491445     0.4828491072
    9      C       4.8272968451     1.4874641637    -1.6361313738
   10      N       3.8051161703     2.2668701973     0.7902616082
   11      N       5.3303928613     1.1971876040    -2.8740861053
   12      C       4.7132772265     2.8466303631    -1.3402060978
   13      C       4.2283126695     3.2825686931    -0.0925097601
   14      S       5.6194033700     2.6767371012    -3.5200762066
   15      N       5.1537717456     3.6643326242    -2.2760648429
   16      C       4.0877538738     4.6338385333     0.2172111526
   17      S       4.0741510876     5.9436773355    -0.9730238144
   18      C       3.9787927734     5.1396753385     1.5043232709
   19      C       3.7586516553     7.0812038490     0.3024680670
   20      S       4.0354218546     4.3881707785     3.1520717479
   21      C       3.7706280885     6.4717055936     1.5465590772
   22      C       3.3445064785     8.4725696815     0.0235865642
   23      C       3.6417434972     5.9709339740     3.8201211606
   24      C       3.5600860828     6.9325621180     2.8981079398
   25      N       2.8901316983     9.2469460040     0.9359055163
   26      S       3.2567508974     9.0438147420    -1.6500009115
   27      C       2.3485378449    10.3987924176     0.4001518999
   28      C       2.6057207492    10.5390713069    -0.9694757090
   29      C       4.5080381356    -5.1365138436    -2.0069132977
   30      H       6.7254819947    -3.5003305614    -1.8175036920
   31      H       6.7070572384    -1.1340683447    -1.3720818129
   32      H       2.4529663988    -1.2751781892    -0.9526248548
   33      H       3.6325312350     0.2045741170     1.2135916417
   34      H       3.6162380108     6.0524328178     4.8989151209
   35      H       3.4278104458     7.9722637028     3.1723519376
   36      H       1.8690067749    11.0602035235     1.1090992194
   37      H       2.3120585456    11.3714892980    -1.5968829119
   38      H       3.4698054705    -5.4573817894    -2.1564916866
   39      C       5.1598391867    -5.9592907963    -0.8692114580
   40      H       4.7908848924    -5.5162679980    -2.9973826280
   41      H       4.8226767099    -5.6393880373     0.1254546614
   42      H       6.2385262944    -5.7877943964    -0.7665220797
   43      C       4.7028109643    -7.4198824680    -1.0639476193
   44      H       3.6102348107    -7.4934660471    -0.9848729364
   45      C       5.1797546260    -8.3242576893     0.0512905627
   46      H       5.0804960226    -7.8171504218    -2.0131984659
   47      H       4.4394798711    -8.3417980932     0.8613446482
   48      H       6.1441849463    -7.9840095437     0.4468437913
   49      C       5.2525206635    -9.7869291707    -0.4530448826
   50      H       4.2508582076   -10.2243306127    -0.5417088721
   51      C       6.1814873373   -10.7052542769     0.3469606912
   52      H       5.6005015835    -9.7965675321    -1.4933724182
   53      H       7.2421263038   -10.4918257595     0.1666713387
   54      H       6.0638022456   -11.7796305959     0.1663291759
   55      H       6.0266681259   -10.5318859695     1.4185461716
   56      C      -9.3992321693     0.1698323652    -0.8031772060
   57      C      -9.0714619089    -1.0466594800    -1.3716253100
   58      N      -8.6378914706     0.6874474149     0.1927630536
   59      C      -7.8978799162    -1.6699864739    -1.0687841550
   60      C      -7.5597509978    -0.0060425422     0.5810680889
   61      C      -7.0429693901    -1.0905211140    -0.1099818349
   62      C      -5.6447255824    -1.5397325047     0.0252859760
   63      C      -5.2665735306    -2.9055000946    -0.0172453787
   64      C      -4.5525409835    -0.6863784250     0.3558304004
   65      N      -3.9921786181    -3.3486157444     0.1268140812
   66      N      -4.6703139271     0.6442786352     0.3736439336
   67      C      -3.2791496376    -1.1437052713     0.5839852511
   68      C      -2.9788195618    -2.5103942073     0.4275333488
   69      S      -3.2464825862     1.2559417112     0.9131785425
   70      N      -2.4363510545    -0.1215732380     0.8516280259
   71      C      -1.5507941651    -3.0383554549     0.6653366023
   72      S      -0.1348658590    -2.0575912529     1.0123331610
   73      C      -1.1054492163    -4.3288323672     0.4395419713
   74      C       0.9448586320    -3.4834659192     1.1670763660
   75      S      -1.9798425195    -5.6792253470    -0.2376914830
   76      C       0.2627548245    -4.5039841599     0.5260148119
   77      C       2.2804643865    -3.5371636985     1.6635275894
   78      C      -0.3973041648    -6.6195421987    -0.2535525778
   79      C       0.6805840157    -5.8074695798     0.1362578016
   80      N       2.7938451686    -2.3583574923     1.9053417758
   81      S       3.1149904478    -5.0245658592     2.2146129416
   82      C       3.9827594282    -2.4645243171     2.4778035551
   83      C       4.2995656694    -3.8183646412     2.6639760086
   84      C     -10.6610840151     0.9451414984    -1.2049267143
   85      H      -9.7521893727    -1.4796452864    -2.1000409959
   86      H      -7.6446204559    -2.6524642899    -1.4575810001
   87      H      -7.0157231067     0.2986598252     1.4744006815
   88      H      -5.9939840506    -3.6611360134    -0.3097762206
   89      H      -0.4612272546    -7.6581609827    -0.5475421357
   90      H       1.6780673611    -6.2178249823     0.2474577092
   91      H       4.5805027936    -1.6151094154     2.7817331423
   92      H       5.2328389426    -4.2093220035     3.0480949201
   93      H     -10.4238511905     1.9294090780    -1.6278072159
   94      C     -11.7784315944     0.9939332491    -0.2104244508
   95      H     -11.0526538736     0.5028815831    -2.1295078157
   96      H     -11.5937964484     1.6361457065     0.6595031452
   97      H     -11.8814708690     0.0041137252     0.2514209972
   98      C     -13.0017998757     1.4065245749    -0.9814811584
   99      H     -12.8972149231     2.4062238947    -1.4215780314
  100      C     -14.1852023339     1.5429576356     0.0222272863
  101      H     -13.2294889451     0.7152843089    -1.8025351044
  102      H     -13.9639879807     2.4180047567     0.6444191745
  103      H     -14.2478244333     0.6988185418     0.7193633296
  104      C     -15.4849173395     1.8682875233    -0.7725490146
  105      H     -15.3577125915     2.7654300185    -1.3917253186
  106      C     -16.6491795677     2.0686654500     0.2489837311
  107      H     -15.7078153226     1.0554681360    -1.4745711886
  108      H     -16.6125887476     3.1163890399     0.5723680087
  109      H     -16.5338249982     1.3914293521     1.1048859398
  110      H     -17.6032386258     1.9457362143    -0.2811574922
 ----------------------------------------------------------------

   10   -5663.4938175874      4.02E-06 Convergence criterion met
 Total energy in the final basis set = -5663.4938175874

                    Orbital Energies (a.u.)
 --------------------------------------------------------------

 Alpha MOs
 -- Occupied --
-88.985 -88.982 -88.936 -88.930 -88.926 -88.913 -88.906 -88.903
-14.384 -14.382 -14.372 -14.366 -14.347 -14.343 -14.341 -14.341
-14.324 -14.319 -10.271 -10.265 -10.264 -10.254 -10.248 -10.245
-10.244 -10.244 -10.243 -10.237 -10.237 -10.237 -10.237 -10.236
-10.231 -10.231 -10.230 -10.229 -10.229 -10.227 -10.224 -10.221
-10.221 -10.219 -10.219 -10.218 -10.218 -10.208 -10.206 -10.205
-10.205 -10.204 -10.204 -10.201 -10.198 -10.192 -10.189 -10.187
-10.185 -10.180 -10.180 -10.180 -10.179 -10.179 -10.177 -10.174
-10.174 -10.174 -10.173 -10.171  -8.040  -8.038  -7.996  -7.989
 -7.987  -7.971  -7.966  -7.962  -6.005  -6.003  -6.000  -5.998
 -5.997  -5.995  -5.959  -5.957  -5.954  -5.953  -5.951  -5.950
 -5.948  -5.946  -5.944  -5.936  -5.932  -5.930  -5.928  -5.927
 -5.927  -5.923  -5.922  -5.918  -1.037  -1.035  -0.983  -0.977
 -0.949  -0.939  -0.936  -0.926  -0.916  -0.907  -0.906  -0.892
 -0.850  -0.830  -0.828  -0.826  -0.813  -0.811  -0.811  -0.806
 -0.804  -0.803  -0.792  -0.790  -0.782  -0.781  -0.767  -0.767
 -0.749  -0.747  -0.740  -0.737  -0.733  -0.712  -0.712  -0.705
 -0.697  -0.688  -0.670  -0.668  -0.652  -0.650  -0.641  -0.638
 -0.634  -0.628  -0.623  -0.620  -0.608  -0.607  -0.599  -0.598
 -0.596  -0.590  -0.585  -0.583  -0.579  -0.577  -0.575  -0.573
 -0.552  -0.539  -0.536  -0.532  -0.525  -0.520  -0.517  -0.509
 -0.507  -0.501  -0.496  -0.495  -0.485  -0.485  -0.480  -0.476
 -0.472  -0.470  -0.467  -0.466  -0.465  -0.463  -0.449  -0.447
 -0.440  -0.439  -0.436  -0.436  -0.435  -0.432  -0.431  -0.431
 -0.427  -0.426  -0.424  -0.421  -0.419  -0.414  -0.413  -0.411
 -0.409  -0.405  -0.403  -0.403  -0.401  -0.399  -0.397  -0.394
 -0.390  -0.389  -0.388  -0.386  -0.384  -0.383  -0.382  -0.380
 -0.379  -0.376  -0.374  -0.368  -0.365  -0.358  -0.357  -0.354
 -0.352  -0.350  -0.345  -0.344  -0.342  -0.342  -0.341  -0.339
 -0.338  -0.336  -0.336  -0.331  -0.328  -0.322  -0.320  -0.319
 -0.319  -0.317  -0.315  -0.306  -0.301  -0.296  -0.295  -0.293
 -0.293  -0.292  -0.290  -0.287  -0.286  -0.283  -0.280  -0.272
 -0.270  -0.263  -0.262  -0.258  -0.252  -0.249  -0.247  -0.245
 -0.244  -0.235  -0.233  -0.226  -0.195  -0.187

          Ground-State Mulliken Net Atomic Charges

     Atom                 Charge (a.u.)
  ----------------------------------------
      1 C                     0.278774
      2 C                    -0.105614
      3 N                    -0.495898
      4 C                    -0.079752
      5 C                     0.073276
      6 C                     0.042324
      7 C                    -0.010808
      8 C                     0.059434
      9 C                     0.266615
     10 N                    -0.551579
     11 N                    -0.538838
     12 C                     0.205640
     13 C                     0.319113
     14 S                     0.585829
     15 N                    -0.586623
     16 C                    -0.234668
     17 S                     0.353928
     18 C                    -0.107765
     19 C                    -0.240045
     20 S                     0.267393
     21 C                     0.164452
     22 C                     0.090176
     23 C                    -0.305248
     24 C                    -0.037608
     25 N                    -0.429110
     26 S                     0.253034
     27 C                     0.115160
     28 C                    -0.309642
     29 C                    -0.239307
     30 H                     0.084517
     31 H                     0.089899
     32 H                     0.118023
     33 H                     0.137600
     34 H                     0.133514
     35 H                     0.120278
     36 H                     0.119087
     37 H                     0.134004
     38 H                     0.116882
     39 C                    -0.188540
     40 H                     0.102932
     41 H                     0.110860
     42 H                     0.092632
     43 C                    -0.172880
     44 H                     0.100084
     45 C                    -0.185509
     46 H                     0.097714
     47 H                     0.094047
     48 H                     0.090831
     49 C                    -0.178945
     50 H                     0.093405
     51 C                    -0.322813
     52 H                     0.091493
     53 H                     0.103056
     54 H                     0.100704
     55 H                     0.099234
     56 C                     0.260685
     57 C                    -0.113882
     58 N                    -0.489874
     59 C                    -0.068074
     60 C                     0.104943
     61 C                     0.033544
     62 C                     0.057048
     63 C                     0.049022
     64 C                     0.205237
     65 N                    -0.533958
     66 N                    -0.561565
     67 C                     0.222713
     68 C                     0.323234
     69 S                     0.609011
     70 N                    -0.562848
     71 C                    -0.216810
     72 S                     0.348594
     73 C                    -0.110806
     74 C                    -0.215257
     75 S                     0.265024
     76 C                     0.113400
     77 C                     0.094280
     78 C                    -0.312597
     79 C                    -0.068186
     80 N                    -0.434690
     81 S                     0.284174
     82 C                     0.145806
     83 C                    -0.320667
     84 C                    -0.224470
     85 H                     0.084518
     86 H                     0.096144
     87 H                     0.102750
     88 H                     0.108022
     89 H                     0.130040
     90 H                     0.110628
     91 H                     0.122641
     92 H                     0.117343
     93 H                     0.114423
     94 C                    -0.157177
     95 H                     0.089185
     96 H                     0.112196
     97 H                     0.093392
     98 C                    -0.177738
     99 H                     0.096364
    100 C                    -0.181744
    101 H                     0.092092
    102 H                     0.095285
    103 H                     0.092057
    104 C                    -0.180896
    105 H                     0.092859
    106 C                    -0.319092
    107 H                     0.091585
    108 H                     0.104699
    109 H                     0.105627
    110 H                     0.097012
  ----------------------------------------
  Sum of atomic charges =     0.000000

                    Cartesian Multipole Moments
 -----------------------------------------------------------------
    Charge (ESU x 10^10)
                 0.0000
    Dipole Moment (Debye)
         X       2.0665      Y      -0.0428      Z      -0.5143
       Tot       2.1299
    Quadrupole Moments (Debye-Ang)
        XX    -414.3959     XY      -8.1883     YY    -387.5763
        XZ      13.6348     YZ      -4.5356     ZZ    -436.1812

 Total job time:  94.48s(wall), 1124.18s(cpu)
        *  Thank you very much for using Q-Chem.  Have a nice day.  *
