 Q-Chem 4.4, Q-Chem, Inc., Pleasanton, CA (2016)
 Q-Chem 4.4.2 for Intel X86 Linux

User input:
--------------------------------------------------------------
$comment
SP
$end

$rem
MEM_STATIC 5000
MEM_TOTAL 20000
JOBTYPE SP
EXCHANGE B3LYP
BASIS 6-31g(d,p)
$end

$molecule
0 1
C         -17.861000     22.141000     -5.438000
C         -18.497000     22.139000     -4.105000
N         -17.845000     21.041000     -6.233000
C         -19.061000     20.942000     -3.684000
C         -18.499000     19.980000     -5.793000
C         -19.065000     19.852000     -4.538000
C         -19.758000     18.617000     -4.120000
C         -20.673000     18.014000     -5.043000
C         -19.469000     17.822000     -2.959000
N         -21.314000     16.882000     -4.745000
N         -18.533000     18.127000     -2.061000
C         -20.243000     16.705000     -2.692000
C         -21.157000     16.262000     -3.630000
S         -18.674000     16.950000     -0.897000
N         -19.855000     16.101000     -1.540000
C         -22.050000     15.112000     -3.282000
S         -22.400000     14.521000     -1.605000
C         -22.976000     14.574000     -4.095000
C         -23.764000     13.529000     -2.177000
S         -23.126000     14.834000     -5.786000
C         -23.912000     13.768000     -3.550000
C         -24.314000     12.449000     -1.398000
C         -24.488000     13.709000     -5.875000
C         -24.754000     13.185000     -4.599000
N         -25.187000     11.663000     -1.962000
S         -23.718000     11.979000      0.152000
C         -25.397000     10.538000     -1.109000
C         -24.644000     10.527000      0.003000
C         -17.166000     23.370000     -6.018000
H         -18.470000     23.042000     -3.501000
H         -19.638000     20.897000     -2.765000
H         -18.531000     19.182000     -6.532000
H         -20.915000     18.308000     -6.063000
H         -24.912000     13.477000     -6.842000
H         -25.342000     12.277000     -4.532000
H         -26.038000      9.808000     -1.588000
H         -24.417000      9.719000      0.687000
H         -16.150000     23.378000     -5.605000
C         -17.833000     24.675000     -5.700000
H         -17.102000     23.241000     -7.106000
H         -17.218000     25.498000     -6.084000
H         -17.815000     24.768000     -4.608000
C         -19.263000     24.852000     -6.154000
H         -19.912000     24.228000     -5.528000
C         -19.411000     24.522000     -7.598000
H         -19.467000     25.909000     -5.946000
H         -20.473000     24.634000     -7.848000
H         -19.153000     23.476000     -7.809000
C         -18.635000     25.413000     -8.615000
H         -19.019000     26.433000     -8.743000
C         -18.600000     24.759000     -9.973000
H         -17.590000     25.379000     -8.285000
H         -18.264000     25.423000    -10.779000
H         -19.524000     24.269000    -10.305000
H         -17.940000     23.884000     -9.988000
C         -24.183000     22.885000     -7.722000
C         -23.013000     22.786000     -6.891000
N         -24.387000     22.009000     -8.751000
C         -22.020000     21.863000     -7.324000
C         -23.497000     21.040000     -8.977000
C         -22.310000     20.914000     -8.311000
C         -21.346000     19.886000     -8.719000
C         -19.912000     20.100000     -8.622000
C         -21.757000     18.590000     -9.025000
N         -19.093000     19.154000     -9.141000
N         -23.052000     18.193000     -8.858000
C         -20.878000     17.624000     -9.403000
C         -19.534000     17.947000     -9.539000
S         -23.054000     16.601000     -9.217000
N         -21.431000     16.398000     -9.509000
C         -18.409000     17.101000    -10.036000
S         -16.574000     17.244000     -9.699000
C         -18.633000     16.352000    -11.185000
C         -16.181000     16.134000    -11.084000
S         -20.015000     16.188000    -12.136000
C         -17.398000     15.876000    -11.768000
C         -14.874000     15.862000    -11.706000
C         -19.040000     15.479000    -13.376000
C         -17.693000     15.340000    -13.063000
N         -13.919000     16.613000    -11.267000
S         -14.481000     14.784000    -13.044000
C         -12.759000     16.377000    -11.921000
C         -12.871000     15.442000    -12.942000
C         -25.268000     23.897000     -7.348000
H         -22.768000     23.450000     -6.068000
H         -21.044000     21.855000     -6.847000
H         -23.852000     20.384000     -9.769000
H         -19.497000     21.088000     -8.427000
H         -19.528000     15.339000    -14.331000
H         -16.914000     15.148000    -13.794000
H         -11.829000     16.855000    -11.643000
H         -12.110000     14.962000    -13.543000
H         -25.889000     23.415000     -6.582000
C         -26.117000     24.242000     -8.616000
H         -24.850000     24.813000     -6.913000
H         -26.719000     23.362000     -8.876000
H         -25.559000     24.352000     -9.553000
C         -27.091000     25.458000     -8.470000
H         -26.592000     26.351000     -8.074000
C         -28.263000     25.140000     -7.450000
H         -27.447000     25.689000     -9.483000
H         -27.831000     24.744000     -6.522000
H         -28.890000     24.370000     -7.915000
C         -29.076000     26.380000     -7.098000
H         -29.821000     26.314000     -6.295000
C         -29.999000     26.787000     -8.355000
H         -28.351000     27.158000     -6.830000
H         -30.287000     25.792000     -8.717000
H         -29.352000     27.314000     -9.067000
H         -30.901000     27.332000     -8.050000
$end

--------------------------------------------------------------

             Standard Nuclear Orientation (Angstroms)
    I     Atom           X                Y                Z
 ----------------------------------------------------------------
    1      C      -2.5772576528    -0.8238606426     4.3270188409
    2      C      -1.4730056844    -1.6731317569     4.8176869210
    3      N      -2.3863635008     0.1413800850     3.3920585421
    4      C      -0.2115378869    -1.4209035991     4.2949767220
    5      C      -1.1735491927     0.2369114970     2.8753456591
    6      C      -0.0605960131    -0.4581369656     3.3112445632
    7      C       1.2656916912    -0.2705546083     2.6899782879
    8      C       1.3397963267    -0.2385784461     1.2595066776
    9      C       2.4834381667     0.0921964445     3.3600321627
   10      N       2.4999842295    -0.0447542459     0.6290265354
   11      N       2.5839245479     0.2753623690     4.6760404192
   12      C       3.6556222628     0.1928108157     2.6293371557
   13      C       3.6128841193     0.1265119287     1.2490230941
   14      S       4.1963166280     0.5839053713     4.9311854678
   15      N       4.7083717189     0.5038844232     3.4277203928
   16      C       4.8999276384     0.1406426534     0.4845806159
   17      S       6.5355040337    -0.2323874893     1.1700354779
   18      C       5.0084477614     0.0893554041    -0.8546288528
   19      C       7.2494652159    -0.3693855891    -0.4557673856
   20      S       3.7447006074     0.3314326610    -1.9921360978
   21      C       6.2132638919    -0.2091991766    -1.3857034746
   22      C       8.6697749213    -0.2921544882    -0.6848889637
   23      C       4.8718521578     0.1347570473    -3.3410015786
   24      C       6.1656631681    -0.1007642033    -2.8469461059
   25      N       9.0939022018    -0.2217679612    -1.9150039123
   26      S       9.8344940900    -0.0436889704     0.5642347870
   27      C      10.4844351614     0.0996489533    -1.8939502840
   28      C      10.9982226770     0.2942293671    -0.6684565666
   29      C      -4.0093318065    -0.9568091466     4.8382470810
   30      H      -1.6753999098    -2.4226458014     5.5780942294
   31      H       0.6234075764    -2.0749903129     4.5285396560
   32      H      -1.1303229511     0.9561085118     2.0599708091
   33      H       0.5351051079    -0.2872182410     0.5277237776
   34      H       4.5113515049     0.2831802439    -4.3493164273
   35      H       7.0041761516     0.0555119367    -3.5156543717
   36      H      10.8538214422     0.2700326584    -2.8978153988
   37      H      11.9232586042     0.7673827425    -0.3640170544
   38      H      -4.0638134918    -0.3777773452     5.7681088551
   39      C      -4.4481367549    -2.3643471183     5.1127012217
   40      H      -4.6770964603    -0.4971418186     4.0984651437
   41      H      -5.4523660742    -2.3501728134     5.5535328941
   42      H      -3.7801564735    -2.7446302064     5.8941256369
   43      C      -4.4109166103    -3.3399336030     3.9597959040
   44      H      -3.3650608931    -3.5803763974     3.7343494996
   45      C      -5.1165068717    -2.7898899680     2.7700335820
   46      H      -4.9080702653    -4.2299009165     4.3634361204
   47      H      -5.0172083092    -3.5283844221     1.9652642134
   48      H      -4.6460904735    -1.8683895496     2.4029554006
   49      C      -6.6442667180    -2.5143638798     2.9127964155
   50      H      -7.2851601302    -3.4038169886     2.9614667490
   51      C      -7.1353979971    -1.6529551031     1.7770719832
   52      H      -6.7360724493    -1.8625993505     3.7896405899
   53      H      -8.2282593219    -1.6023006118     1.6963487077
   54      H      -6.7354175642    -1.8804443143     0.7808971431
   55      H      -6.7762112627    -0.6208915060     1.8623926804
   56      C      -2.5736124580    -5.0276341575    -0.9707307708
   57      C      -2.3249624434    -4.3990786089     0.2990538931
   58      N      -2.6184464978    -4.2898129887    -2.1202710404
   59      C      -2.3227412832    -2.9758919773     0.2976834674
   60      C      -2.4129943564    -2.9719013953    -2.0651761260
   61      C      -2.2630180968    -2.2637252236    -0.9056957978
   62      C      -2.1647756412    -0.8004709070    -0.9478766567
   63      C      -2.7038339005     0.0336361743     0.1128978576
   64      C      -1.3765130384    -0.1557709863    -1.8992846035
   65      N      -2.6881827420     1.3763075731    -0.0660617920
   66      N      -0.5826855613    -0.8547377337    -2.7617267305
   67      C      -1.2719077112     1.1988186109    -1.9524423754
   68      C      -2.0114236131     1.9704736913    -1.0654104326
   69      S       0.2349517471     0.2834931178    -3.5979376852
   70      N      -0.3497142893     1.6380518360    -2.8337791252
   71      C      -2.1460629423     3.4555754416    -0.9968900541
   72      S      -2.6054339683     4.5427520238     0.4550976662
   73      C      -2.3497588633     4.1337898655    -2.1926789849
   74      C      -2.9268262248     5.9576732427    -0.6401096027
   75      S      -2.4360151350     3.5638364283    -3.7766404538
   76      C      -2.8238639054     5.4825200804    -1.9739526343
   77      C      -3.5860841964     7.2365836954    -0.3256513686
   78      C      -3.1139668380     5.0818065813    -4.2531423983
   79      C      -3.2447017174     6.0177527082    -3.2340191287
   80      N      -4.0975628210     7.2842340875     0.8596190886
   81      S      -3.8970976667     8.6164776438    -1.3772883365
   82      C      -4.7549541516     8.4468653886     1.0720740161
   83      C      -4.7848029375     9.2847250749    -0.0353148930
   84      C      -2.6451283675    -6.5547365990    -1.0346729946
   85      H      -2.2911124237    -4.9082938262     1.2570747899
   86      H      -2.3105782517    -2.4339573119     1.2391333488
   87      H      -2.3958369029    -2.5541807621    -3.0695864477
   88      H      -3.3633112466    -0.3751307097     0.8773540463
   89      H      -3.5069501492     5.1223101256    -5.2599654116
   90      H      -3.8604609114     6.9091065334    -3.3003137237
   91      H      -5.1852642928     8.7027645503     2.0312490791
   92      H      -5.1156383005    10.3102737228    -0.1328850391
   93      H      -1.6084267871    -6.9101576145    -1.0950611957
   94      C      -3.4552155641    -6.9850283865    -2.3020552225
   95      H      -3.0960074293    -6.9879282568    -0.1335303537
   96      H      -2.8511003062    -6.7570357617    -3.1894492264
   97      H      -4.3393959476    -6.3808006895    -2.5356508980
   98      C      -3.8517725674    -8.4971167099    -2.3726204075
   99      H      -4.3397273411    -8.8469359544    -1.4545830253
  100      C      -2.5754914145    -9.4211161507    -2.5527299633
  101      H      -4.5731132397    -8.5867873923    -3.1959628655
  102      H      -1.8261596697    -9.1456584178    -1.7995706352
  103      H      -2.1745811659    -9.2193277629    -3.5531330916
  104      C      -2.9011156236   -10.8989793890    -2.3728352069
  105      H      -2.0762134523   -11.6215430498    -2.3324846949
  106      C      -3.7211839355   -11.4244602235    -3.6569632598
  107      H      -3.4716354191   -10.9774418602    -1.4395165027
  108      H      -3.2104744821   -10.8715331149    -4.4553744739
  109      H      -4.7598152749   -11.0964419057    -3.5268443754
  110      H      -3.5875488254   -12.5004346689    -3.8245181771
 ----------------------------------------------------------------

   10   -5663.4772072168      4.05E-06 Convergence criterion met
 Total energy in the final basis set = -5663.4772072168

                    Orbital Energies (a.u.)
 --------------------------------------------------------------

 Alpha MOs
 -- Occupied --
-88.991 -88.990 -88.926 -88.922 -88.922 -88.921 -88.910 -88.899
-14.386 -14.382 -14.381 -14.379 -14.342 -14.342 -14.338 -14.335
-14.332 -14.325 -10.266 -10.264 -10.257 -10.256 -10.254 -10.249
-10.248 -10.248 -10.241 -10.241 -10.241 -10.240 -10.239 -10.237
-10.236 -10.236 -10.228 -10.227 -10.227 -10.227 -10.226 -10.226
-10.224 -10.222 -10.221 -10.221 -10.217 -10.216 -10.212 -10.210
-10.210 -10.209 -10.209 -10.207 -10.205 -10.203 -10.201 -10.197
-10.191 -10.185 -10.179 -10.179 -10.178 -10.178 -10.176 -10.176
-10.175 -10.174 -10.171 -10.167  -8.047  -8.044  -7.987  -7.985
 -7.979  -7.978  -7.972  -7.959  -6.012  -6.009  -6.006  -6.005
 -6.004  -6.002  -5.951  -5.948  -5.948  -5.945  -5.944  -5.944
 -5.942  -5.941  -5.940  -5.939  -5.936  -5.936  -5.934  -5.933
 -5.928  -5.924  -5.920  -5.916  -1.044  -1.034  -0.976  -0.974
 -0.968  -0.952  -0.946  -0.934  -0.914  -0.905  -0.905  -0.897
 -0.838  -0.836  -0.836  -0.829  -0.823  -0.814  -0.810  -0.807
 -0.806  -0.797  -0.796  -0.790  -0.785  -0.779  -0.770  -0.759
 -0.751  -0.745  -0.738  -0.737  -0.723  -0.715  -0.714  -0.702
 -0.692  -0.684  -0.677  -0.671  -0.660  -0.654  -0.648  -0.642
 -0.636  -0.636  -0.629  -0.623  -0.617  -0.608  -0.601  -0.598
 -0.592  -0.590  -0.589  -0.581  -0.580  -0.574  -0.558  -0.551
 -0.549  -0.546  -0.540  -0.536  -0.521  -0.520  -0.513  -0.513
 -0.509  -0.506  -0.499  -0.496  -0.490  -0.481  -0.478  -0.475
 -0.475  -0.472  -0.469  -0.466  -0.465  -0.459  -0.450  -0.449
 -0.447  -0.446  -0.442  -0.442  -0.436  -0.435  -0.435  -0.430
 -0.429  -0.425  -0.422  -0.422  -0.421  -0.417  -0.413  -0.412
 -0.410  -0.408  -0.405  -0.403  -0.399  -0.398  -0.397  -0.395
 -0.394  -0.394  -0.393  -0.390  -0.390  -0.387  -0.387  -0.379
 -0.378  -0.375  -0.373  -0.373  -0.367  -0.363  -0.358  -0.353
 -0.350  -0.350  -0.348  -0.343  -0.342  -0.341  -0.339  -0.336
 -0.334  -0.333  -0.332  -0.329  -0.329  -0.328  -0.323  -0.320
 -0.315  -0.309  -0.308  -0.303  -0.301  -0.301  -0.300  -0.298
 -0.295  -0.294  -0.293  -0.289  -0.284  -0.283  -0.281  -0.280
 -0.273  -0.265  -0.263  -0.262  -0.256  -0.251  -0.248  -0.247
 -0.245  -0.240  -0.234  -0.225  -0.193  -0.188

          Ground-State Mulliken Net Atomic Charges

     Atom                 Charge (a.u.)
  ----------------------------------------
      1 C                     0.251996
      2 C                    -0.121266
      3 N                    -0.479112
      4 C                    -0.060235
      5 C                     0.074870
      6 C                     0.061677
      7 C                    -0.038232
      8 C                     0.056821
      9 C                     0.256635
     10 N                    -0.515923
     11 N                    -0.569235
     12 C                     0.196705
     13 C                     0.340527
     14 S                     0.606226
     15 N                    -0.540996
     16 C                    -0.219643
     17 S                     0.301442
     18 C                    -0.110941
     19 C                    -0.256729
     20 S                     0.281198
     21 C                     0.169716
     22 C                     0.090667
     23 C                    -0.308238
     24 C                    -0.074601
     25 N                    -0.442345
     26 S                     0.268331
     27 C                     0.115588
     28 C                    -0.309929
     29 C                    -0.230326
     30 H                     0.098146
     31 H                     0.103733
     32 H                     0.115004
     33 H                     0.121158
     34 H                     0.131626
     35 H                     0.124336
     36 H                     0.115049
     37 H                     0.140781
     38 H                     0.119424
     39 C                    -0.188647
     40 H                     0.122669
     41 H                     0.098988
     42 H                     0.081546
     43 C                    -0.173055
     44 H                     0.087897
     45 C                    -0.189528
     46 H                     0.093302
     47 H                     0.093684
     48 H                     0.105516
     49 C                    -0.172404
     50 H                     0.097528
     51 C                    -0.331147
     52 H                     0.100735
     53 H                     0.098368
     54 H                     0.101672
     55 H                     0.107733
     56 C                     0.261774
     57 C                    -0.129404
     58 N                    -0.486623
     59 C                    -0.093107
     60 C                     0.093796
     61 C                     0.068108
     62 C                    -0.004048
     63 C                     0.048670
     64 C                     0.222258
     65 N                    -0.493961
     66 N                    -0.542506
     67 C                     0.237212
     68 C                     0.233076
     69 S                     0.618509
     70 N                    -0.561111
     71 C                    -0.185850
     72 S                     0.338623
     73 C                    -0.113622
     74 C                    -0.203406
     75 S                     0.292685
     76 C                     0.099267
     77 C                     0.062268
     78 C                    -0.310794
     79 C                    -0.082586
     80 N                    -0.414546
     81 S                     0.266418
     82 C                     0.125921
     83 C                    -0.317154
     84 C                    -0.227808
     85 H                     0.093709
     86 H                     0.107582
     87 H                     0.111269
     88 H                     0.137947
     89 H                     0.131345
     90 H                     0.110589
     91 H                     0.116011
     92 H                     0.133921
     93 H                     0.129198
     94 C                    -0.175608
     95 H                     0.103765
     96 H                     0.114000
     97 H                     0.099994
     98 C                    -0.188120
     99 H                     0.084486
    100 C                    -0.174803
    101 H                     0.094752
    102 H                     0.088774
    103 H                     0.092722
    104 C                    -0.182651
    105 H                     0.089743
    106 C                    -0.321624
    107 H                     0.088867
    108 H                     0.104282
    109 H                     0.109561
    110 H                     0.099467
  ----------------------------------------
  Sum of atomic charges =     0.000000

                    Cartesian Multipole Moments
 -----------------------------------------------------------------
    Charge (ESU x 10^10)
                 0.0000
    Dipole Moment (Debye)
         X       0.8974      Y       0.3192      Z       1.0940
       Tot       1.4505
    Quadrupole Moments (Debye-Ang)
        XX    -410.2623     XY      -5.0417     YY    -421.9219
        XZ       1.8504     YZ     -25.4435     ZZ    -416.9271

 Total job time:  98.70s(wall), 1192.62s(cpu)
        *  Thank you very much for using Q-Chem.  Have a nice day.  *
