 Q-Chem 4.4, Q-Chem, Inc., Pleasanton, CA (2016)
 Q-Chem 4.4.2 for Intel X86 Linux

User input:
--------------------------------------------------------------
$comment
SP
$end

$rem
MEM_STATIC 5000
MEM_TOTAL 20000
JOBTYPE SP
EXCHANGE B3LYP
BASIS 6-31g(d,p)
$end

$molecule
0 1
C         -13.564000     12.048000     -7.613000
C         -13.698000     12.763000     -6.415000
N         -13.138000     12.616000     -8.700000
C         -13.538000     14.188000     -6.422000
C         -12.759000     13.964000     -8.657000
C         -13.007000     14.811000     -7.575000
C         -12.682000     16.268000     -7.625000
C         -11.680000     16.707000     -8.538000
C         -13.287000     17.288000     -6.823000
N         -11.275000     17.941000     -8.678000
N         -14.275000     17.065000     -5.960000
C         -12.825000     18.609000     -6.984000
C         -11.817000     18.889000     -7.861000
S         -14.700000     18.545000     -5.491000
N         -13.580000     19.507000     -6.193000
C         -11.260000     20.259000     -7.952000
S         -11.800000     21.699000     -7.039000
C         -10.211000     20.670000     -8.817000
C         -10.443000     22.698000     -7.620000
S          -9.302000     19.807000     -9.991000
C          -9.719000     21.967000     -8.511000
C         -10.125000     23.986000     -7.178000
C          -8.239000     21.279000    -10.126000
C          -8.607000     22.328000     -9.313000
N         -10.650000     24.351000     -6.050000
S          -9.408000     25.270000     -8.168000
C         -10.407000     25.691000     -5.768000
C          -9.735000     26.293000     -6.813000
C         -13.774000     10.516000     -7.646000
H         -13.851000     12.217000     -5.488000
H         -13.793000     14.715000     -5.508000
H         -12.319000     14.308000     -9.592000
H         -11.267000     16.145000     -9.375000
H          -7.422000     21.285000    -10.836000
H          -8.052000     23.259000     -9.340000
H         -10.614000     26.134000     -4.803000
H          -9.411000     27.324000     -6.855000
H         -14.810000     10.217000     -7.441000
C         -12.873000      9.672000     -6.747000
H         -13.619000     10.214000     -8.688000
H         -12.950000      9.702000     -5.654000
H         -11.852000     10.002000     -6.972000
C         -12.933000      8.201000     -7.018000
H         -13.845000      7.819000     -6.543000
C         -11.660000      7.517000     -6.473000
H         -13.096000      8.099000     -8.098000
H         -11.571000      7.749000     -5.404000
H         -10.753000      7.898000     -6.959000
C         -11.689000      6.092000     -6.693000
H         -12.647000      5.580000     -6.539000
C         -10.605000      5.343000     -5.914000
H         -11.560000      5.800000     -7.744000
H          -9.658000      5.610000     -6.401000
H         -10.667000      4.257000     -6.056000
H         -10.683000      5.604000     -4.852000
C         -24.183000     22.885000     -7.722000
C         -23.013000     22.786000     -6.891000
N         -24.387000     22.009000     -8.751000
C         -22.020000     21.863000     -7.324000
C         -23.497000     21.040000     -8.977000
C         -22.310000     20.914000     -8.311000
C         -21.346000     19.886000     -8.719000
C         -19.912000     20.100000     -8.622000
C         -21.757000     18.590000     -9.025000
N         -19.093000     19.154000     -9.141000
N         -23.052000     18.193000     -8.858000
C         -20.878000     17.624000     -9.403000
C         -19.534000     17.947000     -9.539000
S         -23.054000     16.601000     -9.217000
N         -21.431000     16.398000     -9.509000
C         -18.409000     17.101000    -10.036000
S         -16.574000     17.244000     -9.699000
C         -18.633000     16.352000    -11.185000
C         -16.181000     16.134000    -11.084000
S         -20.015000     16.188000    -12.136000
C         -17.398000     15.876000    -11.768000
C         -14.874000     15.862000    -11.706000
C         -19.040000     15.479000    -13.376000
C         -17.693000     15.340000    -13.063000
N         -13.919000     16.613000    -11.267000
S         -14.481000     14.784000    -13.044000
C         -12.759000     16.377000    -11.921000
C         -12.871000     15.442000    -12.942000
C         -25.268000     23.897000     -7.348000
H         -22.768000     23.450000     -6.068000
H         -21.044000     21.855000     -6.847000
H         -23.852000     20.384000     -9.769000
H         -19.497000     21.088000     -8.427000
H         -19.528000     15.339000    -14.331000
H         -16.914000     15.148000    -13.794000
H         -11.829000     16.855000    -11.643000
H         -12.110000     14.962000    -13.543000
H         -25.889000     23.415000     -6.582000
C         -26.117000     24.242000     -8.616000
H         -24.850000     24.813000     -6.913000
H         -26.719000     23.362000     -8.876000
H         -25.559000     24.352000     -9.553000
C         -27.091000     25.458000     -8.470000
H         -26.592000     26.351000     -8.074000
C         -28.263000     25.140000     -7.450000
H         -27.447000     25.689000     -9.483000
H         -27.831000     24.744000     -6.522000
H         -28.890000     24.370000     -7.915000
C         -29.076000     26.380000     -7.098000
H         -29.821000     26.314000     -6.295000
C         -29.999000     26.787000     -8.355000
H         -28.351000     27.158000     -6.830000
H         -30.287000     25.792000     -8.717000
H         -29.352000     27.314000     -9.067000
H         -30.901000     27.332000     -8.050000
$end

--------------------------------------------------------------

             Standard Nuclear Orientation (Angstroms)
    I     Atom           X                Y                Z
 ----------------------------------------------------------------
    1      C      -5.5668843543    -3.7518799077    -1.3489622294
    2      C      -5.0943640268    -3.0919221033    -2.4915755658
    3      N      -5.6087552638    -3.1636319785    -0.1922945153
    4      C      -4.4745597888    -1.8057382486    -2.3579799132
    5      C      -5.2162706184    -1.8220309524    -0.0992542563
    6      C      -4.5751898901    -1.1228624395    -1.1238594927
    7      C      -4.0775893501     0.2725099052    -0.9333241365
    8      C      -4.6790838087     1.0730704177     0.0803825677
    9      C      -3.0374532257     0.9003962817    -1.6906249624
   10      N      -4.3660017998     2.3127320254     0.3479638714
   11      N      -2.3324972288     0.2842220632    -2.6361451234
   12      C      -2.7262284768     2.2412311736    -1.3911137799
   13      C      -3.4176923940     2.9145485294    -0.4256530663
   14      S      -1.1955565488     1.3597379642    -3.0124660460
   15      N      -1.6234059478     2.6861272331    -2.1578992557
   16      C      -3.1622083685     4.3540933051    -0.1850938185
   17      S      -1.9564142960     5.3824179561    -1.0141764844
   18      C      -3.8191952493     5.1608082051     0.7819254722
   19      C      -2.5676067070     6.8774309744    -0.2602594388
   20      S      -5.0276077317     4.7858433337     1.9431604259
   21      C      -3.5539518960     6.5466117250     0.6172938601
   22      C      -2.1618966632     8.1785782495    -0.5730646958
   23      C      -5.1463046473     6.5728020637     2.2712877482
   24      C      -4.2919085945     7.3509100372     1.5220552298
   25      N      -1.5422360320     8.3301651440    -1.7019030880
   26      S      -2.0725792257     9.5344271517     0.5655929129
   27      C      -1.0426969561     9.6188367090    -1.8566910377
   28      C      -1.2758073052    10.3695405112    -0.7217388949
   29      C      -6.2003448231    -5.1588993916    -1.4549669762
   30      H      -5.2695985576    -3.5350433958    -3.4681974882
   31      H      -3.9943479973    -1.3981485223    -3.2419579957
   32      H      -5.3912911483    -1.3994016698     0.8891349907
   33      H      -5.3130896844     0.7271444431     0.8960747705
   34      H      -5.8238745128     6.9321275735     3.0351000649
   35      H      -4.2684974335     8.4256278770     1.6632943263
   36      H      -0.6485589637     9.9861553963    -2.7948036242
   37      H      -1.0032981924    11.4056540388    -0.5737235528
   38      H      -5.4839521888    -5.9341401313    -1.7558081123
   39      C      -7.4266437728    -5.3024922751    -2.3538050983
   40      H      -6.4743687541    -5.4426902649    -0.4325352546
   41      H      -7.3637785961    -5.2018911181    -3.4434864172
   42      H      -8.1135524838    -4.5110876659    -2.0316232128
   43      C      -8.1509514323    -6.6043808162    -2.2077002008
   44      H      -7.5882050341    -7.3559063576    -2.7749910009
   45      C      -9.6018882802    -6.4548697134    -2.7154783940
   46      H      -8.0487278903    -6.8905344816    -1.1536416506
   47      H      -9.5722829654    -6.0990477112    -3.7532742449
   48      H     -10.1607414205    -5.7079814358    -2.1376833886
   49      C     -10.3289495450    -7.6962341710    -2.6141758733
   50      H      -9.7907328348    -8.6156658195    -2.8760770312
   51      C     -11.6580283957    -7.6761541755    -3.3731516322
   52      H     -10.5754793878    -7.9862041317    -1.5838135785
   53      H     -12.3112033143    -7.0045716925    -2.8007824382
   54      H     -12.1787295503    -8.6404594581    -3.3242677964
   55      H     -11.4713522757    -7.3843779560    -4.4133764464
   56      C       9.1819285957    -0.1979073703    -1.1093651320
   57      C       8.1236063171     0.4215407758    -1.8613624385
   58      N       8.9077913583    -1.1535335607    -0.1715696537
   59      C       6.7997576035     0.1185601237    -1.4358106698
   60      C       7.6434138578    -1.5275615301     0.0372116062
   61      C       6.5591325869    -0.9394419076    -0.5517284885
   62      C       5.2037947738    -1.3436476688    -0.1615732438
   63      C       4.0998636576    -0.3989638807    -0.1399022680
   64      C       4.8704100750    -2.6860297534     0.0088321012
   65      N       2.9127811498    -0.8219287202     0.3570623829
   66      N       5.7550726729    -3.6841576202    -0.2803665318
   67      C       3.6194957592    -3.0794050235     0.3682069353
   68      C       2.6535473235    -2.1146997800     0.6240358092
   69      S       4.9189304816    -5.0670125916    -0.0524907676
   70      N       3.4402504413    -4.4161620475     0.3354536970
   71      C       1.2596767324    -2.2900784137     1.1287308756
   72      S      -0.2258764100    -1.1691235061     0.9342187771
   73      C       1.0718238925    -3.1617271883     2.1947129224
   74      C      -1.1242151968    -2.0461567728     2.2489712531
   75      S       2.1724842011    -4.1273153357     3.0298221457
   76      C      -0.2177410988    -2.9760808767     2.8226042985
   77      C      -2.3660358164    -1.6546007608     2.9372171670
   78      C       0.9908523825    -4.3445880724     4.2737854906
   79      C      -0.2300511959    -3.7207223580     4.0460026497
   80      N      -2.7849626983    -0.4722083996     2.6286793707
   81      S      -3.2482003536    -2.4996457927     4.2078318307
   82      C      -3.8825390443    -0.1309242528     3.3413246512
   83      C      -4.2660809829    -1.0871447921     4.2728545013
   84      C      10.6319384553     0.1255890771    -1.4755159966
   85      H       8.2540636450     1.1979560694    -2.6086309160
   86      H       5.9600753886     0.6753545565    -1.8421144202
   87      H       7.6099349580    -2.3517622004     0.7465757006
   88      H       4.2684591590     0.6737870950    -0.2246070555
   89      H       1.3463723065    -4.8204139982     5.1776462497
   90      H      -0.9800046150    -3.5507243175     4.8119899443
   91      H      -4.4222790834     0.7908410350     3.1689951865
   92      H      -5.1556096755    -1.1559374428     4.8850050354
   93      H      10.8900939046    -0.5265637982    -2.3197750749
   94      C      11.5558364038    -0.1637617481    -0.2465576244
   95      H      10.7558043282     1.1645598615    -1.8044566518
   96      H      11.6041142563    -1.2505311285    -0.1016246648
   97      H      11.1567757485     0.1231659916     0.7331648188
   98      C      13.0236939437     0.3661286997    -0.3617025591
   99      H      13.0673506275     1.4241326023    -0.6480377404
  100      C      13.8316575796    -0.4103255865    -1.4839420631
  101      H      13.4649288016     0.2667013424     0.6391430838
  102      H      13.2399550045    -0.4192250736    -2.4082974394
  103      H      13.9628722567    -1.4390970975    -1.1280405506
  104      C      15.1722893136     0.2462682437    -1.7906407688
  105      H      15.7554558660    -0.1160067640    -2.6467152930
  106      C      16.1916034207    -0.0284821621    -0.5727992498
  107      H      14.9655325720     1.3124426357    -1.9431426230
  108      H      15.9144261617    -1.0580706682    -0.3136983524
  109      H      15.9343530077     0.6810401926     0.2232423655
  110      H      17.2400855192    -0.0102877456    -0.8953023543
 ----------------------------------------------------------------

   10   -5663.4784558617      4.59E-06 Convergence criterion met
 Total energy in the final basis set = -5663.4784558617

                    Orbital Energies (a.u.)
 --------------------------------------------------------------

 Alpha MOs
 -- Occupied --
-88.992 -88.988 -88.927 -88.926 -88.923 -88.915 -88.911 -88.910
-14.390 -14.385 -14.384 -14.380 -14.344 -14.344 -14.339 -14.336
-14.327 -14.321 -10.266 -10.260 -10.257 -10.253 -10.253 -10.251
-10.250 -10.249 -10.243 -10.242 -10.241 -10.238 -10.237 -10.231
-10.231 -10.229 -10.227 -10.227 -10.227 -10.227 -10.227 -10.226
-10.225 -10.224 -10.222 -10.221 -10.219 -10.219 -10.213 -10.212
-10.211 -10.207 -10.205 -10.205 -10.203 -10.202 -10.202 -10.193
-10.192 -10.180 -10.179 -10.177 -10.176 -10.176 -10.173 -10.172
-10.172 -10.171 -10.168 -10.167  -8.047  -8.044  -7.988  -7.987
 -7.979  -7.973  -7.972  -7.970  -6.012  -6.008  -6.006  -6.005
 -6.003  -6.002  -5.952  -5.951  -5.949  -5.948  -5.945  -5.944
 -5.944  -5.941  -5.938  -5.937  -5.935  -5.934  -5.934  -5.933
 -5.931  -5.929  -5.929  -5.926  -1.037  -1.037  -0.977  -0.971
 -0.960  -0.954  -0.936  -0.931  -0.906  -0.906  -0.900  -0.899
 -0.838  -0.836  -0.831  -0.827  -0.815  -0.810  -0.809  -0.806
 -0.806  -0.798  -0.792  -0.792  -0.780  -0.780  -0.765  -0.761
 -0.748  -0.746  -0.742  -0.738  -0.716  -0.714  -0.707  -0.704
 -0.690  -0.685  -0.675  -0.673  -0.656  -0.651  -0.646  -0.644
 -0.638  -0.630  -0.625  -0.622  -0.610  -0.603  -0.600  -0.595
 -0.592  -0.587  -0.581  -0.577  -0.576  -0.575  -0.570  -0.559
 -0.543  -0.540  -0.538  -0.537  -0.522  -0.519  -0.516  -0.514
 -0.509  -0.503  -0.498  -0.497  -0.481  -0.480  -0.478  -0.473
 -0.472  -0.471  -0.467  -0.465  -0.459  -0.452  -0.449  -0.449
 -0.447  -0.445  -0.443  -0.438  -0.437  -0.434  -0.431  -0.429
 -0.427  -0.425  -0.424  -0.420  -0.414  -0.413  -0.411  -0.409
 -0.409  -0.405  -0.400  -0.399  -0.397  -0.397  -0.396  -0.395
 -0.393  -0.392  -0.391  -0.390  -0.388  -0.386  -0.382  -0.381
 -0.380  -0.375  -0.369  -0.369  -0.364  -0.360  -0.360  -0.352
 -0.351  -0.350  -0.347  -0.344  -0.343  -0.341  -0.337  -0.336
 -0.334  -0.333  -0.330  -0.329  -0.327  -0.326  -0.321  -0.318
 -0.313  -0.310  -0.307  -0.304  -0.303  -0.302  -0.299  -0.296
 -0.295  -0.295  -0.292  -0.290  -0.284  -0.282  -0.281  -0.278
 -0.272  -0.268  -0.265  -0.257  -0.253  -0.252  -0.247  -0.244
 -0.241  -0.237  -0.228  -0.227  -0.189  -0.189

          Ground-State Mulliken Net Atomic Charges

     Atom                 Charge (a.u.)
  ----------------------------------------
      1 C                     0.290260
      2 C                    -0.120777
      3 N                    -0.495223
      4 C                    -0.084445
      5 C                     0.045514
      6 C                     0.066823
      7 C                     0.045875
      8 C                     0.074142
      9 C                     0.231979
     10 N                    -0.526309
     11 N                    -0.554264
     12 C                     0.209701
     13 C                     0.299843
     14 S                     0.622846
     15 N                    -0.548938
     16 C                    -0.231446
     17 S                     0.353960
     18 C                    -0.121868
     19 C                    -0.220545
     20 S                     0.276476
     21 C                     0.132685
     22 C                     0.064408
     23 C                    -0.314761
     24 C                    -0.062889
     25 N                    -0.429137
     26 S                     0.267115
     27 C                     0.119596
     28 C                    -0.305981
     29 C                    -0.238912
     30 H                     0.088764
     31 H                     0.119764
     32 H                     0.105246
     33 H                     0.101660
     34 H                     0.121537
     35 H                     0.118378
     36 H                     0.122352
     37 H                     0.127932
     38 H                     0.101723
     39 C                    -0.176209
     40 H                     0.116741
     41 H                     0.089345
     42 H                     0.098952
     43 C                    -0.180009
     44 H                     0.092431
     45 C                    -0.153722
     46 H                     0.091236
     47 H                     0.088462
     48 H                     0.097336
     49 C                    -0.179298
     50 H                     0.087419
     51 C                    -0.317381
     52 H                     0.089686
     53 H                     0.100986
     54 H                     0.095754
     55 H                     0.100889
     56 C                     0.261363
     57 C                    -0.124504
     58 N                    -0.485344
     59 C                    -0.090209
     60 C                     0.092590
     61 C                     0.069835
     62 C                    -0.001905
     63 C                     0.058772
     64 C                     0.232054
     65 N                    -0.498590
     66 N                    -0.544813
     67 C                     0.233539
     68 C                     0.242825
     69 S                     0.610131
     70 N                    -0.560457
     71 C                    -0.187280
     72 S                     0.331005
     73 C                    -0.113384
     74 C                    -0.200567
     75 S                     0.292434
     76 C                     0.099321
     77 C                     0.065842
     78 C                    -0.310556
     79 C                    -0.081179
     80 N                    -0.419458
     81 S                     0.275933
     82 C                     0.111876
     83 C                    -0.316399
     84 C                    -0.228082
     85 H                     0.093816
     86 H                     0.096088
     87 H                     0.111844
     88 H                     0.121503
     89 H                     0.131977
     90 H                     0.111207
     91 H                     0.128355
     92 H                     0.136139
     93 H                     0.129011
     94 C                    -0.175502
     95 H                     0.104833
     96 H                     0.113591
     97 H                     0.100251
     98 C                    -0.188421
     99 H                     0.085186
    100 C                    -0.174723
    101 H                     0.095080
    102 H                     0.088542
    103 H                     0.092434
    104 C                    -0.182789
    105 H                     0.089865
    106 C                    -0.321588
    107 H                     0.089289
    108 H                     0.104072
    109 H                     0.109745
    110 H                     0.099698
  ----------------------------------------
  Sum of atomic charges =     0.000000

                    Cartesian Multipole Moments
 -----------------------------------------------------------------
    Charge (ESU x 10^10)
                 0.0000
    Dipole Moment (Debye)
         X       0.1746      Y       1.6375      Z       0.2770
       Tot       1.6700
    Quadrupole Moments (Debye-Ang)
        XX    -441.6796     XY       0.7146     YY    -396.2266
        XZ     -20.0279     YZ      -0.7758     ZZ    -420.0808

 Total job time:  89.67s(wall), 1051.27s(cpu)
        *  Thank you very much for using Q-Chem.  Have a nice day.  *
