 Q-Chem 4.4, Q-Chem, Inc., Pleasanton, CA (2016)
 Q-Chem 4.4.2 for Intel X86 Linux

User input:
--------------------------------------------------------------
$comment
SP
$end

$rem
MEM_STATIC 5000
MEM_TOTAL 20000
JOBTYPE SP
EXCHANGE B3LYP
BASIS 6-31g(d,p)
$end

$molecule
0 1
C          20.078000     12.422000     -7.602000
C          21.343000     12.016000     -7.806000
N          19.146000     12.422000     -8.546000
C          21.676000     11.272000     -8.960000
C          19.384000     11.744000     -9.658000
C          20.649000     11.152000     -9.901000
C          20.891000     10.224000    -11.043000
C          22.197000     10.112000    -11.631000
C          19.911000      9.261000    -11.510000
N          22.598000      9.186000    -12.518000
N          18.638000      9.215000    -11.178000
C          20.293000      8.400000    -12.491000
C          21.629000      8.321000    -12.919000
S          17.942000      7.924000    -11.954000
N          19.285000      7.575000    -12.878000
C          22.124000      7.345000    -13.895000
S          21.049000      6.276000    -14.843000
C          23.437000      6.992000    -14.142000
C          22.511000      5.577000    -15.697000
S          24.899000      7.926000    -13.659000
C          23.630000      6.097000    -15.131000
C          22.392000      4.770000    -16.839000
C          25.814000      6.990000    -14.900000
C          24.945000      6.164000    -15.633000
N          23.466000      4.233000    -17.397000
S          20.994000      4.780000    -17.813000
C          23.139000      3.633000    -18.596000
C          21.858000      3.784000    -18.957000
C          19.754000     13.190000     -6.314000
H          22.115000     12.252000     -7.080000
H          22.649000     10.802000     -9.070000
H          18.557000     11.698000    -10.366000
H          23.016000     10.682000    -11.192000
H          26.895000      7.040000    -14.892000
H          25.208000      5.606000    -16.525000
H          23.898000      3.143000    -19.192000
H          21.333000      3.280000    -19.759000
H          20.467000     13.956000     -5.984000
C          19.428000     12.237000     -5.109000
H          18.877000     13.826000     -6.484000
H          18.576000     11.602000     -5.383000
H          19.207000     12.919000     -4.279000
C          20.615000     11.309000     -4.629000
H          20.300000     10.590000     -3.863000
C          21.844000     12.155000     -4.171000
H          20.988000     10.711000     -5.470000
H          21.492000     12.764000     -3.328000
H          22.348000     12.710000     -4.972000
C          22.940000     11.245000     -3.682000
H          23.789000     11.805000     -3.269000
C          23.594000     10.447000     -4.779000
H          22.542000     10.611000     -2.880000
H          22.888000      9.693000     -5.150000
H          24.465000      9.868000     -4.446000
H          23.818000     11.049000     -5.668000
C          26.228000      2.202000      0.891000
C          26.401000      1.599000     -0.304000
N          26.635000      3.465000      1.127000
C          26.953000      2.312000     -1.401000
C          26.999000      4.180000     -0.008000
C          27.154000      3.677000     -1.313000
C          27.483000      4.527000     -2.480000
C          28.251000      4.009000     -3.536000
C          27.038000      5.878000     -2.647000
N          28.375000      4.530000     -4.738000
N          26.488000      6.609000     -1.695000
C          27.249000      6.545000     -3.828000
C          27.970000      5.834000     -4.877000
S          26.393000      8.112000     -2.285000
N          26.982000      7.854000     -3.773000
C          28.286000      6.506000     -6.116000
S          27.716000      8.204000     -6.599000
C          28.758000      5.871000     -7.205000
C          28.112000      7.836000     -8.264000
S          29.225000      4.174000     -7.414000
C          28.637000      6.567000     -8.393000
C          27.766000      8.712000     -9.393000
C          29.420000      4.478000     -9.126000
C          29.091000      5.801000     -9.515000
N          28.219000      8.366000    -10.598000
S          26.587000     10.044000     -9.383000
C          27.771000      9.203000    -11.617000
C          26.914000     10.131000    -11.098000
C          25.732000      1.365000      2.062000
H          26.187000      0.543000     -0.435000
H          27.036000      1.752000     -2.328000
H          27.220000      5.222000      0.222000
H          28.766000      3.059000     -3.397000
H          29.689000      3.681000     -9.806000
H          29.016000      6.148000    -10.539000
H          28.182000      9.126000    -12.616000
H          26.520000     10.970000    -11.654000
H          25.380000      2.055000      2.839000
C          26.764000      0.355000      2.638000
H          24.806000      0.823000      1.832000
H          27.414000      1.052000      3.182000
H          27.383000     -0.144000      1.881000
C          26.167000     -0.632000      3.606000
H          25.201000     -0.255000      3.964000
C          27.167000     -1.059000      4.710000
H          25.814000     -1.478000      3.003000
H          26.677000     -1.854000      5.284000
H          27.353000     -0.116000      5.239000
C          28.471000     -1.729000      4.159000
H          28.227000     -2.694000      3.698000
C          29.548000     -1.830000      5.187000
H          28.803000     -1.092000      3.330000
H          30.484000     -2.013000      4.648000
H          29.235000     -2.635000      5.865000
H          29.694000     -0.903000      5.756000
$end

--------------------------------------------------------------

             Standard Nuclear Orientation (Angstroms)
    I     Atom           X                Y                Z
 ----------------------------------------------------------------
    1      C       3.0634876368     6.5194476043    -0.2808197082
    2      C       2.7001067473     5.4988033031     0.5147408109
    3      N       4.2130273564     6.5616242201    -0.9415311174
    4      C       3.3864719888     4.2655163252     0.4511248916
    5      C       4.9139599515     5.4433418359    -1.0464596938
    6      C       4.5274650051     4.2665962659    -0.3568007056
    7      C       5.1760335795     2.9464876543    -0.6029389958
    8      C       5.2326184784     1.9540791569     0.4342917034
    9      C       5.6169755950     2.5061760400    -1.9134937720
   10      N       5.6019984016     0.6700487046     0.2933297579
   11      N       5.7283760324     3.2505123205    -2.9935041627
   12      C       6.0966055144     1.2382517278    -2.0227140950
   13      C       6.0109860438     0.3267441083    -0.9568134589
   14      S       6.2485355668     2.2873199716    -4.2404875458
   15      N       6.5184760122     0.9503451979    -3.2819174594
   16      C       6.4129768649    -1.0807603576    -1.0434827044
   17      S       7.2809008470    -1.7669629403    -2.4480908266
   18      C       6.0884968365    -2.1047815884    -0.1741840042
   19      C       7.3402106963    -3.3928981238    -1.6065576302
   20      S       5.4646966719    -1.9179101489     1.5048161207
   21      C       6.6272528597    -3.3079429852    -0.4544331805
   22      C       8.1459399132    -4.4437965633    -2.0713015371
   23      C       5.9761501863    -3.6216103622     1.8035181222
   24      C       6.6599244238    -4.1330322103     0.6874417424
   25      N       8.1204101788    -5.6249182368    -1.4733811201
   26      S       9.4796022031    -4.1765108440    -3.0974999783
   27      C       9.1101738097    -6.4436381973    -1.9779557738
   28      C       9.9028645178    -5.8565549254    -2.8840781017
   29      C       2.2622335202     7.8257684160    -0.2082815959
   30      H       1.8711577197     5.6150485379     1.2061788450
   31      H       3.0161200652     3.3836706139     0.9658253813
   32      H       5.8041849932     5.5041058452    -1.6718524586
   33      H       4.7476782387     2.1685630582     1.3867682753
   34      H       5.6266719075    -4.1165901206     2.7001702127
   35      H       7.1939191159    -5.0763500474     0.6528277717
   36      H       9.2374086923    -7.4504548616    -1.6017530501
   37      H      10.6343757316    -6.3289630847    -3.5279467802
   38      H       1.9704596567     8.1905398132     0.7846105636
   39      C       1.0002460478     7.8122883635    -1.1430093144
   40      H       2.9018767106     8.6593475584    -0.5221723449
   41      H       1.3289020854     7.6390482877    -2.1755683128
   42      H       0.5461503326     8.7997205924    -0.9959050156
   43      C      -0.1090289003     6.7450708728    -0.7809196610
   44      H      -0.9107846431     6.7054777880    -1.5282897945
   45      C      -0.6607879306     6.9706709507     0.6615045406
   46      H       0.3306702211     5.7400671638    -0.7554986539
   47      H      -1.1057999041     7.9743607425     0.6592362272
   48      H       0.0585583359     6.7786689132     1.4673073493
   49      C      -1.7423525989     5.9659915253     0.9602922922
   50      H      -2.2171738169     6.1465823259     1.9333810721
   51      C      -1.2298421671     4.5586527938     1.1173265308
   52      H      -2.5222587315     6.0469607141     0.1929889527
   53      H      -0.9001281192     4.1811306877     0.1409256367
   54      H      -1.9949777068     3.8430576075     1.4448355159
   55      H      -0.3247765619     4.5013713395     1.7341539663
   56      C      -9.7177721494    -0.3763402454    -2.1488285970
   57      C      -8.8980483711    -1.4433630058    -2.2540823670
   58      N      -9.6698957116     0.4690754150    -1.1002609035
   59      C      -7.8817534966    -1.6729220180    -1.2892355459
   60      C      -8.5568819637     0.3172987312    -0.2816582923
   61      C      -7.6020984506    -0.7151185804    -0.3322738800
   62      C      -6.4069960407    -0.7630656341     0.5406873504
   63      C      -5.8816573607    -1.9997971757     0.9503193381
   64      C      -5.6906459547     0.3911072050     0.9943861623
   65      N      -4.6898414612    -2.2071300805     1.4682082529
   66      N      -6.1292565166     1.6324292787     0.8948608668
   67      C      -4.5009275857     0.2589056868     1.6661479958
   68      C      -4.0262986556    -1.0953953440     1.9237505900
   69      S      -5.1046737299     2.5383937031     1.7583378931
   70      N      -4.0543452770     1.3922388849     2.2174329528
   71      C      -2.8181194734    -1.3017070075     2.6881454887
   72      S      -1.6709351305     0.0327642979     3.2751271056
   73      C      -2.2017751475    -2.4936735380     2.7942843690
   74      C      -0.4332423943    -1.1784971051     3.5309151119
   75      S      -2.6980748716    -4.0840806273     2.1894117591
   76      C      -0.8868792988    -2.4427855949     3.2172031843
   77      C       0.9595785058    -0.8555601766     3.8736900824
   78      C      -1.1429303735    -4.7152920944     2.6838636517
   79      C      -0.2759262314    -3.7382322838     3.2348164120
   80      N       1.7754493680    -1.8740981119     4.1455084232
   81      S       1.7553545843     0.7269861236     3.7104337179
   82      C       3.0919156522    -1.4807776174     4.3732133008
   83      C       3.2019679282    -0.1328741336     4.1833746989
   84      C     -10.8571027373    -0.2341364813    -3.1485935199
   85      H      -9.0389745876    -2.1833281452    -3.0355453501
   86      H      -7.2576054331    -2.5440729380    -1.4663040907
   87      H      -8.5108228542     1.0873759743     0.4879939656
   88      H      -6.4715039818    -2.9019703129     0.7915408945
   89      H      -0.8741271068    -5.7456022243     2.4936641775
   90      H       0.7690790285    -3.8975710725     3.4739505943
   91      H       3.8218515098    -2.1862105241     4.7505845478
   92      H       4.0887118070     0.4410708324     4.4126463052
   93      H     -11.2181223169     0.8006293473    -3.0970421557
   94      C     -12.0260883830    -1.2430032766    -2.9681486542
   95      H     -10.5142152175    -0.2817497362    -4.1898913287
   96      H     -12.5091099930    -0.8033108071    -2.0863291395
   97      H     -11.7118732902    -2.2587357172    -2.6947122184
   98      C     -12.9977948677    -1.2529120754    -4.1184922217
   99      H     -12.8796212859    -0.3336275584    -4.7053482359
  100      C     -14.4452084402    -1.5761880747    -3.6694581715
  101      H     -12.6068936367    -1.9772167295    -4.8441043741
  102      H     -15.0416205478    -1.6711164197    -4.5842708339
  103      H     -14.6847220116    -0.7296491360    -3.0139499149
  104      C     -14.5944952065    -2.9674240523    -2.9658297782
  105      H     -14.4032001057    -3.7713852229    -3.6871720136
  106      C     -15.8982914778    -3.1194667954    -2.2559619826
  107      H     -13.7677510966    -3.0254469605    -2.2472467845
  108      H     -15.7849418211    -3.9596470005    -1.5621644054
  109      H     -16.6490654267    -3.2633422882    -3.0441981910
  110      H     -16.1651727693    -2.2472482136    -1.6457037406
 ----------------------------------------------------------------

   10   -5663.5036105080      5.96E-06 Convergence criterion met
 Total energy in the final basis set = -5663.5036105080

                    Orbital Energies (a.u.)
 --------------------------------------------------------------

 Alpha MOs
 -- Occupied --
-88.994 -88.990 -88.935 -88.927 -88.925 -88.923 -88.911 -88.906
-14.389 -14.388 -14.379 -14.378 -14.356 -14.351 -14.346 -14.340
-14.329 -14.326 -10.277 -10.265 -10.264 -10.263 -10.255 -10.254
-10.253 -10.251 -10.246 -10.244 -10.242 -10.240 -10.239 -10.237
-10.236 -10.234 -10.228 -10.228 -10.227 -10.227 -10.227 -10.227
-10.225 -10.223 -10.221 -10.221 -10.220 -10.219 -10.216 -10.214
-10.212 -10.208 -10.207 -10.202 -10.195 -10.195 -10.194 -10.190
-10.184 -10.182 -10.181 -10.180 -10.179 -10.178 -10.177 -10.175
-10.175 -10.174 -10.172 -10.170  -8.049  -8.046  -7.995  -7.987
 -7.985  -7.981  -7.970  -7.964  -6.014  -6.011  -6.009  -6.006
 -6.005  -6.003  -5.959  -5.956  -5.952  -5.951  -5.950  -5.948
 -5.946  -5.946  -5.944  -5.942  -5.942  -5.938  -5.934  -5.931
 -5.929  -5.926  -5.925  -5.920  -1.052  -1.036  -0.975  -0.965
 -0.962  -0.961  -0.951  -0.930  -0.915  -0.914  -0.909  -0.898
 -0.840  -0.835  -0.834  -0.834  -0.815  -0.813  -0.811  -0.808
 -0.807  -0.805  -0.802  -0.797  -0.790  -0.782  -0.767  -0.765
 -0.753  -0.752  -0.739  -0.738  -0.729  -0.722  -0.710  -0.708
 -0.695  -0.693  -0.681  -0.675  -0.660  -0.653  -0.647  -0.643
 -0.643  -0.636  -0.628  -0.624  -0.618  -0.610  -0.598  -0.597
 -0.594  -0.592  -0.585  -0.585  -0.583  -0.580  -0.560  -0.558
 -0.557  -0.554  -0.544  -0.541  -0.525  -0.523  -0.514  -0.510
 -0.509  -0.506  -0.497  -0.496  -0.488  -0.485  -0.480  -0.479
 -0.475  -0.473  -0.471  -0.469  -0.468  -0.464  -0.451  -0.449
 -0.448  -0.445  -0.439  -0.437  -0.435  -0.434  -0.433  -0.432
 -0.431  -0.429  -0.426  -0.421  -0.421  -0.419  -0.417  -0.414
 -0.414  -0.411  -0.410  -0.408  -0.406  -0.400  -0.400  -0.398
 -0.395  -0.395  -0.393  -0.390  -0.390  -0.388  -0.387  -0.386
 -0.383  -0.379  -0.374  -0.371  -0.369  -0.362  -0.359  -0.355
 -0.354  -0.351  -0.350  -0.347  -0.346  -0.345  -0.342  -0.338
 -0.337  -0.336  -0.333  -0.332  -0.330  -0.325  -0.324  -0.316
 -0.311  -0.309  -0.309  -0.306  -0.304  -0.304  -0.303  -0.300
 -0.299  -0.297  -0.293  -0.291  -0.290  -0.285  -0.284  -0.281
 -0.278  -0.273  -0.271  -0.265  -0.256  -0.255  -0.253  -0.251
 -0.249  -0.248  -0.231  -0.229  -0.193  -0.192

          Ground-State Mulliken Net Atomic Charges

     Atom                 Charge (a.u.)
  ----------------------------------------
      1 C                     0.283617
      2 C                    -0.104769
      3 N                    -0.472761
      4 C                    -0.076127
      5 C                     0.097228
      6 C                     0.012459
      7 C                     0.005931
      8 C                     0.055914
      9 C                     0.273932
     10 N                    -0.513437
     11 N                    -0.573650
     12 C                     0.237826
     13 C                     0.306041
     14 S                     0.605913
     15 N                    -0.581774
     16 C                    -0.210711
     17 S                     0.306304
     18 C                    -0.157821
     19 C                    -0.235058
     20 S                     0.277109
     21 C                     0.204907
     22 C                     0.067900
     23 C                    -0.319472
     24 C                    -0.062849
     25 N                    -0.451448
     26 S                     0.271497
     27 C                     0.131899
     28 C                    -0.309023
     29 C                    -0.244624
     30 H                     0.088928
     31 H                     0.112598
     32 H                     0.119538
     33 H                     0.099962
     34 H                     0.131698
     35 H                     0.125378
     36 H                     0.115957
     37 H                     0.133040
     38 H                     0.103364
     39 C                    -0.181846
     40 H                     0.114485
     41 H                     0.102283
     42 H                     0.092749
     43 C                    -0.183632
     44 H                     0.093618
     45 C                    -0.166777
     46 H                     0.099165
     47 H                     0.090484
     48 H                     0.089964
     49 C                    -0.173996
     50 H                     0.086056
     51 C                    -0.326687
     52 H                     0.089913
     53 H                     0.104559
     54 H                     0.107165
     55 H                     0.093643
     56 C                     0.275147
     57 C                    -0.100698
     58 N                    -0.485519
     59 C                    -0.097551
     60 C                     0.055369
     61 C                     0.065166
     62 C                     0.043937
     63 C                     0.047835
     64 C                     0.224356
     65 N                    -0.508697
     66 N                    -0.551628
     67 C                     0.217518
     68 C                     0.287323
     69 S                     0.603857
     70 N                    -0.557941
     71 C                    -0.224203
     72 S                     0.310461
     73 C                    -0.113124
     74 C                    -0.239347
     75 S                     0.306668
     76 C                     0.167317
     77 C                     0.070262
     78 C                    -0.317643
     79 C                    -0.052750
     80 N                    -0.444108
     81 S                     0.265903
     82 C                     0.143480
     83 C                    -0.305784
     84 C                    -0.255700
     85 H                     0.087636
     86 H                     0.097426
     87 H                     0.116501
     88 H                     0.108807
     89 H                     0.129653
     90 H                     0.126069
     91 H                     0.125275
     92 H                     0.130845
     93 H                     0.114681
     94 C                    -0.166693
     95 H                     0.096605
     96 H                     0.106906
     97 H                     0.098748
     98 C                    -0.187630
     99 H                     0.091018
    100 C                    -0.172135
    101 H                     0.085582
    102 H                     0.089086
    103 H                     0.097141
    104 C                    -0.181550
    105 H                     0.092020
    106 C                    -0.305321
    107 H                     0.094788
    108 H                     0.100923
    109 H                     0.102577
    110 H                     0.104576
  ----------------------------------------
  Sum of atomic charges =     0.000000

                    Cartesian Multipole Moments
 -----------------------------------------------------------------
    Charge (ESU x 10^10)
                 0.0000
    Dipole Moment (Debye)
         X       2.7554      Y      -2.1643      Z      -0.8940
       Tot       3.6160
    Quadrupole Moments (Debye-Ang)
        XX    -434.6716     XY     -15.8844     YY    -432.6158
        XZ       4.4204     YZ      15.1029     ZZ    -430.6112

 Total job time:  91.56s(wall), 1079.76s(cpu)
        *  Thank you very much for using Q-Chem.  Have a nice day.  *
