 Q-Chem 4.4, Q-Chem, Inc., Pleasanton, CA (2016)
 Q-Chem 4.4.2 for Intel X86 Linux

User input:
--------------------------------------------------------------
$comment
SP
$end

$rem
MEM_STATIC 5000
MEM_TOTAL 20000
JOBTYPE SP
EXCHANGE B3LYP
BASIS 6-31g(d,p)
$end

$molecule
0 1
C          17.259000     15.213000    -13.091000
C          18.184000     14.177000    -13.305000
N          17.360000     16.038000    -12.056000
C          19.307000     14.022000    -12.518000
C          18.370000     15.834000    -11.178000
C          19.442000     14.950000    -11.430000
C          20.653000     14.788000    -10.556000
C          20.632000     15.261000     -9.222000
C          21.924000     14.432000    -11.030000
N          21.744000     15.251000     -8.435000
N          22.234000     14.061000    -12.301000
C          23.033000     14.417000    -10.171000
C          22.907000     14.856000     -8.872000
S          23.778000     13.777000    -12.364000
N          24.149000     13.896000    -10.749000
C          23.957000     14.625000     -7.865000
S          25.431000     13.690000     -8.132000
C          23.837000     14.954000     -6.546000
C          25.685000     13.455000     -6.502000
S          22.741000     16.095000     -5.717000
C          24.764000     14.257000     -5.810000
C          26.833000     12.736000     -5.984000
C          23.566000     15.540000     -4.199000
C          24.625000     14.642000     -4.431000
N          27.639000     12.197000     -6.908000
S          26.976000     12.176000     -4.391000
C          28.499000     11.397000     -6.314000
C          28.219000     11.151000     -4.997000
C          16.012000     15.363000    -14.044000
H          17.984000     13.580000    -14.190000
H          20.016000     13.212000    -12.664000
H          18.544000     16.581000    -10.407000
H          19.672000     15.601000     -8.838000
H          23.133000     15.988000     -3.314000
H          25.355000     14.320000     -3.696000
H          29.364000     11.077000     -6.879000
H          28.791000     10.591000     -4.268000
H          15.444000     14.424000    -14.051000
C          16.350000     15.757000    -15.527000
H          15.296000     16.051000    -13.579000
H          17.195000     15.196000    -15.944000
H          16.615000     16.820000    -15.572000
C          15.162000     15.428000    -16.492000
H          14.991000     14.353000    -16.362000
C          15.386000     15.890000    -17.956000
H          14.200000     15.747000    -16.072000
H          16.275000     15.408000    -18.381000
H          15.665000     16.950000    -17.942000
C          14.220000     15.781000    -18.936000
H          13.372000     16.364000    -18.555000
C          13.882000     14.251000    -19.221000
H          14.457000     16.196000    -19.924000
H          14.802000     13.677000    -19.391000
H          13.253000     14.234000    -20.121000
H          13.253000     13.771000    -18.462000
C          26.228000      2.202000      0.891000
C          26.401000      1.599000     -0.304000
N          26.635000      3.465000      1.127000
C          26.953000      2.312000     -1.401000
C          26.999000      4.180000     -0.008000
C          27.154000      3.677000     -1.313000
C          27.483000      4.527000     -2.480000
C          28.251000      4.009000     -3.536000
C          27.038000      5.878000     -2.647000
N          28.375000      4.530000     -4.738000
N          26.488000      6.609000     -1.695000
C          27.249000      6.545000     -3.828000
C          27.970000      5.834000     -4.877000
S          26.393000      8.112000     -2.285000
N          26.982000      7.854000     -3.773000
C          28.286000      6.506000     -6.116000
S          27.716000      8.204000     -6.599000
C          28.758000      5.871000     -7.205000
C          28.112000      7.836000     -8.264000
S          29.225000      4.174000     -7.414000
C          28.637000      6.567000     -8.393000
C          27.766000      8.712000     -9.393000
C          29.420000      4.478000     -9.126000
C          29.091000      5.801000     -9.515000
N          28.219000      8.366000    -10.598000
S          26.587000     10.044000     -9.383000
C          27.771000      9.203000    -11.617000
C          26.914000     10.131000    -11.098000
C          25.732000      1.365000      2.062000
H          26.187000      0.543000     -0.435000
H          27.036000      1.752000     -2.328000
H          27.220000      5.222000      0.222000
H          28.766000      3.059000     -3.397000
H          29.689000      3.681000     -9.806000
H          29.016000      6.148000    -10.539000
H          28.182000      9.126000    -12.616000
H          26.520000     10.970000    -11.654000
H          25.380000      2.055000      2.839000
C          26.764000      0.355000      2.638000
H          24.806000      0.823000      1.832000
H          27.414000      1.052000      3.182000
H          27.383000     -0.144000      1.881000
C          26.167000     -0.632000      3.606000
H          25.201000     -0.255000      3.964000
C          27.167000     -1.059000      4.710000
H          25.814000     -1.478000      3.003000
H          26.677000     -1.854000      5.284000
H          27.353000     -0.116000      5.239000
C          28.471000     -1.729000      4.159000
H          28.227000     -2.694000      3.698000
C          29.548000     -1.830000      5.187000
H          28.803000     -1.092000      3.330000
H          30.484000     -2.013000      4.648000
H          29.235000     -2.635000      5.865000
H          29.694000     -0.903000      5.756000
$end

--------------------------------------------------------------

             Standard Nuclear Orientation (Angstroms)
    I     Atom           X                Y                Z
 ----------------------------------------------------------------
    1      C      10.6737160379    -1.5171127903     2.6903790522
    2      C       9.7694090128    -0.4415130815     2.6959531672
    3      N      10.4644304956    -2.6029538252     1.9560767925
    4      C       8.6705196113    -0.4026026438     1.8620160825
    5      C       9.3248863956    -2.6668603967     1.2280965769
    6      C       8.4756060800    -1.5563618458     1.0289486069
    7      C       7.2772411180    -1.5356021465     0.1233375134
    8      C       6.7076106781    -2.7512476492    -0.3254978394
    9      C       6.8135027959    -0.3917962064    -0.5426262544
   10      N       5.7033215193    -2.7814775249    -1.2455535117
   11      N       7.2794069527     0.8759041715    -0.3843509610
   12      C       5.7603709539    -0.4751641643    -1.4656376882
   13      C       5.2382353670    -1.7020093240    -1.8094739618
   14      S       6.4729087673     1.8167448857    -1.3502393746
   15      N       5.3298289404     0.7416483927    -1.8957327658
   16      C       3.9802647610    -1.8305999392    -2.5650428920
   17      S       2.9342967871    -0.4862635551    -3.0307688671
   18      C       3.3743139650    -3.0211170407    -2.8441390473
   19      C       1.6130473657    -1.4754308715    -3.2598736173
   20      S       4.0161640425    -4.6878640813    -2.8620493966
   21      C       2.0583067792    -2.8037333996    -3.1723210692
   22      C       0.3297212033    -0.9752988326    -3.7138900315
   23      C       2.3214660674    -5.1683812232    -3.2980265170
   24      C       1.4561003025    -4.0731664507    -3.4806619329
   25      N       0.2490084762     0.3537367381    -3.8590895747
   26      S      -1.1203642011    -1.8493969826    -3.6438704322
   27      C      -1.0088531677     0.6891527903    -4.0532960545
   28      C      -1.9000456827    -0.3271120632    -3.8379204555
   29      C      11.9319360179    -1.4914616178     3.6400855855
   30      H      10.0649697617     0.3827508363     3.3385003152
   31      H       7.9557384101     0.4153387982     1.8745313504
   32      H       9.2080462506    -3.4846859626     0.5208231331
   33      H       7.0849437913    -3.6658256788     0.1281790825
   34      H       2.2090155291    -6.2425153130    -3.3687996294
   35      H       0.4587349879    -4.1177992656    -3.9050194957
   36      H      -1.2141853608     1.6829772599    -4.4274639500
   37      H      -2.9721678261    -0.3414632299    -3.9881641034
   38      H      11.6020070204    -1.3568771618     4.6780778209
   39      C      12.9980452196    -0.3871574381     3.3043886262
   40      H      12.3657333050    -2.4978631773     3.6747383597
   41      H      12.5554211050     0.5918457844     3.0846806758
   42      H      13.5705898352    -0.6882193115     2.4190788434
   43      C      13.9417403084    -0.1128440077     4.5229950931
   44      H      13.2653196035     0.1767463856     5.3356195046
   45      C      15.0871516913     0.8906159776     4.2263188016
   46      H      14.2834105360    -1.0461178068     4.9876094186
   47      H      14.6795455383     1.8628325752     3.9231322067
   48      H      15.6131914676     0.5537263160     3.3255277550
   49      C      16.1673475556     1.0905140638     5.2870047353
   50      H      16.6484293389     0.1272771424     5.4988748631
   51      C      15.5529487808     1.8070115899     6.5697808032
   52      H      16.9669322558     1.7651482950     4.9552352954
   53      H      14.9082311551     2.6443809066     6.2732545640
   54      H      16.4042165135     2.1741680438     7.1583973045
   55      H      15.0332995855     1.1369040282     7.2647934430
   56      C     -10.4246249341    -1.7926319748     2.7878644774
   57      C     -10.0924834151    -0.5481411232     3.1909618992
   58      N      -9.9736080061    -2.3208964337     1.6328604115
   59      C      -9.1741333462     0.2340610688     2.4417790899
   60      C      -8.9473926808    -1.6047972340     1.0278562444
   61      C      -8.4735955820    -0.3309222096     1.3922979152
   62      C      -7.3276208272     0.3324015452     0.7294453993
   63      C      -7.2925332041     1.7319948871     0.6145918578
   64      C      -6.1880581023    -0.3575179885     0.2035910154
   65      N      -6.2382820201     2.4638284767     0.3237395960
   66      N      -6.1180953669    -1.6642776856     0.0285215731
   67      C      -5.0949477513     0.3378455061    -0.2500061305
   68      C      -5.1635320989     1.7935299987    -0.2048193480
   69      S      -4.7602346978    -1.9302977955    -0.8090831693
   70      N      -4.2039170100    -0.4109788012    -0.9081257054
   71      C      -4.0751054598     2.5823675294    -0.7336140167
   72      S      -2.4597222105     1.9141327159    -1.3544136557
   73      C      -3.9621417021     3.9105721254    -0.5464196239
   74      C      -1.7719034951     3.5179704938    -1.2163021175
   75      S      -5.0798818242     5.0445182205     0.2322987288
   76      C      -2.7020492848     4.4330735163    -0.7690412675
   77      C      -0.3409810753     3.8052567589    -1.3942364604
   78      C      -3.8576559573     6.2883483044     0.0893454048
   79      C      -2.6408318902     5.8345035785    -0.4792099174
   80      N       0.0350626943     5.0838547142    -1.3672484613
   81      S       0.9904909840     2.6257304354    -1.3779635541
   82      C       1.4143224934     5.2552049373    -1.4562175986
   83      C       2.0228355189     4.0328235646    -1.4783462568
   84      C     -11.4925038268    -2.5478345344     3.5670497984
   85      H     -10.5678677618    -0.0931436683     4.0541420884
   86      H      -8.9513342345     1.2144444903     2.8529079052
   87      H      -8.5484205240    -2.1241901691     0.1569043531
   88      H      -8.1958702701     2.3016611260     0.8302502017
   89      H      -4.0239914415     7.2807310973     0.4861815159
   90      H      -1.7240983279     6.4105098434    -0.5284679975
   91      H       1.8406429030     6.2407409949    -1.5970032075
   92      H       3.0772769478     3.8839772969    -1.6635247157
   93      H     -11.4197219548    -3.6071138256     3.2907109079
   94      C     -12.9435116590    -2.0210888816     3.3826174587
   95      H     -11.2750434349    -2.5991134379     4.6413967871
   96      H     -13.1500769408    -2.4101312928     2.3775195597
   97      H     -13.0272208808    -0.9276336227     3.3320273106
   98      C     -13.9277021988    -2.6089452105     4.3590374083
   99      H     -13.5078498873    -3.5233144991     4.7961893734
  100      C     -15.3487113536    -2.7489206071     3.7571363613
  101      H     -13.9040905924    -1.9624359262     5.2452666322
  102      H     -16.0030554505    -3.0731590695     4.5746351212
  103      H     -15.1912249116    -3.4658627574     2.9417358623
  104      C     -15.9709835388    -1.3932401801     3.2798262869
  105      H     -16.1612995867    -0.7463759741     4.1450594931
  106      C     -17.1739010538    -1.5811612790     2.4169305153
  107      H     -15.1791259355    -0.8876502165     2.7136334533
  108      H     -17.3422549940    -0.6315636892     1.8972889386
  109      H     -17.9794098174    -1.8906157911     3.0959530016
  110      H     -17.0350615472    -2.3409127023     1.6372463702
 ----------------------------------------------------------------

   10   -5663.5018944762      3.07E-06 Convergence criterion met
 Total energy in the final basis set = -5663.5018944762

                    Orbital Energies (a.u.)
 --------------------------------------------------------------

 Alpha MOs
 -- Occupied --
-88.994 -88.989 -88.935 -88.927 -88.924 -88.920 -88.913 -88.909
-14.388 -14.386 -14.383 -14.378 -14.350 -14.347 -14.341 -14.340
-14.332 -14.328 -10.270 -10.267 -10.264 -10.258 -10.256 -10.253
-10.251 -10.251 -10.244 -10.243 -10.237 -10.235 -10.235 -10.233
-10.233 -10.231 -10.231 -10.230 -10.228 -10.226 -10.226 -10.225
-10.224 -10.224 -10.221 -10.221 -10.219 -10.219 -10.218 -10.212
-10.211 -10.210 -10.207 -10.206 -10.204 -10.198 -10.193 -10.193
-10.189 -10.189 -10.184 -10.183 -10.181 -10.181 -10.178 -10.177
-10.175 -10.175 -10.174 -10.170  -8.050  -8.045  -7.997  -7.987
 -7.982  -7.980  -7.971  -7.968  -6.015  -6.011  -6.009  -6.008
 -6.005  -6.003  -5.961  -5.958  -5.955  -5.951  -5.948  -5.946
 -5.944  -5.944  -5.943  -5.940  -5.939  -5.937  -5.936  -5.933
 -5.933  -5.929  -5.927  -5.925  -1.052  -1.046  -0.988  -0.969
 -0.961  -0.959  -0.942  -0.930  -0.919  -0.914  -0.907  -0.904
 -0.843  -0.839  -0.837  -0.833  -0.824  -0.812  -0.807  -0.807
 -0.801  -0.799  -0.798  -0.794  -0.783  -0.782  -0.769  -0.763
 -0.751  -0.750  -0.741  -0.737  -0.728  -0.726  -0.709  -0.706
 -0.694  -0.692  -0.675  -0.673  -0.659  -0.654  -0.653  -0.643
 -0.636  -0.634  -0.629  -0.623  -0.613  -0.608  -0.607  -0.598
 -0.596  -0.587  -0.587  -0.584  -0.578  -0.577  -0.570  -0.560
 -0.551  -0.550  -0.544  -0.542  -0.531  -0.527  -0.523  -0.508
 -0.506  -0.505  -0.500  -0.493  -0.491  -0.484  -0.481  -0.479
 -0.478  -0.472  -0.467  -0.464  -0.463  -0.460  -0.454  -0.448
 -0.445  -0.444  -0.441  -0.437  -0.436  -0.435  -0.431  -0.430
 -0.427  -0.423  -0.422  -0.420  -0.419  -0.418  -0.414  -0.412
 -0.412  -0.409  -0.408  -0.407  -0.402  -0.399  -0.398  -0.396
 -0.395  -0.392  -0.392  -0.390  -0.389  -0.388  -0.385  -0.385
 -0.384  -0.382  -0.374  -0.371  -0.363  -0.362  -0.359  -0.357
 -0.357  -0.354  -0.352  -0.350  -0.348  -0.346  -0.344  -0.340
 -0.338  -0.336  -0.334  -0.334  -0.332  -0.331  -0.321  -0.318
 -0.316  -0.314  -0.311  -0.309  -0.306  -0.305  -0.303  -0.303
 -0.301  -0.298  -0.295  -0.289  -0.286  -0.285  -0.281  -0.277
 -0.275  -0.270  -0.267  -0.263  -0.255  -0.253  -0.252  -0.251
 -0.249  -0.244  -0.233  -0.228  -0.193  -0.190

          Ground-State Mulliken Net Atomic Charges

     Atom                 Charge (a.u.)
  ----------------------------------------
      1 C                     0.267042
      2 C                    -0.109803
      3 N                    -0.479777
      4 C                    -0.053384
      5 C                     0.060707
      6 C                     0.037582
      7 C                     0.027377
      8 C                     0.052432
      9 C                     0.220910
     10 N                    -0.537303
     11 N                    -0.536091
     12 C                     0.204427
     13 C                     0.336126
     14 S                     0.603092
     15 N                    -0.586122
     16 C                    -0.258872
     17 S                     0.368347
     18 C                    -0.091078
     19 C                    -0.204708
     20 S                     0.277095
     21 C                     0.119678
     22 C                     0.057687
     23 C                    -0.305672
     24 C                    -0.087102
     25 N                    -0.418757
     26 S                     0.294264
     27 C                     0.131234
     28 C                    -0.307785
     29 C                    -0.237291
     30 H                     0.085196
     31 H                     0.120969
     32 H                     0.100496
     33 H                     0.118960
     34 H                     0.132729
     35 H                     0.101602
     36 H                     0.123607
     37 H                     0.135184
     38 H                     0.105199
     39 C                    -0.178274
     40 H                     0.120778
     41 H                     0.097946
     42 H                     0.106801
     43 C                    -0.182235
     44 H                     0.092120
     45 C                    -0.172910
     46 H                     0.090824
     47 H                     0.088957
     48 H                     0.089917
     49 C                    -0.180178
     50 H                     0.095703
     51 C                    -0.320606
     52 H                     0.095891
     53 H                     0.104239
     54 H                     0.097287
     55 H                     0.105686
     56 C                     0.273910
     57 C                    -0.100448
     58 N                    -0.485361
     59 C                    -0.097697
     60 C                     0.055110
     61 C                     0.064864
     62 C                     0.041724
     63 C                     0.047314
     64 C                     0.224983
     65 N                    -0.509790
     66 N                    -0.552881
     67 C                     0.217786
     68 C                     0.288304
     69 S                     0.592632
     70 N                    -0.560687
     71 C                    -0.236807
     72 S                     0.327890
     73 C                    -0.115352
     74 C                    -0.247977
     75 S                     0.302602
     76 C                     0.167594
     77 C                     0.055635
     78 C                    -0.320062
     79 C                    -0.052948
     80 N                    -0.446137
     81 S                     0.313741
     82 C                     0.132467
     83 C                    -0.316130
     84 C                    -0.254851
     85 H                     0.087337
     86 H                     0.097228
     87 H                     0.115293
     88 H                     0.108051
     89 H                     0.127605
     90 H                     0.125576
     91 H                     0.123613
     92 H                     0.125638
     93 H                     0.114391
     94 C                    -0.167265
     95 H                     0.096405
     96 H                     0.106753
     97 H                     0.098763
     98 C                    -0.187109
     99 H                     0.090990
    100 C                    -0.172386
    101 H                     0.085527
    102 H                     0.089052
    103 H                     0.097095
    104 C                    -0.181756
    105 H                     0.092134
    106 C                    -0.305272
    107 H                     0.094840
    108 H                     0.100881
    109 H                     0.102560
    110 H                     0.104486
  ----------------------------------------
  Sum of atomic charges =     0.000000

                    Cartesian Multipole Moments
 -----------------------------------------------------------------
    Charge (ESU x 10^10)
                 0.0000
    Dipole Moment (Debye)
         X       1.2326      Y       2.2236      Z       0.8673
       Tot       2.6862
    Quadrupole Moments (Debye-Ang)
        XX    -438.0412     XY      14.4310     YY    -435.9148
        XZ       0.3199     YZ      10.7390     ZZ    -435.8221

 Total job time:  89.81s(wall), 1056.73s(cpu)
        *  Thank you very much for using Q-Chem.  Have a nice day.  *
