 Q-Chem 4.4, Q-Chem, Inc., Pleasanton, CA (2016)
 Q-Chem 4.4.2 for Intel X86 Linux

User input:
--------------------------------------------------------------
$comment
SP
$end

$rem
MEM_STATIC 5000
MEM_TOTAL 20000
JOBTYPE SP
EXCHANGE B3LYP
BASIS 6-31g(d,p)
$end

$molecule
0 1
C          12.019000     -0.800000     -9.545000
C          10.913000      0.020000     -9.608000
N          13.236000     -0.230000     -9.656000
C          11.005000      1.440000     -9.758000
C          13.356000      1.108000     -9.945000
C          12.291000      2.064000     -9.969000
C          12.403000      3.612000    -10.112000
C          11.325000      4.519000    -10.101000
C          13.649000      4.335000    -10.220000
N          11.433000      5.877000    -10.133000
N          14.855000      3.750000    -10.018000
C          13.717000      5.674000    -10.272000
C          12.601000      6.573000    -10.249000
S          16.002000      4.826000    -10.303000
N          15.013000      6.145000    -10.305000
C          12.620000      8.071000    -10.165000
S          14.065000      9.047000    -10.157000
C          11.534000      8.940000    -10.050000
C          13.231000     10.515000     -9.959000
S           9.860000      8.515000     -9.976000
C          11.928000     10.258000     -9.868000
C          13.837000     11.813000     -9.650000
C           9.647000     10.250000     -9.431000
C          10.798000     11.065000     -9.508000
N          13.131000     12.934000     -9.901000
S          15.445000     12.041000     -8.991000
C          13.974000     13.997000     -9.845000
C          15.227000     13.698000     -9.507000
C          11.994000     -2.310000     -9.203000
H          10.034000     -0.454000     -9.179000
H          10.097000      2.030000     -9.681000
H          14.330000      1.452000    -10.291000
H          10.293000      4.184000    -10.185000
H           8.595000     10.448000     -9.269000
H          10.811000     12.128000     -9.293000
H          13.560000     14.947000    -10.157000
H          16.121000     14.304000     -9.567000
H          10.965000     -2.659000     -9.053000
C          12.910000     -2.588000     -7.945000
H          12.369000     -2.907000    -10.045000
H          12.698000     -1.968000     -7.067000
H          13.937000     -2.396000     -8.281000
C          12.808000     -4.129000     -7.559000
H          11.804000     -4.402000     -7.209000
C          13.911000     -4.747000     -6.590000
H          12.809000     -4.696000     -8.497000
H          13.516000     -4.492000     -5.598000
H          14.862000     -4.216000     -6.715000
C          14.068000     -6.294000     -6.634000
H          13.077000     -6.761000     -6.581000
C          14.960000     -6.649000     -5.459000
H          14.580000     -6.598000     -7.556000
H          14.610000     -6.284000     -4.486000
H          15.899000     -6.112000     -5.641000
H          15.220000     -7.702000     -5.296000
C           9.551000      0.524000     -6.779000
C           9.594000     -0.851000     -6.559000
N           8.577000      1.133000     -7.508000
C           8.642000     -1.704000     -7.097000
C           7.708000      0.356000     -8.161000
C           7.713000     -1.074000     -7.977000
C           6.810000     -1.913000     -8.852000
C           6.768000     -1.673000    -10.279000
C           6.114000     -3.064000     -8.384000
N           5.994000     -2.344000    -11.084000
N           6.122000     -3.509000     -7.120000
C           5.353000     -3.807000     -9.264000
C           5.294000     -3.475000    -10.647000
S           5.235000     -4.890000     -7.156000
N           4.780000     -4.831000     -8.733000
C           4.390000     -4.085000    -11.593000
S           3.038000     -5.158000    -11.183000
C           4.562000     -4.010000    -12.951000
C           2.697000     -5.470000    -12.907000
S           5.589000     -3.088000    -13.975000
C           3.623000     -4.793000    -13.661000
C           1.631000     -6.325000    -13.385000
C           4.779000     -3.702000    -15.393000
C           3.827000     -4.611000    -15.055000
N           1.743000     -6.705000    -14.631000
S           0.346000     -6.979000    -12.440000
C           0.706000     -7.538000    -14.933000
C          -0.185000     -7.738000    -13.919000
C          10.538000      1.500000     -6.125000
H          10.404000     -1.252000     -5.956000
H           8.741000     -2.741000     -6.789000
H           6.990000      0.876000     -8.793000
H           7.476000     -0.956000    -10.694000
H           5.102000     -3.351000    -16.364000
H           3.283000     -5.099000    -15.855000
H           0.663000     -7.952000    -15.933000
H          -0.974000     -8.479000    -13.933000
H          11.383000      1.495000     -6.824000
C          10.856000      1.354000     -4.640000
H          10.151000      2.519000     -6.245000
H          11.744000      1.972000     -4.459000
H          11.084000      0.296000     -4.460000
C           9.659000      1.755000     -3.786000
H           9.381000      2.809000     -3.913000
C          10.019000      1.581000     -2.306000
H           8.784000      1.187000     -4.126000
H           9.281000      2.098000     -1.679000
H          11.012000      2.027000     -2.168000
C           9.966000      0.088000     -1.901000
H           9.025000     -0.348000     -2.259000
C          10.312000     -0.242000     -0.398000
H          10.706000     -0.458000     -2.500000
H          11.256000      0.188000     -0.043000
H          10.220000     -1.321000     -0.229000
H           9.515000      0.117000      0.264000
$end

--------------------------------------------------------------

             Standard Nuclear Orientation (Angstroms)
    I     Atom           X                Y                Z
 ----------------------------------------------------------------
    1      C       0.1113111257     2.1019667490    -2.3648927000
    2      C       0.0363771585     1.1034195401    -1.4178481540
    3      N      -1.0099890586     2.4125956282    -3.0464391739
    4      C      -1.1773184425     0.4092996772    -1.1137024588
    5      C      -2.1543855390     1.6698627569    -2.8825197505
    6      C      -2.3692650097     0.6603478612    -1.8908325576
    7      C      -3.7011155068    -0.0753501821    -1.5528685916
    8      C      -3.8722750721    -1.0446412176    -0.5448838240
    9      C      -4.9657823837     0.1844151350    -2.2009802105
   10      N      -5.0568783351    -1.6175591475    -0.1908610069
   11      N      -5.1568595753     1.2310544873    -3.0409210258
   12      C      -6.1105427168    -0.4156280129    -1.8408121936
   13      C      -6.2558403936    -1.3928514910    -0.8024919834
   14      S      -6.6407894320     1.1529987188    -3.6295376051
   15      N      -7.2014581582     0.0373438666    -2.5530382645
   16      C      -7.5222177446    -1.9920054321    -0.2651615826
   17      S      -9.1188753904    -1.6562591316    -0.8804857116
   18      C      -7.6695957197    -2.8736371849     0.8066533198
   19      C      -9.9109788848    -2.6122644728     0.2807247955
   20      S      -6.4167248500    -3.5181106386     1.8083246986
   21      C      -9.0010889581    -3.1228471887     1.1074923635
   22      C     -11.3556824988    -2.6486207825     0.5236871103
   23      C      -7.8083879906    -4.0141982308     2.8898929138
   24      C      -9.1016941076    -3.8236174849     2.3551095307
   25      N     -11.8759831290    -3.7050244359     1.1804797529
   26      S     -12.4946471499    -1.4230832006     0.0014360609
   27      C     -13.2241190033    -3.6928642037     1.0188140697
   28      C     -13.6945384683    -2.6512031131     0.3352193805
   29      C       1.3410712794     3.0101575747    -2.6109991580
   30      H       0.8572686450     1.1581850649    -0.7075694026
   31      H      -1.1846839935    -0.2805661736    -0.2755354966
   32      H      -2.9283656008     1.7833869471    -3.6406721904
   33      H      -3.0240010351    -1.5026840344    -0.0399749846
   34      H      -7.4214779235    -4.5439480730     3.7511813119
   35      H     -10.0182555102    -4.1371093152     2.8429630616
   36      H     -13.7533969629    -4.5618958763     1.3874450418
   37      H     -14.6765655084    -2.4912331037    -0.0891678116
   38      H       2.1719802539     2.7285185369    -1.9526590267
   39      C       0.9282983987     4.5263944417    -2.4391029333
   40      H       1.7328812507     2.8694415154    -3.6272087511
   41      H       0.4247315170     4.7692041928    -1.4969289470
   42      H       0.2508558674     4.7431870553    -3.2749028971
   43      C       2.2204631713     5.4393026374    -2.6151422096
   44      H       2.9511792413     5.2810063111    -1.8113752670
   45      C       2.0229438945     6.9985519109    -2.8744139555
   46      H       2.8014031148     5.0176767061    -3.4434382654
   47      H       1.9089496069     7.3896121747    -1.8550066903
   48      H       1.0800029398     7.1754624101    -3.4050287228
   49      C       3.2299446240     7.7417655048    -3.5151766204
   50      H       4.1497633057     7.4631651989    -2.9866934491
   51      C       2.9039616893     9.2199138561    -3.4096940257
   52      H       3.3130522969     7.4850842737    -4.5790618869
   53      H       2.6762704430     9.5719738353    -2.3964495007
   54      H       1.9692084808     9.3467198410    -3.9694892394
   55      H       3.6198944033     9.9459963684    -3.8137021127
   56      C       0.0247359479     2.1935337800     1.5694275993
   57      C       1.1195798786     2.9895525845     1.2399661747
   58      N       0.1316873799     0.8795975487     1.9057770772
   59      C       2.4085377728     2.4785055047     1.2121196424
   60      C       1.3258582940     0.2957538960     1.7701989925
   61      C       2.4912825857     1.0702782771     1.4228098684
   62      C       3.7814554414     0.3362127186     1.1372284295
   63      C       3.7715726693    -0.8212509597     0.2678187653
   64      C       5.0617469837     0.8188007932     1.5324540829
   65      N       4.8438199470    -1.5115913549     0.0012518615
   66      N       5.2796939037     1.9324745930     2.2452056579
   67      C       6.1956199183     0.1135215322     1.1824778948
   68      C       6.1132702337    -1.0623961279     0.3844614876
   69      S       6.9139101910     2.0535594607     2.3447123463
   70      N       7.2961688342     0.6499411114     1.5823680283
   71      C       7.2217810588    -1.9505173335     0.1262436053
   72      S       8.7997759468    -1.8924832022     0.9348826923
   73      C       7.2250217218    -2.8710172049    -0.8896513130
   74      C       9.4460543223    -3.1756596182    -0.1241657235
   75      S       6.0207818860    -3.4761745421    -1.9559439628
   76      C       8.4688221425    -3.5303600323    -1.0205617761
   77      C      10.7914865508    -3.7030524043    -0.0373672932
   78      C       7.1368741126    -4.6526437894    -2.5994330863
   79      C       8.3699022141    -4.5076586862    -2.0467577558
   80      N      11.1926944344    -4.3712727386    -1.0871167010
   81      S      11.9219488344    -3.4114469609     1.2310913346
   82      C      12.4834975169    -4.7663462814    -0.8916523872
   83      C      13.0144844196    -4.4190629148     0.3164552953
   84      C      -1.3991092488     2.7517074675     1.6941993525
   85      H       0.9432830221     4.0327593312     0.9926827300
   86      H       3.1815146565     3.2164954809     1.0174108028
   87      H       1.3566488124    -0.7727540934     1.9768160793
   88      H       2.8396304884    -1.0652624070    -0.2416124715
   89      H       6.7833089704    -5.3376968307    -3.3584225597
   90      H       9.1645705968    -5.1542363355    -2.3996309696
   91      H      12.9682720576    -5.3243710069    -1.6833891177
   92      H      14.0605323925    -4.5162937138     0.5774683412
   93      H      -1.7714636730     2.6985803620     0.6640631026
   94      C      -1.6239154364     4.0552969490     2.4543188442
   95      H      -2.0229050913     2.0044462831     2.1991839752
   96      H      -2.6408756137     4.3803156090     2.2025573132
   97      H      -0.8884561239     4.7788893669     2.0811411217
   98      C      -1.4082270057     3.8563465811     3.9499201453
   99      H      -2.1194417474     3.1462021787     4.3905986208
  100      C      -1.6319341166     5.1911272076     4.6700533329
  101      H      -0.4213069538     3.4013380052     4.1009334127
  102      H      -1.7351407618     5.0202293399     5.7494996295
  103      H      -2.5577196254     5.6177570507     4.2639533838
  104      C      -0.4085029078     6.1222478331     4.4908510506
  105      H       0.5065056383     5.5602556486     4.7159402442
  106      C      -0.4975261185     7.5359165513     5.1845661386
  107      H      -0.2855317087     6.3273407118     3.4197152071
  108      H      -1.4088191181     8.1000213363     4.9534993508
  109      H       0.4302554346     8.0912656114     5.0054717187
  110      H      -0.4413818786     7.4295794304     6.2744625745
 ----------------------------------------------------------------

    9   -5663.4919052180      9.70E-06 Convergence criterion met
 Total energy in the final basis set = -5663.4919052180

                    Orbital Energies (a.u.)
 --------------------------------------------------------------

 Alpha MOs
 -- Occupied --
-88.987 -88.987 -88.934 -88.927 -88.926 -88.921 -88.906 -88.906
-14.382 -14.380 -14.376 -14.371 -14.348 -14.346 -14.342 -14.341
-14.332 -14.323 -10.272 -10.270 -10.270 -10.263 -10.251 -10.250
-10.248 -10.248 -10.244 -10.243 -10.242 -10.240 -10.239 -10.233
-10.233 -10.231 -10.231 -10.230 -10.230 -10.227 -10.226 -10.226
-10.225 -10.224 -10.224 -10.223 -10.223 -10.222 -10.221 -10.219
-10.217 -10.212 -10.208 -10.201 -10.200 -10.199 -10.192 -10.191
-10.189 -10.185 -10.182 -10.180 -10.180 -10.180 -10.179 -10.177
-10.175 -10.174 -10.174 -10.170  -8.043  -8.043  -7.995  -7.989
 -7.985  -7.981  -7.967  -7.965  -6.008  -6.008  -6.002  -6.002
 -6.000  -6.000  -5.959  -5.956  -5.952  -5.952  -5.949  -5.949
 -5.946  -5.946  -5.945  -5.942  -5.941  -5.938  -5.932  -5.930
 -5.928  -5.927  -5.923  -5.922  -1.047  -1.035  -0.982  -0.969
 -0.953  -0.947  -0.941  -0.924  -0.920  -0.917  -0.911  -0.886
 -0.850  -0.841  -0.828  -0.822  -0.816  -0.811  -0.810  -0.806
 -0.802  -0.801  -0.795  -0.790  -0.783  -0.776  -0.764  -0.764
 -0.749  -0.747  -0.740  -0.736  -0.729  -0.718  -0.711  -0.704
 -0.693  -0.693  -0.679  -0.671  -0.654  -0.646  -0.641  -0.636
 -0.635  -0.630  -0.627  -0.618  -0.615  -0.607  -0.602  -0.595
 -0.591  -0.587  -0.585  -0.584  -0.583  -0.577  -0.573  -0.564
 -0.556  -0.554  -0.538  -0.533  -0.526  -0.521  -0.513  -0.513
 -0.504  -0.503  -0.499  -0.497  -0.489  -0.480  -0.477  -0.472
 -0.472  -0.470  -0.468  -0.467  -0.458  -0.455  -0.451  -0.446
 -0.444  -0.440  -0.439  -0.439  -0.436  -0.435  -0.434  -0.430
 -0.427  -0.424  -0.424  -0.424  -0.421  -0.416  -0.415  -0.412
 -0.409  -0.404  -0.404  -0.402  -0.401  -0.400  -0.399  -0.396
 -0.395  -0.390  -0.389  -0.387  -0.386  -0.385  -0.384  -0.381
 -0.381  -0.377  -0.374  -0.365  -0.364  -0.361  -0.354  -0.353
 -0.352  -0.350  -0.346  -0.345  -0.343  -0.340  -0.339  -0.339
 -0.338  -0.337  -0.333  -0.332  -0.331  -0.329  -0.325  -0.324
 -0.313  -0.310  -0.309  -0.306  -0.304  -0.302  -0.300  -0.300
 -0.295  -0.295  -0.293  -0.290  -0.290  -0.289  -0.282  -0.279
 -0.270  -0.267  -0.262  -0.260  -0.256  -0.253  -0.248  -0.248
 -0.242  -0.236  -0.231  -0.226  -0.196  -0.193

          Ground-State Mulliken Net Atomic Charges

     Atom                 Charge (a.u.)
  ----------------------------------------
      1 C                     0.271472
      2 C                    -0.124190
      3 N                    -0.494900
      4 C                    -0.102655
      5 C                     0.068607
      6 C                     0.044441
      7 C                     0.061206
      8 C                     0.049782
      9 C                     0.220457
     10 N                    -0.549967
     11 N                    -0.536878
     12 C                     0.162329
     13 C                     0.345920
     14 S                     0.606256
     15 N                    -0.568415
     16 C                    -0.225189
     17 S                     0.323611
     18 C                    -0.101840
     19 C                    -0.216704
     20 S                     0.273507
     21 C                     0.161313
     22 C                     0.030402
     23 C                    -0.309568
     24 C                    -0.050950
     25 N                    -0.427293
     26 S                     0.271822
     27 C                     0.144694
     28 C                    -0.315461
     29 C                    -0.225149
     30 H                     0.085364
     31 H                     0.114388
     32 H                     0.124989
     33 H                     0.117291
     34 H                     0.124773
     35 H                     0.129200
     36 H                     0.114929
     37 H                     0.129958
     38 H                     0.095978
     39 C                    -0.176588
     40 H                     0.122540
     41 H                     0.094247
     42 H                     0.129849
     43 C                    -0.200907
     44 H                     0.080394
     45 C                    -0.175861
     46 H                     0.087575
     47 H                     0.093092
     48 H                     0.095820
     49 C                    -0.173480
     50 H                     0.094131
     51 C                    -0.314614
     52 H                     0.100422
     53 H                     0.101316
     54 H                     0.102707
     55 H                     0.094483
     56 C                     0.260778
     57 C                    -0.109521
     58 N                    -0.468776
     59 C                    -0.052228
     60 C                     0.067864
     61 C                    -0.009749
     62 C                    -0.010929
     63 C                     0.083056
     64 C                     0.247980
     65 N                    -0.497031
     66 N                    -0.566964
     67 C                     0.225646
     68 C                     0.278684
     69 S                     0.583645
     70 N                    -0.574973
     71 C                    -0.209499
     72 S                     0.314714
     73 C                    -0.112926
     74 C                    -0.239627
     75 S                     0.283728
     76 C                     0.169264
     77 C                     0.070696
     78 C                    -0.309058
     79 C                    -0.053310
     80 N                    -0.425713
     81 S                     0.279493
     82 C                     0.127689
     83 C                    -0.309416
     84 C                    -0.244011
     85 H                     0.095880
     86 H                     0.122390
     87 H                     0.113599
     88 H                     0.118792
     89 H                     0.135498
     90 H                     0.118093
     91 H                     0.114663
     92 H                     0.130523
     93 H                     0.119049
     94 C                    -0.178116
     95 H                     0.118273
     96 H                     0.099610
     97 H                     0.094177
     98 C                    -0.175073
     99 H                     0.092671
    100 C                    -0.167321
    101 H                     0.099603
    102 H                     0.087174
    103 H                     0.091250
    104 C                    -0.177089
    105 H                     0.094258
    106 C                    -0.325476
    107 H                     0.090994
    108 H                     0.107357
    109 H                     0.100363
    110 H                     0.100694
  ----------------------------------------
  Sum of atomic charges =     0.000000

                    Cartesian Multipole Moments
 -----------------------------------------------------------------
    Charge (ESU x 10^10)
                 0.0000
    Dipole Moment (Debye)
         X       2.3531      Y       0.3696      Z       0.3422
       Tot       2.4064
    Quadrupole Moments (Debye-Ang)
        XX    -343.3922     XY     -11.7353     YY    -435.2636
        XZ       7.2042     YZ       4.1109     ZZ    -443.4991

 Total job time:  85.23s(wall), 1012.68s(cpu)
        *  Thank you very much for using Q-Chem.  Have a nice day.  *
