 Q-Chem 4.4, Q-Chem, Inc., Pleasanton, CA (2016)
 Q-Chem 4.4.2 for Intel X86 Linux

User input:
--------------------------------------------------------------
$comment
SP
$end

$rem
MEM_STATIC 5000
MEM_TOTAL 20000
JOBTYPE SP
EXCHANGE B3LYP
BASIS 6-31g(d,p)
$end

$molecule
0 1
C          -3.929000    -13.240000    -12.815000
C          -4.224000    -11.854000    -12.645000
N          -2.697000    -13.662000    -12.294000
C          -3.394000    -10.916000    -12.051000
C          -1.863000    -12.790000    -11.742000
C          -2.127000    -11.395000    -11.643000
C          -1.208000    -10.450000    -10.977000
C          -1.661000     -9.423000    -10.126000
C           0.186000    -10.552000    -11.088000
N          -0.854000     -8.595000     -9.442000
N           0.768000    -11.245000    -12.114000
C           1.069000     -9.754000    -10.287000
C           0.486000     -8.786000     -9.435000
S           2.411000    -10.905000    -11.959000
N           2.357000     -9.906000    -10.668000
C           1.181000     -7.965000     -8.457000
S           0.264000     -6.829000     -7.487000
C           2.309000     -8.290000     -7.723000
C           1.647000     -6.522000     -6.369000
S           3.537000     -9.565000     -7.928000
C           2.519000     -7.566000     -6.553000
C           1.561000     -5.936000     -5.070000
C           4.313000     -9.056000     -6.414000
C           3.691000     -8.006000     -5.835000
N           2.640000     -5.239000     -4.785000
S           0.174000     -5.853000     -4.038000
C           2.407000     -4.672000     -3.560000
C           1.165000     -4.972000     -2.994000
C          -4.857000    -14.333000    -13.374000
H          -5.194000    -11.538000    -13.017000
H          -3.717000     -9.888000    -11.919000
H          -0.915000    -13.148000    -11.343000
H          -2.719000     -9.267000     -9.922000
H           5.237000     -9.546000     -6.139000
H           4.057000     -7.496000     -4.952000
H           3.235000     -4.155000     -3.095000
H           0.789000     -4.809000     -1.994000
H          -4.254000    -15.248000    -13.421000
C          -5.366000    -13.944000    -14.720000
H          -5.576000    -14.546000    -12.574000
H          -4.556000    -14.037000    -15.454000
H          -5.743000    -12.917000    -14.812000
C          -6.382000    -14.963000    -15.199000
H          -5.920000    -15.944000    -15.369000
C          -7.320000    -14.646000    -16.289000
H          -7.103000    -15.037000    -14.376000
H          -7.654000    -13.640000    -16.008000
H          -8.245000    -15.234000    -16.225000
C          -6.638000    -14.429000    -17.673000
H          -5.787000    -13.740000    -17.617000
C          -7.700000    -14.153000    -18.699000
H          -6.216000    -15.393000    -17.984000
H          -8.357000    -13.307000    -18.462000
H          -8.382000    -14.995000    -18.870000
H          -7.136000    -13.947000    -19.616000
C           9.551000      0.524000     -6.779000
C           9.594000     -0.851000     -6.559000
N           8.577000      1.133000     -7.508000
C           8.642000     -1.704000     -7.097000
C           7.708000      0.356000     -8.161000
C           7.713000     -1.074000     -7.977000
C           6.810000     -1.913000     -8.852000
C           6.768000     -1.673000    -10.279000
C           6.114000     -3.064000     -8.384000
N           5.994000     -2.344000    -11.084000
N           6.122000     -3.509000     -7.120000
C           5.353000     -3.807000     -9.264000
C           5.294000     -3.475000    -10.647000
S           5.235000     -4.890000     -7.156000
N           4.780000     -4.831000     -8.733000
C           4.390000     -4.085000    -11.593000
S           3.038000     -5.158000    -11.183000
C           4.562000     -4.010000    -12.951000
C           2.697000     -5.470000    -12.907000
S           5.589000     -3.088000    -13.975000
C           3.623000     -4.793000    -13.661000
C           1.631000     -6.325000    -13.385000
C           4.779000     -3.702000    -15.393000
C           3.827000     -4.611000    -15.055000
N           1.743000     -6.705000    -14.631000
S           0.346000     -6.979000    -12.440000
C           0.706000     -7.538000    -14.933000
C          -0.185000     -7.738000    -13.919000
C          10.538000      1.500000     -6.125000
H          10.404000     -1.252000     -5.956000
H           8.741000     -2.741000     -6.789000
H           6.990000      0.876000     -8.793000
H           7.476000     -0.956000    -10.694000
H           5.102000     -3.351000    -16.364000
H           3.283000     -5.099000    -15.855000
H           0.663000     -7.952000    -15.933000
H          -0.974000     -8.479000    -13.933000
H          11.383000      1.495000     -6.824000
C          10.856000      1.354000     -4.640000
H          10.151000      2.519000     -6.245000
H          11.744000      1.972000     -4.459000
H          11.084000      0.296000     -4.460000
C           9.659000      1.755000     -3.786000
H           9.381000      2.809000     -3.913000
C          10.019000      1.581000     -2.306000
H           8.784000      1.187000     -4.126000
H           9.281000      2.098000     -1.679000
H          11.012000      2.027000     -2.168000
C           9.966000      0.088000     -1.901000
H           9.025000     -0.348000     -2.259000
C          10.312000     -0.242000     -0.398000
H          10.706000     -0.458000     -2.500000
H          11.256000      0.188000     -0.043000
H          10.220000     -1.321000     -0.229000
H           9.515000      0.117000      0.264000
$end

--------------------------------------------------------------

             Standard Nuclear Orientation (Angstroms)
    I     Atom           X                Y                Z
 ----------------------------------------------------------------
    1      C      -9.7835030853     1.4485537124     0.2363750009
    2      C      -9.0289806801     1.2061955083    -0.9505872735
    3      N      -9.0269336326     1.7047430154     1.3893358433
    4      C      -7.6459721201     1.1732219590    -1.0387919679
    5      C      -7.7014688447     1.6559279424     1.3518633915
    6      C      -6.9533381434     1.3381228923     0.1836072535
    7      C      -5.4768311668     1.3413835080     0.1510724018
    8      C      -4.7425214349     1.8768005599    -0.9251509942
    9      C      -4.6999218494     0.8758855692     1.2214389658
   10      N      -3.4026579004     1.9688535968    -0.9564710730
   11      N      -5.2213900487     0.0315547420     2.1631530261
   12      C      -3.2778338603     1.0608953219     1.2605687846
   13      C      -2.6630131842     1.6550581233     0.1328351717
   14      S      -3.8897916436    -0.4209512517     3.0911390246
   15      N      -2.7209160465     0.4021110983     2.3012680185
   16      C      -1.2672998046     2.0443454090     0.0145576542
   17      S      -0.7078789177     2.7820343550    -1.4737797707
   18      C      -0.4210355158     2.4871755478     1.0168067359
   19      C       0.8686151029     3.2758165404    -0.7473448070
   20      S      -0.5258548386     2.3910892692     2.7931553325
   21      C       0.6902664174     3.2211928126     0.6125757770
   22      C       1.7623566894     4.2580242027    -1.2714507932
   23      C       0.9667161929     3.3435563181     2.9291378189
   24      C       1.4855476404     3.6768151256     1.7273152462
   25      N       3.0152117021     3.9606870434    -1.0008589771
   26      S       1.3908258739     5.5505362385    -2.3609733906
   27      C       3.7700052726     4.9257340003    -1.6135367366
   28      C       3.0427188949     5.8927360801    -2.3127373534
   29      C     -11.3103571058     1.5946044726     0.3616745452
   30      H      -9.6177002462     1.0442237749    -1.8485374002
   31      H      -7.1502501940     1.0287636518    -1.9937414794
   32      H      -7.1409665864     1.8628696994     2.2624024228
   33      H      -5.2293511840     2.3098718981    -1.7973677170
   34      H       1.3737623572     3.4923144129     3.9199382274
   35      H       2.4340356867     4.1835756325     1.5957507580
   36      H       4.8306370279     4.9236855721    -1.4034080056
   37      H       3.3526733598     6.8377266805    -2.7356628727
   38      H     -11.5184592427     1.6952293792     1.4338737472
   39      C     -11.9954945183     0.4047809420    -0.2188637325
   40      H     -11.5442806503     2.5898075484    -0.0347855578
   41      H     -11.8652258337    -0.4519126009     0.4539001513
   42      H     -11.6352876802     0.0761924866    -1.2025316952
   43      C     -13.4964270974     0.6220438114    -0.2113645040
   44      H     -13.8909987767     0.6762705438     0.8114148718
   45      C     -14.3858858581    -0.1906746689    -1.0579959378
   46      H     -13.6343928618     1.5903075845    -0.7074257033
   47      H     -13.8441673024    -0.1912993801    -2.0114599466
   48      H     -15.3157838183     0.3362695400    -1.3091623852
   49      C     -14.4348422474    -1.6981181249    -0.6669889058
   50      H     -13.4352671176    -2.1314978587    -0.5441493107
   51      C     -15.4004643350    -2.4037828507    -1.5760033604
   52      H     -14.9075291810    -1.7641582812     0.3210934595
   53      H     -15.1848491822    -2.2953229215    -2.6461811725
   54      H     -16.4393117570    -2.0688964639    -1.4665678004
   55      H     -15.3223669642    -3.4563897318    -1.2804690061
   56      C      10.1400783160    -1.8035328106    -0.0209757144
   57      C       9.4062613699    -1.1440977354     0.9626563669
   58      N       9.5720316199    -2.3844519802    -1.1122382260
   59      C       8.0235784054    -1.0553511892     0.9020851666
   60      C       8.2383523695    -2.4485899712    -1.1620877527
   61      C       7.4297315371    -1.7913402824    -0.1656259140
   62      C       5.9360612863    -2.0224959846    -0.1873335875
   63      C       5.4197456022    -3.3676926702    -0.3271799017
   64      C       4.9814286252    -1.0061157023     0.1023017075
   65      N       4.1449132219    -3.6315855256    -0.3772295087
   66      N       5.2747686269     0.2741885095     0.3679288307
   67      C       3.6362586866    -1.3158381730     0.1149440000
   68      C       3.1863388302    -2.6486504379    -0.1031788764
   69      S       3.8284037933     0.9750374107     0.7026908147
   70      N       2.8678536128    -0.3225429751     0.4009235316
   71      C       1.8034181770    -3.0220911094    -0.2829134912
   72      S       0.4525352129    -1.8954657362    -0.5134855752
   73      C       1.3515386339    -4.3102840005    -0.1574664749
   74      C      -0.7330932124    -3.2289028044    -0.4684098362
   75      S       2.1251968735    -5.8393757047    -0.0281587469
   76      C      -0.0561540552    -4.4030809725    -0.2507403460
   77      C      -2.1629550446    -3.0530387213    -0.6113502614
   78      C       0.5882703760    -6.6600173934    -0.1188459019
   79      C      -0.4368131261    -5.7696338175    -0.1758538081
   80      N      -2.8875073861    -4.0666257898    -0.2149601012
   81      S      -2.9692239460    -1.6128126347    -1.1089899684
   82      C      -4.2062040294    -3.7495531563    -0.3597568827
   83      C      -4.4459522906    -2.5181838908    -0.8967182437
   84      C      11.6740299310    -1.8412976175    -0.0261970489
   85      H       9.9431542996    -0.7003557190     1.7965322599
   86      H       7.5763499176    -0.4503184659     1.6856386641
   87      H       7.8216480376    -2.9858765875    -2.0123986321
   88      H       6.1343862159    -4.1901593222    -0.3067985501
   89      H       0.5789002792    -7.7415393656    -0.0944855869
   90      H      -1.4480439339    -6.1585952054    -0.1900415530
   91      H      -4.9407721950    -4.4870469893    -0.0601613948
   92      H      -5.4196187163    -2.0471837489    -0.9406563562
   93      H      11.8973752887    -2.7072431156     0.6085519136
   94      C      12.4514269272    -0.5563244934     0.2424346336
   95      H      12.0102965667    -2.1892434291    -1.0102643544
   96      H      13.4862597269    -0.8641923847     0.4362578471
   97      H      12.0160979281    -0.0955042596     1.1379129274
   98      C      12.3203521397     0.4125509996    -0.9267641001
   99      H      12.7449955106     0.0148490908    -1.8572694464
  100      C      13.1048261119     1.6906381988    -0.6083780163
  101      H      11.2538287198     0.5573988594    -1.1398272182
  102      H      13.2377499125     2.2844508000    -1.5220408961
  103      H      14.0798933415     1.3735819012    -0.2175734590
  104      C      12.3188095445     2.5837342029     0.3817939300
  105      H      11.2846088686     2.6858889478     0.0300349642
  106      C      13.0070911104     3.9403262651     0.7983890127
  107      H      12.1815769880     2.0243754628     1.3160326711
  108      H      14.0381112741     3.8367024414     1.1566075566
  109      H      12.3492923123     4.4907813455     1.4807129428
  110      H      13.0192054126     4.6370166134    -0.0482571958
 ----------------------------------------------------------------

   11   -5663.5072813226      4.44E-06 Convergence criterion met
 Total energy in the final basis set = -5663.5072813226

                    Orbital Energies (a.u.)
 --------------------------------------------------------------

 Alpha MOs
 -- Occupied --
-88.989 -88.974 -88.938 -88.926 -88.921 -88.916 -88.909 -88.898
-14.390 -14.386 -14.368 -14.368 -14.352 -14.351 -14.337 -14.334
-14.332 -14.322 -10.269 -10.268 -10.262 -10.262 -10.258 -10.252
-10.243 -10.241 -10.241 -10.239 -10.239 -10.236 -10.235 -10.235
-10.234 -10.234 -10.232 -10.229 -10.228 -10.228 -10.224 -10.223
-10.222 -10.222 -10.222 -10.218 -10.218 -10.216 -10.214 -10.212
-10.211 -10.211 -10.208 -10.204 -10.202 -10.200 -10.195 -10.190
-10.187 -10.184 -10.180 -10.178 -10.178 -10.175 -10.175 -10.174
-10.174 -10.173 -10.172 -10.172  -8.044  -8.029  -8.001  -7.987
 -7.980  -7.975  -7.969  -7.959  -6.009  -6.004  -6.002  -5.994
 -5.989  -5.987  -5.964  -5.961  -5.958  -5.951  -5.948  -5.944
 -5.944  -5.941  -5.939  -5.936  -5.936  -5.933  -5.932  -5.929
 -5.925  -5.923  -5.919  -5.915  -1.035  -1.027  -0.987  -0.975
 -0.961  -0.943  -0.931  -0.930  -0.916  -0.907  -0.900  -0.899
 -0.847  -0.841  -0.833  -0.831  -0.823  -0.817  -0.812  -0.808
 -0.808  -0.801  -0.800  -0.791  -0.791  -0.777  -0.774  -0.758
 -0.753  -0.743  -0.741  -0.729  -0.728  -0.720  -0.720  -0.706
 -0.699  -0.686  -0.677  -0.669  -0.657  -0.649  -0.647  -0.636
 -0.631  -0.628  -0.625  -0.617  -0.612  -0.609  -0.605  -0.598
 -0.594  -0.593  -0.587  -0.582  -0.580  -0.576  -0.565  -0.562
 -0.553  -0.546  -0.545  -0.529  -0.528  -0.521  -0.517  -0.512
 -0.506  -0.504  -0.495  -0.493  -0.488  -0.480  -0.479  -0.475
 -0.470  -0.467  -0.466  -0.462  -0.459  -0.454  -0.454  -0.451
 -0.448  -0.445  -0.440  -0.440  -0.438  -0.435  -0.434  -0.431
 -0.431  -0.429  -0.427  -0.424  -0.422  -0.416  -0.415  -0.414
 -0.412  -0.408  -0.407  -0.404  -0.401  -0.398  -0.398  -0.396
 -0.395  -0.394  -0.392  -0.390  -0.388  -0.385  -0.382  -0.381
 -0.380  -0.375  -0.372  -0.372  -0.371  -0.368  -0.358  -0.356
 -0.355  -0.351  -0.345  -0.343  -0.342  -0.339  -0.339  -0.337
 -0.336  -0.334  -0.331  -0.330  -0.329  -0.327  -0.323  -0.321
 -0.311  -0.309  -0.308  -0.307  -0.305  -0.301  -0.299  -0.299
 -0.297  -0.296  -0.292  -0.290  -0.288  -0.285  -0.282  -0.280
 -0.279  -0.270  -0.258  -0.256  -0.253  -0.248  -0.248  -0.246
 -0.243  -0.239  -0.236  -0.221  -0.200  -0.184

          Ground-State Mulliken Net Atomic Charges

     Atom                 Charge (a.u.)
  ----------------------------------------
      1 C                     0.243589
      2 C                    -0.125740
      3 N                    -0.489730
      4 C                    -0.071239
      5 C                     0.118423
      6 C                     0.030792
      7 C                     0.043937
      8 C                     0.051593
      9 C                     0.163038
     10 N                    -0.512584
     11 N                    -0.547043
     12 C                     0.251403
     13 C                     0.296256
     14 S                     0.614275
     15 N                    -0.549902
     16 C                    -0.216871
     17 S                     0.310863
     18 C                    -0.115462
     19 C                    -0.209677
     20 S                     0.273114
     21 C                     0.123406
     22 C                     0.017290
     23 C                    -0.312903
     24 C                    -0.040330
     25 N                    -0.395136
     26 S                     0.313076
     27 C                     0.109481
     28 C                    -0.312375
     29 C                    -0.218608
     30 H                     0.077735
     31 H                     0.106703
     32 H                     0.109892
     33 H                     0.112495
     34 H                     0.135590
     35 H                     0.113717
     36 H                     0.114854
     37 H                     0.139861
     38 H                     0.133128
     39 C                    -0.182992
     40 H                     0.121238
     41 H                     0.110550
     42 H                     0.096083
     43 C                    -0.172594
     44 H                     0.090119
     45 C                    -0.177577
     46 H                     0.082593
     47 H                     0.084255
     48 H                     0.093126
     49 C                    -0.177355
     50 H                     0.097930
     51 C                    -0.310514
     52 H                     0.093135
     53 H                     0.098517
     54 H                     0.105598
     55 H                     0.095223
     56 C                     0.260293
     57 C                    -0.115124
     58 N                    -0.475150
     59 C                    -0.036220
     60 C                     0.079511
     61 C                    -0.011178
     62 C                    -0.018480
     63 C                     0.084212
     64 C                     0.243639
     65 N                    -0.497432
     66 N                    -0.575515
     67 C                     0.222583
     68 C                     0.276450
     69 S                     0.608275
     70 N                    -0.577533
     71 C                    -0.210045
     72 S                     0.326262
     73 C                    -0.113805
     74 C                    -0.246860
     75 S                     0.277497
     76 C                     0.169365
     77 C                     0.064196
     78 C                    -0.309396
     79 C                    -0.055262
     80 N                    -0.429143
     81 S                     0.280931
     82 C                     0.126045
     83 C                    -0.320181
     84 C                    -0.237686
     85 H                     0.085193
     86 H                     0.117615
     87 H                     0.111482
     88 H                     0.114397
     89 H                     0.131734
     90 H                     0.115558
     91 H                     0.111837
     92 H                     0.132008
     93 H                     0.104330
     94 C                    -0.176262
     95 H                     0.118112
     96 H                     0.095465
     97 H                     0.094923
     98 C                    -0.174634
     99 H                     0.091302
    100 C                    -0.167430
    101 H                     0.102664
    102 H                     0.086405
    103 H                     0.090003
    104 C                    -0.176230
    105 H                     0.094732
    106 C                    -0.325362
    107 H                     0.091213
    108 H                     0.106851
    109 H                     0.099696
    110 H                     0.099902
  ----------------------------------------
  Sum of atomic charges =     0.000000

                    Cartesian Multipole Moments
 -----------------------------------------------------------------
    Charge (ESU x 10^10)
                 0.0000
    Dipole Moment (Debye)
         X      -2.5962      Y       4.3764      Z       0.4703
       Tot       5.1102
    Quadrupole Moments (Debye-Ang)
        XX    -416.6125     XY      25.5958     YY    -424.9115
        XZ      29.8433     YZ     -11.4601     ZZ    -439.5999

 Total job time:  105.72s(wall), 1261.74s(cpu)
        *  Thank you very much for using Q-Chem.  Have a nice day.  *
