 Q-Chem 4.4, Q-Chem, Inc., Pleasanton, CA (2016)
 Q-Chem 4.4.2 for Intel X86 Linux

User input:
--------------------------------------------------------------
$comment
SP
$end

$rem
MEM_STATIC 5000
MEM_TOTAL 20000
JOBTYPE SP
EXCHANGE B3LYP
BASIS 6-31g(d,p)
$end

$molecule
0 1
C          -3.929000    -13.240000    -12.815000
C          -4.224000    -11.854000    -12.645000
N          -2.697000    -13.662000    -12.294000
C          -3.394000    -10.916000    -12.051000
C          -1.863000    -12.790000    -11.742000
C          -2.127000    -11.395000    -11.643000
C          -1.208000    -10.450000    -10.977000
C          -1.661000     -9.423000    -10.126000
C           0.186000    -10.552000    -11.088000
N          -0.854000     -8.595000     -9.442000
N           0.768000    -11.245000    -12.114000
C           1.069000     -9.754000    -10.287000
C           0.486000     -8.786000     -9.435000
S           2.411000    -10.905000    -11.959000
N           2.357000     -9.906000    -10.668000
C           1.181000     -7.965000     -8.457000
S           0.264000     -6.829000     -7.487000
C           2.309000     -8.290000     -7.723000
C           1.647000     -6.522000     -6.369000
S           3.537000     -9.565000     -7.928000
C           2.519000     -7.566000     -6.553000
C           1.561000     -5.936000     -5.070000
C           4.313000     -9.056000     -6.414000
C           3.691000     -8.006000     -5.835000
N           2.640000     -5.239000     -4.785000
S           0.174000     -5.853000     -4.038000
C           2.407000     -4.672000     -3.560000
C           1.165000     -4.972000     -2.994000
C          -4.857000    -14.333000    -13.374000
H          -5.194000    -11.538000    -13.017000
H          -3.717000     -9.888000    -11.919000
H          -0.915000    -13.148000    -11.343000
H          -2.719000     -9.267000     -9.922000
H           5.237000     -9.546000     -6.139000
H           4.057000     -7.496000     -4.952000
H           3.235000     -4.155000     -3.095000
H           0.789000     -4.809000     -1.994000
H          -4.254000    -15.248000    -13.421000
C          -5.366000    -13.944000    -14.720000
H          -5.576000    -14.546000    -12.574000
H          -4.556000    -14.037000    -15.454000
H          -5.743000    -12.917000    -14.812000
C          -6.382000    -14.963000    -15.199000
H          -5.920000    -15.944000    -15.369000
C          -7.320000    -14.646000    -16.289000
H          -7.103000    -15.037000    -14.376000
H          -7.654000    -13.640000    -16.008000
H          -8.245000    -15.234000    -16.225000
C          -6.638000    -14.429000    -17.673000
H          -5.787000    -13.740000    -17.617000
C          -7.700000    -14.153000    -18.699000
H          -6.216000    -15.393000    -17.984000
H          -8.357000    -13.307000    -18.462000
H          -8.382000    -14.995000    -18.870000
H          -7.136000    -13.947000    -19.616000
C           0.994000    -10.361000     -4.335000
C          -0.263000    -10.153000     -3.788000
N           1.114000    -10.794000     -5.590000
C          -1.372000    -10.437000     -4.570000
C          -0.013000    -11.076000     -6.348000
C          -1.321000    -10.901000     -5.873000
C          -2.516000    -11.204000     -6.775000
C          -2.726000    -12.409000     -7.306000
C          -3.238000    -10.115000     -7.255000
N          -3.735000    -12.641000     -8.210000
N          -3.058000     -8.822000     -6.848000
C          -4.298000    -10.322000     -8.139000
C          -4.605000    -11.609000     -8.620000
S          -4.261000     -8.014000     -7.616000
N          -5.012000     -9.250000     -8.421000
C          -5.646000    -11.836000     -9.518000
S          -6.430000    -10.581000    -10.489000
C          -6.236000    -13.071000     -9.744000
C          -7.393000    -11.802000    -11.265000
S          -6.007000    -14.717000     -9.022000
C          -7.169000    -13.055000    -10.718000
C          -8.188000    -11.516000    -12.478000
C          -7.153000    -15.331000    -10.212000
C          -7.677000    -14.379000    -10.987000
N          -8.712000    -12.444000    -13.187000
S          -8.252000     -9.866000    -13.117000
C          -9.193000    -11.956000    -14.386000
C          -9.181000    -10.557000    -14.452000
C           2.227000    -10.344000     -3.487000
H          -0.395000     -9.900000     -2.740000
H          -2.332000    -10.152000     -4.148000
H           0.187000    -11.530000     -7.318000
H          -2.098000    -13.252000     -7.023000
H          -7.417000    -16.378000    -10.140000
H          -8.471000    -14.594000    -11.692000
H          -9.573000    -12.701000    -15.072000
H          -9.538000     -9.949000    -15.274000
H           3.117000    -10.458000     -4.118000
C           2.265000    -11.366000     -2.325000
H           2.557000     -9.348000     -3.164000
H           2.013000    -12.383000     -2.653000
H           1.478000    -11.209000     -1.577000
C           3.719000    -11.394000     -1.810000
H           4.401000    -11.723000     -2.605000
C           3.928000    -12.440000     -0.737000
H           3.999000    -10.418000     -1.397000
H           4.214000    -13.395000     -1.196000
H           3.017000    -12.580000     -0.143000
C           5.135000    -12.048000      0.151000
H           6.083000    -12.222000     -0.372000
C           5.153000    -12.687000      1.543000
H           5.146000    -10.960000      0.291000
H           4.400000    -12.256000      2.214000
H           6.102000    -12.622000      2.087000
H           4.894000    -13.749000      1.457000
$end

--------------------------------------------------------------

             Standard Nuclear Orientation (Angstroms)
    I     Atom           X                Y                Z
 ----------------------------------------------------------------
    1      C      -4.7630038631    -0.6941305961     1.8051861760
    2      C      -4.4608862875    -0.9908003550     0.4422360578
    3      N      -3.6950314362    -0.8352521411     2.7034448274
    4      C      -3.2365087505    -1.4268882256    -0.0397463234
    5      C      -2.5151371984    -1.2757692573     2.2857867641
    6      C      -2.2386939569    -1.6442472588     0.9391891640
    7      C      -0.9031371882    -2.0817907477     0.4853325647
    8      C      -0.3366813279    -1.6530421897    -0.7309903498
    9      C      -0.0738216376    -2.8992049588     1.2663772018
   10      N       0.9039424841    -1.9657482026    -1.1405712411
   11      N      -0.5822448959    -3.6656340052     2.2791660778
   12      C       1.2900685445    -3.1584098071     0.9048382442
   13      C       1.7538275111    -2.6312718493    -0.3239295102
   14      S       0.7192243188    -4.6188235672     2.7656653505
   15      N       1.8484960594    -4.0879948855     1.7118322298
   16      C       3.1200854821    -2.6685392586    -0.8194093754
   17      S       3.4877626161    -1.9407575312    -2.3709996184
   18      C       4.2919418127    -2.6402532801    -0.0827156507
   19      C       5.2695608277    -2.0473862439    -2.1051285014
   20      S       4.6214479582    -2.9380856286     1.6430756438
   21      C       5.4387907659    -2.2279553498    -0.7549685013
   22      C       6.2688952954    -1.3191215606    -2.8186789009
   23      C       6.3252220892    -2.5070801550     1.3884366989
   24      C       6.5973542326    -2.1873456303     0.1045601744
   25      N       7.3806287881    -2.0137565494    -2.9318419403
   26      S       6.0737173872     0.1593821257    -3.6970947670
   27      C       8.2252336360    -1.2479118468    -3.6911360483
   28      C       7.7003387679    -0.0219206091    -4.1086894731
   29      C      -6.0717092863    -0.1129320322     2.3689346524
   30      H      -5.2799019387    -0.8455961127    -0.2558105675
   31      H      -3.0781656500    -1.5843235241    -1.1021391836
   32      H      -1.7038490180    -1.3717100353     3.0059783049
   33      H      -0.8618835414    -0.9802920567    -1.4069236997
   34      H       6.9985385937    -2.6224825659     2.2267851756
   35      H       7.5918644414    -1.9771484283    -0.2702885697
   36      H       9.2431537751    -1.5977403272    -3.7938814845
   37      H       8.1825535601     0.8335576924    -4.5598776489
   38      H      -5.9526843696    -0.0993153606     3.4592055616
   39      C      -7.2329240854    -0.9516023878     1.9562238274
   40      H      -6.0609247986     0.9503049446     2.1010898727
   41      H      -7.2217293280    -1.8899803738     2.5244019973
   42      H      -7.2654026359    -1.2381525467     0.8969051076
   43      C      -8.5250298850    -0.2951620183     2.4029974211
   44      H      -8.6034568048    -0.2625044347     3.4972952327
   45      C      -9.8171282518    -0.6805121882     1.8110345361
   46      H      -8.4613636670     0.7271097719     2.0111390288
   47      H      -9.5695472352    -0.7162328959     0.7433357624
   48      H     -10.5550853047     0.1309242906     1.8605848013
   49      C     -10.2540526451    -2.1413086471     2.1317209566
   50      H      -9.4550972436    -2.8681756003     1.9435914837
   51      C     -11.5964435094    -2.3942638244     1.5066638025
   52      H     -10.4517542067    -2.1939758156     3.2097938956
   53      H     -11.6397601789    -2.2130434065     0.4255454805
   54      H     -12.4036573209    -1.7797520377     1.9239288580
   55      H     -11.7936376624    -3.4511626752     1.7199717614
   56      C       5.1739816928     1.3850495729     0.6354435178
   57      C       4.7661792649     2.3921174323    -0.2259701496
   58      N       4.2699852104     0.6047358536     1.2277397776
   59      C       3.4058569168     2.5752198410    -0.4210537654
   60      C       2.9146943638     0.8142042067     1.0191091705
   61      C       2.4139949258     1.8123749281     0.1705402082
   62      C       0.9081122107     1.9660597453    -0.0347308938
   63      C       0.0688377426     2.2120199301     0.9718514201
   64      C       0.3942181296     1.5699572199    -1.2662424295
   65      N      -1.2942050751     2.2301715637     0.7960509788
   66      N       1.1522330402     1.2153179675    -2.3476962640
   67      C      -0.9823101566     1.6204346714    -1.4910243330
   68      C      -1.8747535021     1.9909261676    -0.4671786775
   69      S       0.0400313207     1.0015505142    -3.5339541664
   70      N      -1.3590886401     1.3682509377    -2.7291460310
   71      C      -3.2537209424     2.0291857347    -0.6636449699
   72      S      -4.1016943187     1.2477043358    -2.0063102209
   73      C      -4.1456875464     2.7182890512     0.1450163910
   74      C      -5.6187265922     1.7475783600    -1.3213831874
   75      S      -3.9490909125     3.7976841285     1.5869931698
   76      C      -5.4375888773     2.5395540940    -0.1991721711
   77      C      -6.9083375131     1.2073959892    -1.8012755492
   78      C      -5.7064678316     3.8493334349     1.7109718512
   79      C      -6.3288179001     3.1894848629     0.7317960477
   80      N      -8.0041877947     1.3857651678    -1.1643001993
   81      S      -6.9360833074     0.0930668727    -3.1769273187
   82      C      -9.0180106741     0.5946094984    -1.6676309812
   83      C      -8.6692529458    -0.0479199038    -2.8622962123
   84      C       6.5891591179     1.2919021626     1.1132284226
   85      H       5.4697951759     3.1072343373    -0.6422266354
   86      H       3.1321561579     3.2942838815    -1.1884805048
   87      H       2.2549032810     0.2012094954     1.6322398344
   88      H       0.4519027151     2.4167416991     1.9700859738
   89      H      -6.1227571137     4.4892284010     2.4779964049
   90      H      -7.4059820435     3.2219647067     0.6206723866
   91      H      -9.9510141683     0.6316838228    -1.1215989545
   92      H      -9.3070667416    -0.6901175790    -3.4569160134
   93      H       6.7191368206     0.3910092978     1.7254006556
   94      C       7.1332648593     2.5296221310     1.8669990920
   95      H       7.3077970647     0.9182668849     0.3721473335
   96      H       6.4576433652     2.8648189817     2.6648434803
   97      H       7.1647952787     3.4381666136     1.2529349620
   98      C       8.4546060221     2.0940169108     2.5336553931
   99      H       8.2728558317     1.2831629932     3.2512017627
  100      C       9.0453219016     3.1825233384     3.4027552187
  101      H       9.1962454293     1.8210199384     1.7740577082
  102      H       8.6569942103     3.0966996743     4.4256618140
  103      H       8.8056584955     4.1756765378     3.0045527899
  104      C      10.5741655041     2.9746742083     3.5387441089
  105      H      10.8008658898     2.1435732732     4.2172624732
  106      C      11.3691013350     4.2265045869     3.9225496954
  107      H      10.9783618684     2.6105339632     2.5861202686
  108      H      11.4459871161     4.9457630962     3.0980699967
  109      H      12.3977551821     4.0554371217     4.2592531036
  110      H      10.8431379545     4.7571970263     4.7250763660
 ----------------------------------------------------------------

   10   -5663.4842167165      4.95E-06 Convergence criterion met
 Total energy in the final basis set = -5663.4842167165

                    Orbital Energies (a.u.)
 --------------------------------------------------------------

 Alpha MOs
 -- Occupied --
-88.986 -88.982 -88.935 -88.932 -88.930 -88.911 -88.909 -88.895
-14.387 -14.386 -14.382 -14.378 -14.349 -14.346 -14.343 -14.341
-14.323 -14.319 -10.276 -10.260 -10.258 -10.258 -10.254 -10.251
-10.249 -10.249 -10.247 -10.242 -10.241 -10.241 -10.233 -10.233
-10.233 -10.230 -10.228 -10.228 -10.228 -10.226 -10.225 -10.224
-10.223 -10.222 -10.216 -10.216 -10.214 -10.213 -10.210 -10.209
-10.205 -10.203 -10.202 -10.199 -10.197 -10.191 -10.190 -10.190
-10.185 -10.180 -10.178 -10.178 -10.178 -10.176 -10.176 -10.175
-10.171 -10.170 -10.170 -10.164  -8.041  -8.037  -7.993  -7.993
 -7.992  -7.970  -7.969  -7.955  -6.006  -6.002  -6.001  -5.999
 -5.996  -5.994  -5.958  -5.957  -5.956  -5.954  -5.954  -5.952
 -5.950  -5.950  -5.949  -5.935  -5.933  -5.931  -5.929  -5.926
 -5.925  -5.919  -5.916  -5.911  -1.039  -1.019  -0.983  -0.978
 -0.952  -0.943  -0.930  -0.921  -0.918  -0.910  -0.904  -0.891
 -0.855  -0.835  -0.830  -0.823  -0.822  -0.814  -0.810  -0.809
 -0.808  -0.802  -0.794  -0.790  -0.782  -0.782  -0.770  -0.764
 -0.752  -0.744  -0.744  -0.737  -0.730  -0.717  -0.714  -0.711
 -0.699  -0.689  -0.672  -0.668  -0.653  -0.648  -0.645  -0.640
 -0.637  -0.627  -0.626  -0.614  -0.611  -0.605  -0.603  -0.597
 -0.596  -0.589  -0.587  -0.581  -0.581  -0.574  -0.570  -0.559
 -0.557  -0.544  -0.537  -0.536  -0.526  -0.521  -0.514  -0.513
 -0.505  -0.502  -0.501  -0.496  -0.488  -0.481  -0.478  -0.477
 -0.473  -0.469  -0.468  -0.466  -0.459  -0.458  -0.452  -0.448
 -0.445  -0.444  -0.440  -0.437  -0.437  -0.433  -0.430  -0.428
 -0.427  -0.426  -0.425  -0.423  -0.419  -0.417  -0.414  -0.413
 -0.411  -0.406  -0.406  -0.402  -0.399  -0.396  -0.395  -0.393
 -0.392  -0.390  -0.389  -0.388  -0.385  -0.384  -0.382  -0.380
 -0.380  -0.375  -0.370  -0.369  -0.367  -0.366  -0.361  -0.359
 -0.354  -0.350  -0.348  -0.347  -0.346  -0.344  -0.341  -0.340
 -0.338  -0.333  -0.330  -0.329  -0.328  -0.322  -0.319  -0.316
 -0.315  -0.313  -0.306  -0.303  -0.303  -0.301  -0.300  -0.297
 -0.294  -0.293  -0.290  -0.287  -0.286  -0.285  -0.278  -0.276
 -0.271  -0.266  -0.263  -0.258  -0.256  -0.253  -0.248  -0.243
 -0.238  -0.235  -0.232  -0.223  -0.199  -0.188

          Ground-State Mulliken Net Atomic Charges

     Atom                 Charge (a.u.)
  ----------------------------------------
      1 C                     0.245620
      2 C                    -0.124860
      3 N                    -0.491361
      4 C                    -0.069836
      5 C                     0.127127
      6 C                     0.025917
      7 C                     0.045898
      8 C                     0.059822
      9 C                     0.163659
     10 N                    -0.523923
     11 N                    -0.543075
     12 C                     0.235566
     13 C                     0.302926
     14 S                     0.600262
     15 N                    -0.547356
     16 C                    -0.226584
     17 S                     0.308890
     18 C                    -0.108286
     19 C                    -0.212007
     20 S                     0.275573
     21 C                     0.134837
     22 C                     0.011842
     23 C                    -0.302499
     24 C                    -0.040254
     25 N                    -0.392403
     26 S                     0.306263
     27 C                     0.105445
     28 C                    -0.312558
     29 C                    -0.226055
     30 H                     0.080530
     31 H                     0.108970
     32 H                     0.104478
     33 H                     0.095929
     34 H                     0.129245
     35 H                     0.108805
     36 H                     0.109247
     37 H                     0.133639
     38 H                     0.125845
     39 C                    -0.182122
     40 H                     0.135772
     41 H                     0.105213
     42 H                     0.097671
     43 C                    -0.175681
     44 H                     0.085788
     45 C                    -0.185473
     46 H                     0.091837
     47 H                     0.086464
     48 H                     0.086751
     49 C                    -0.175951
     50 H                     0.100183
     51 C                    -0.310539
     52 H                     0.092643
     53 H                     0.092527
     54 H                     0.104524
     55 H                     0.095637
     56 C                     0.285357
     57 C                    -0.104982
     58 N                    -0.483896
     59 C                    -0.077134
     60 C                     0.065481
     61 C                     0.045827
     62 C                    -0.005245
     63 C                     0.064774
     64 C                     0.281625
     65 N                    -0.548740
     66 N                    -0.531904
     67 C                     0.197297
     68 C                     0.322957
     69 S                     0.601466
     70 N                    -0.596071
     71 C                    -0.218796
     72 S                     0.337875
     73 C                    -0.107463
     74 C                    -0.239973
     75 S                     0.275028
     76 C                     0.171754
     77 C                     0.086763
     78 C                    -0.297874
     79 C                    -0.055503
     80 N                    -0.431528
     81 S                     0.251374
     82 C                     0.117268
     83 C                    -0.312091
     84 C                    -0.240084
     85 H                     0.087242
     86 H                     0.091625
     87 H                     0.101425
     88 H                     0.123227
     89 H                     0.137093
     90 H                     0.122855
     91 H                     0.124330
     92 H                     0.136820
     93 H                     0.120223
     94 C                    -0.182181
     95 H                     0.101422
     96 H                     0.103897
     97 H                     0.092846
     98 C                    -0.170640
     99 H                     0.103760
    100 C                    -0.183623
    101 H                     0.093821
    102 H                     0.097752
    103 H                     0.091156
    104 C                    -0.179159
    105 H                     0.093909
    106 C                    -0.322713
    107 H                     0.088907
    108 H                     0.101968
    109 H                     0.099527
    110 H                     0.100427
  ----------------------------------------
  Sum of atomic charges =     0.000000

                    Cartesian Multipole Moments
 -----------------------------------------------------------------
    Charge (ESU x 10^10)
                 0.0000
    Dipole Moment (Debye)
         X      -0.7307      Y       3.2452      Z      -2.3100
       Tot       4.0499
    Quadrupole Moments (Debye-Ang)
        XX    -384.3521     XY      17.8931     YY    -448.2661
        XZ       7.3496     YZ      -5.5980     ZZ    -436.8676

 Total job time:  114.65s(wall), 1378.79s(cpu)
        *  Thank you very much for using Q-Chem.  Have a nice day.  *
