 Q-Chem 4.4, Q-Chem, Inc., Pleasanton, CA (2016)
 Q-Chem 4.4.2 for Intel X86 Linux

User input:
--------------------------------------------------------------
$comment
SP
$end

$rem
MEM_STATIC 5000
MEM_TOTAL 20000
JOBTYPE SP
EXCHANGE B3LYP
BASIS 6-31g(d,p)
$end

$molecule
0 1
C          20.078000     12.422000     -7.602000
C          21.343000     12.016000     -7.806000
N          19.146000     12.422000     -8.546000
C          21.676000     11.272000     -8.960000
C          19.384000     11.744000     -9.658000
C          20.649000     11.152000     -9.901000
C          20.891000     10.224000    -11.043000
C          22.197000     10.112000    -11.631000
C          19.911000      9.261000    -11.510000
N          22.598000      9.186000    -12.518000
N          18.638000      9.215000    -11.178000
C          20.293000      8.400000    -12.491000
C          21.629000      8.321000    -12.919000
S          17.942000      7.924000    -11.954000
N          19.285000      7.575000    -12.878000
C          22.124000      7.345000    -13.895000
S          21.049000      6.276000    -14.843000
C          23.437000      6.992000    -14.142000
C          22.511000      5.577000    -15.697000
S          24.899000      7.926000    -13.659000
C          23.630000      6.097000    -15.131000
C          22.392000      4.770000    -16.839000
C          25.814000      6.990000    -14.900000
C          24.945000      6.164000    -15.633000
N          23.466000      4.233000    -17.397000
S          20.994000      4.780000    -17.813000
C          23.139000      3.633000    -18.596000
C          21.858000      3.784000    -18.957000
C          19.754000     13.190000     -6.314000
H          22.115000     12.252000     -7.080000
H          22.649000     10.802000     -9.070000
H          18.557000     11.698000    -10.366000
H          23.016000     10.682000    -11.192000
H          26.895000      7.040000    -14.892000
H          25.208000      5.606000    -16.525000
H          23.898000      3.143000    -19.192000
H          21.333000      3.280000    -19.759000
H          20.467000     13.956000     -5.984000
C          19.428000     12.237000     -5.109000
H          18.877000     13.826000     -6.484000
H          18.576000     11.602000     -5.383000
H          19.207000     12.919000     -4.279000
C          20.615000     11.309000     -4.629000
H          20.300000     10.590000     -3.863000
C          21.844000     12.155000     -4.171000
H          20.988000     10.711000     -5.470000
H          21.492000     12.764000     -3.328000
H          22.348000     12.710000     -4.972000
C          22.940000     11.245000     -3.682000
H          23.789000     11.805000     -3.269000
C          23.594000     10.447000     -4.779000
H          22.542000     10.611000     -2.880000
H          22.888000      9.693000     -5.150000
H          24.465000      9.868000     -4.446000
H          23.818000     11.049000     -5.668000
C          12.019000     -0.800000     -9.545000
C          10.913000      0.020000     -9.608000
N          13.236000     -0.230000     -9.656000
C          11.005000      1.440000     -9.758000
C          13.356000      1.108000     -9.945000
C          12.291000      2.064000     -9.969000
C          12.403000      3.612000    -10.112000
C          11.325000      4.519000    -10.101000
C          13.649000      4.335000    -10.220000
N          11.433000      5.877000    -10.133000
N          14.855000      3.750000    -10.018000
C          13.717000      5.674000    -10.272000
C          12.601000      6.573000    -10.249000
S          16.002000      4.826000    -10.303000
N          15.013000      6.145000    -10.305000
C          12.620000      8.071000    -10.165000
S          14.065000      9.047000    -10.157000
C          11.534000      8.940000    -10.050000
C          13.231000     10.515000     -9.959000
S           9.860000      8.515000     -9.976000
C          11.928000     10.258000     -9.868000
C          13.837000     11.813000     -9.650000
C           9.647000     10.250000     -9.431000
C          10.798000     11.065000     -9.508000
N          13.131000     12.934000     -9.901000
S          15.445000     12.041000     -8.991000
C          13.974000     13.997000     -9.845000
C          15.227000     13.698000     -9.507000
C          11.994000     -2.310000     -9.203000
H          10.034000     -0.454000     -9.179000
H          10.097000      2.030000     -9.681000
H          14.330000      1.452000    -10.291000
H          10.293000      4.184000    -10.185000
H           8.595000     10.448000     -9.269000
H          10.811000     12.128000     -9.293000
H          13.560000     14.947000    -10.157000
H          16.121000     14.304000     -9.567000
H          10.965000     -2.659000     -9.053000
C          12.910000     -2.588000     -7.945000
H          12.369000     -2.907000    -10.045000
H          12.698000     -1.968000     -7.067000
H          13.937000     -2.396000     -8.281000
C          12.808000     -4.129000     -7.559000
H          11.804000     -4.402000     -7.209000
C          13.911000     -4.747000     -6.590000
H          12.809000     -4.696000     -8.497000
H          13.516000     -4.492000     -5.598000
H          14.862000     -4.216000     -6.715000
C          14.068000     -6.294000     -6.634000
H          13.077000     -6.761000     -6.581000
C          14.960000     -6.649000     -5.459000
H          14.580000     -6.598000     -7.556000
H          14.610000     -6.284000     -4.486000
H          15.899000     -6.112000     -5.641000
H          15.220000     -7.702000     -5.296000
$end

--------------------------------------------------------------

             Standard Nuclear Orientation (Angstroms)
    I     Atom           X                Y                Z
 ----------------------------------------------------------------
    1      C       5.4113254570    -3.6361172845    -2.4753360370
    2      C       5.9933345704    -2.5567052656    -3.0256196778
    3      N       4.9569325993    -3.6698117619    -1.2294821880
    4      C       5.8765722162    -1.2910434781    -2.4086854899
    5      C       4.8175750003    -2.5218809236    -0.5847293282
    6      C       5.2713542176    -1.3028500842    -1.1484546467
    7      C       4.9583786415     0.0233228091    -0.5424647573
    8      C       5.8483654904     1.1371504453    -0.7192001686
    9      C       3.6892942503     0.3320039068     0.0899898164
   10      N       5.5979111481     2.4188770788    -0.4037711598
   11      N       2.7513465023    -0.5286027215     0.4253690844
   12      C       3.4898638717     1.6102648242     0.5093733535
   13      C       4.3957441870     2.6365315568     0.1923899979
   14      S       1.4870297983     0.3113697069     1.0956097811
   15      N       2.2883594437     1.7729969976     1.1228579492
   16      C       4.1870676861     4.0496300769     0.5237262175
   17      S       2.8620706532     4.6231875843     1.5784795766
   18      C       4.8470054778     5.1444750593    -0.0010438043
   19      C       3.4761236369     6.3399424418     1.4022618344
   20      S       6.4127112039     5.1176519535    -0.8903891253
   21      C       4.4986221719     6.3422184042     0.5092844742
   22      C       3.0109809430     7.3850893824     2.2152096475
   23      C       6.5587369917     6.8797000887    -0.5336471477
   24      C       5.5095105940     7.3015205796     0.3005695147
   25      N       3.4328569655     8.6252073987     2.0219819906
   26      S       2.2592601425     7.0980286806     3.7171057796
   27      C       2.9897034055     9.4500434567     3.0357819707
   28      C       2.3108244870     8.8193315859     4.0029473908
   29      C       5.5280358550    -4.9818636289    -3.2027213954
   30      H       6.5508797237    -2.6510626317    -3.9524400970
   31      H       6.2015004809    -0.3840412705    -2.9101808719
   32      H       4.3582719188    -2.5897656956     0.4010400855
   33      H       6.7299382584     1.0044321934    -1.3465735185
   34      H       7.3123961073     7.4525545050    -1.0580141519
   35      H       5.4353887773     8.2720285179     0.7789180257
   36      H       3.2429182340    10.5023067061     3.0403976563
   37      H       1.7362156125     9.2643443689     4.8058379589
   38      H       6.5005349509    -5.2432931311    -3.6385253924
   39      C       4.4082937553    -5.1815380552    -4.2856885019
   40      H       5.4365010144    -5.7954928348    -2.4732326097
   41      H       3.4286905087    -5.1116161055    -3.7961035756
   42      H       4.6112363567    -6.1756475635    -4.7021324789
   43      C       4.4396391506    -4.1673110140    -5.4985009256
   44      H       3.5739908781    -4.2823516818    -6.1620977257
   45      C       5.7909025389    -4.2559534997    -6.2744846660
   46      H       4.4006812128    -3.1357144199    -5.1266074650
   47      H       5.8514604635    -5.2838150589    -6.6556242113
   48      H       6.6692607668    -3.9109962733    -5.7149014859
   49      C       5.7732366189    -3.3092327707    -7.4457424414
   50      H       6.6720475959    -3.4050970649    -8.0685737708
   51      C       5.8207151515    -1.8577364824    -7.0472034673
   52      H       4.9078187627    -3.5443075031    -8.0776884869
   53      H       4.8687627617    -1.5787160757    -6.5776001664
   54      H       5.9211087967    -1.1689098499    -7.8958553314
   55      H       6.5624384189    -1.6548832656    -6.2651560474
   56      C      -9.2076509363     1.3161970348    -0.1722671943
   57      C      -9.3365761411     0.1998004718     0.6256312991
   58      N      -7.9651459371     1.6940620081    -0.5351850761
   59      C      -8.2180480565    -0.5811755164     1.0572971767
   60      C      -6.8632042873     1.0538272576    -0.0213864145
   61      C      -6.8729449068    -0.1470124693     0.7574756212
   62      C      -5.6494009578    -1.0024731697     1.2051632298
   63      C      -5.7094935952    -2.1974261302     1.9490249758
   64      C      -4.2770425868    -0.7079764673     0.8633837781
   65      N      -4.6460081203    -2.9910455509     2.2588940771
   66      N      -3.9353274696     0.2416542790    -0.0415456249
   67      C      -3.2504473789    -1.5015339318     1.2048773061
   68      C      -3.3437162422    -2.7190134485     1.9553641785
   69      S      -2.3414807840     0.3460719928    -0.0995084024
   70      N      -2.0409591121    -1.0562561060     0.7135405678
   71      C      -2.2580607657    -3.7129769373     2.2465853475
   72      S      -0.5899902494    -3.5290370684     1.7729062607
   73      C      -2.3692752656    -4.9422033972     2.8980572542
   74      C      -0.1132367009    -5.0437301116     2.3796970311
   75      S      -3.8038720051    -5.6513192972     3.5518644394
   76      C      -1.1821447761    -5.6604237632     2.8789599546
   77      C       1.1780922641    -5.6957846106     2.1455700691
   78      C      -2.7811013502    -7.1680305874     3.6302611844
   79      C      -1.4105329919    -7.0022167722     3.3319272206
   80      N       1.5666067676    -6.6820132544     2.9789292610
   81      S       2.2974139195    -5.2790829359     0.8628355890
   82      C       2.8891771741    -6.9180699638     2.7818537685
   83      C       3.4460001609    -6.1962218212     1.8110101042
   84      C     -10.3806004436     2.0927029669    -0.8195051650
   85      H     -10.3403189562    -0.2147494709     0.5808350256
   86      H      -8.4068451938    -1.5113512706     1.5841953710
   87      H      -5.9052251117     1.5620882394    -0.1247047265
   88      H      -6.6242101350    -2.5202837463     2.4423419242
   89      H      -3.3651666624    -7.9721338048     4.0597233212
   90      H      -0.6676675741    -7.7887149375     3.4089636206
   91      H       3.3583556979    -7.5983204277     3.4806890990
   92      H       4.4909538440    -6.0499961426     1.5727626467
   93      H     -11.3444606213     1.6586965922    -0.5266672838
   94      C     -10.1936881757     2.1322463025    -2.3887101002
   95      H     -10.4173273686     3.1253055845    -0.4475092415
   96      H     -10.0381856963     1.1579910244    -2.8650226363
   97      H      -9.3125909424     2.7626694931    -2.5639906361
   98      C     -11.4480487936     2.8623459339    -3.0426328544
   99      H     -12.3751206174     2.2895537874    -2.9103755653
  100      C     -11.3330792558     3.3758114297    -4.5461717432
  101      H     -11.6948543074     3.7149498731    -2.3996028698
  102      H     -11.5842484528     2.4732366748    -5.1183490290
  103      H     -10.2933042919     3.6361039014    -4.7766123075
  104      C     -12.3442966762     4.4795514126    -4.9692454705
  105      H     -13.3515887649     4.1931490332    -4.6431851617
  106      C     -12.2147202984     4.5981755265    -6.4763792675
  107      H     -12.0631712541     5.4430409732    -4.5250604150
  108      H     -12.3527688827     3.6602845995    -7.0275209892
  109      H     -11.1685868581     4.8775317361    -6.6518185256
  110      H     -12.8349941265     5.3352957695    -7.0006808271
 ----------------------------------------------------------------

   10   -5663.4719470106      7.47E-06 Convergence criterion met
 Total energy in the final basis set = -5663.4719470106

                    Orbital Energies (a.u.)
 --------------------------------------------------------------

 Alpha MOs
 -- Occupied --
-88.993 -88.991 -88.924 -88.923 -88.922 -88.922 -88.907 -88.905
-14.388 -14.381 -14.378 -14.375 -14.355 -14.349 -14.340 -14.338
-14.332 -14.327 -10.273 -10.268 -10.263 -10.263 -10.254 -10.254
-10.253 -10.253 -10.244 -10.244 -10.243 -10.241 -10.239 -10.237
-10.233 -10.229 -10.229 -10.228 -10.228 -10.228 -10.228 -10.228
-10.227 -10.226 -10.226 -10.226 -10.224 -10.219 -10.219 -10.218
-10.217 -10.216 -10.202 -10.201 -10.201 -10.197 -10.197 -10.194
-10.194 -10.187 -10.185 -10.184 -10.182 -10.181 -10.180 -10.178
-10.178 -10.176 -10.174 -10.169  -8.047  -8.047  -7.987  -7.984
 -7.983  -7.981  -7.967  -7.964  -6.013  -6.012  -6.007  -6.006
 -6.005  -6.005  -5.950  -5.947  -5.947  -5.947  -5.945  -5.944
 -5.944  -5.943  -5.942  -5.941  -5.940  -5.938  -5.931  -5.928
 -5.928  -5.925  -5.923  -5.920  -1.040  -1.035  -0.974  -0.966
 -0.961  -0.955  -0.950  -0.928  -0.921  -0.913  -0.897  -0.891
 -0.842  -0.835  -0.834  -0.826  -0.815  -0.812  -0.807  -0.806
 -0.802  -0.801  -0.796  -0.792  -0.791  -0.779  -0.768  -0.766
 -0.753  -0.747  -0.741  -0.738  -0.721  -0.719  -0.709  -0.706
 -0.694  -0.694  -0.680  -0.673  -0.661  -0.649  -0.648  -0.643
 -0.639  -0.632  -0.629  -0.622  -0.619  -0.608  -0.597  -0.593
 -0.592  -0.586  -0.584  -0.583  -0.582  -0.579  -0.571  -0.559
 -0.557  -0.556  -0.540  -0.535  -0.523  -0.522  -0.514  -0.512
 -0.511  -0.503  -0.499  -0.496  -0.489  -0.483  -0.479  -0.477
 -0.476  -0.471  -0.471  -0.470  -0.468  -0.457  -0.451  -0.450
 -0.441  -0.440  -0.439  -0.437  -0.435  -0.435  -0.434  -0.434
 -0.429  -0.427  -0.424  -0.422  -0.420  -0.417  -0.415  -0.414
 -0.411  -0.410  -0.406  -0.404  -0.401  -0.401  -0.400  -0.396
 -0.395  -0.390  -0.390  -0.388  -0.387  -0.383  -0.382  -0.379
 -0.379  -0.379  -0.376  -0.371  -0.368  -0.366  -0.355  -0.354
 -0.353  -0.351  -0.349  -0.347  -0.346  -0.342  -0.342  -0.341
 -0.338  -0.335  -0.332  -0.330  -0.330  -0.326  -0.323  -0.323
 -0.310  -0.309  -0.306  -0.305  -0.303  -0.302  -0.299  -0.298
 -0.298  -0.294  -0.293  -0.289  -0.288  -0.284  -0.283  -0.278
 -0.278  -0.273  -0.268  -0.264  -0.256  -0.253  -0.249  -0.246
 -0.244  -0.239  -0.231  -0.230  -0.197  -0.192

          Ground-State Mulliken Net Atomic Charges

     Atom                 Charge (a.u.)
  ----------------------------------------
      1 C                     0.287518
      2 C                    -0.106860
      3 N                    -0.489057
      4 C                    -0.070245
      5 C                     0.101565
      6 C                     0.013222
      7 C                     0.003907
      8 C                     0.055891
      9 C                     0.272415
     10 N                    -0.511401
     11 N                    -0.575420
     12 C                     0.237079
     13 C                     0.304461
     14 S                     0.614199
     15 N                    -0.585178
     16 C                    -0.208329
     17 S                     0.305319
     18 C                    -0.154193
     19 C                    -0.236506
     20 S                     0.273957
     21 C                     0.205251
     22 C                     0.067203
     23 C                    -0.313493
     24 C                    -0.063951
     25 N                    -0.451617
     26 S                     0.272503
     27 C                     0.131928
     28 C                    -0.308578
     29 C                    -0.244420
     30 H                     0.090779
     31 H                     0.111726
     32 H                     0.124042
     33 H                     0.104480
     34 H                     0.135377
     35 H                     0.125651
     36 H                     0.116256
     37 H                     0.133337
     38 H                     0.104748
     39 C                    -0.182846
     40 H                     0.110551
     41 H                     0.103178
     42 H                     0.093541
     43 C                    -0.183036
     44 H                     0.094518
     45 C                    -0.167463
     46 H                     0.098791
     47 H                     0.090746
     48 H                     0.089730
     49 C                    -0.173053
     50 H                     0.087922
     51 C                    -0.319984
     52 H                     0.090958
     53 H                     0.103918
     54 H                     0.102579
     55 H                     0.093125
     56 C                     0.275115
     57 C                    -0.128245
     58 N                    -0.490559
     59 C                    -0.094494
     60 C                     0.070772
     61 C                     0.048709
     62 C                     0.061308
     63 C                     0.048205
     64 C                     0.218374
     65 N                    -0.549596
     66 N                    -0.535622
     67 C                     0.164796
     68 C                     0.346722
     69 S                     0.608690
     70 N                    -0.578867
     71 C                    -0.227391
     72 S                     0.321431
     73 C                    -0.101150
     74 C                    -0.218736
     75 S                     0.271148
     76 C                     0.161557
     77 C                     0.021455
     78 C                    -0.309534
     79 C                    -0.049936
     80 N                    -0.429939
     81 S                     0.294876
     82 C                     0.142169
     83 C                    -0.317917
     84 C                    -0.225941
     85 H                     0.087440
     86 H                     0.099836
     87 H                     0.126912
     88 H                     0.112873
     89 H                     0.124435
     90 H                     0.130933
     91 H                     0.112809
     92 H                     0.139230
     93 H                     0.095374
     94 C                    -0.174140
     95 H                     0.123756
     96 H                     0.099342
     97 H                     0.128727
     98 C                    -0.200809
     99 H                     0.086023
    100 C                    -0.176324
    101 H                     0.085079
    102 H                     0.095471
    103 H                     0.094697
    104 C                    -0.173244
    105 H                     0.094712
    106 C                    -0.314169
    107 H                     0.099247
    108 H                     0.101627
    109 H                     0.102171
    110 H                     0.093848
  ----------------------------------------
  Sum of atomic charges =     0.000000

                    Cartesian Multipole Moments
 -----------------------------------------------------------------
    Charge (ESU x 10^10)
                 0.0000
    Dipole Moment (Debye)
         X       0.8103      Y       0.3341      Z      -0.2720
       Tot       0.9177
    Quadrupole Moments (Debye-Ang)
        XX    -412.6651     XY      -2.6297     YY    -423.6051
        XZ     -15.7627     YZ      18.4243     ZZ    -434.2206

 Total job time:  90.88s(wall), 1068.92s(cpu)
        *  Thank you very much for using Q-Chem.  Have a nice day.  *
