 Q-Chem 4.4, Q-Chem, Inc., Pleasanton, CA (2016)
 Q-Chem 4.4.2 for Intel X86 Linux

User input:
--------------------------------------------------------------
$comment
SP
$end

$rem
MEM_STATIC 5000
MEM_TOTAL 20000
JOBTYPE SP
EXCHANGE B3LYP
BASIS 6-31g(d,p)
$end

$molecule
0 1
C         -21.758000     -3.179000      2.082000
C         -22.947000     -3.642000      1.610000
N         -21.051000     -3.801000      3.033000
C         -23.706000     -4.658000      2.210000
C         -21.677000     -4.803000      3.628000
C         -23.005000     -5.277000      3.261000
C         -23.697000     -6.424000      3.951000
C         -25.160000     -6.427000      4.154000
C         -23.135000     -7.640000      4.301000
N         -25.898000     -7.468000      4.450000
N         -21.826000     -7.873000      4.269000
C         -23.924000     -8.758000      4.641000
C         -25.302000     -8.701000      4.542000
S         -21.625000     -9.356000      4.847000
N         -23.167000     -9.800000      5.021000
C         -26.231000     -9.794000      4.769000
S         -27.864000     -9.698000      5.567000
C         -26.058000    -11.099000      4.271000
C         -28.247000    -11.359000      5.185000
S         -24.868000    -11.714000      3.158000
C         -27.133000    -11.912000      4.528000
C         -29.436000    -12.127000      5.495000
C         -25.773000    -13.268000      3.095000
C         -26.979000    -13.192000      3.836000
N         -29.234000    -13.327000      5.943000
S         -30.936000    -11.306000      5.899000
C         -30.384000    -13.772000      6.547000
C         -31.430000    -12.834000      6.580000
C         -20.963000     -2.099000      1.365000
H         -23.384000     -3.194000      0.724000
H         -24.706000     -4.930000      1.885000
H         -21.121000     -5.423000      4.330000
H         -25.698000     -5.488000      4.030000
H         -25.331000    -14.040000      2.480000
H         -27.666000    -14.031000      3.853000
H         -30.405000    -14.814000      6.837000
H         -32.459000    -12.957000      6.887000
H         -19.878000     -2.215000      1.485000
C         -21.512000     -0.659000      1.628000
H         -21.088000     -2.275000      0.290000
H         -21.319000     -0.381000      2.671000
H         -22.576000     -0.752000      1.377000
C         -20.866000      0.362000      0.711000
H         -19.853000      0.561000      1.082000
C         -21.688000      1.682000      0.600000
H         -20.754000      0.003000     -0.319000
H         -21.607000      2.313000      1.492000
H         -22.736000      1.461000      0.363000
C         -21.101000      2.691000     -0.493000
H         -21.714000      3.596000     -0.580000
C         -20.956000      2.039000     -1.913000
H         -20.129000      3.010000     -0.094000
H         -19.967000      1.591000     -2.066000
H         -21.226000      2.755000     -2.700000
H         -21.740000      1.297000     -2.109000
C         -22.081000    -13.277000     -4.137000
C         -21.760000    -12.009000     -3.679000
N         -23.203000    -13.909000     -3.685000
C         -22.510000    -11.375000     -2.639000
C         -23.937000    -13.377000     -2.705000
C         -23.648000    -12.062000     -2.140000
C         -24.536000    -11.325000     -1.195000
C         -25.982000    -11.570000     -1.212000
C         -24.132000    -10.260000     -0.341000
N         -26.897000    -11.012000     -0.334000
N         -22.877000     -9.871000     -0.170000
C         -25.087000     -9.663000      0.498000
C         -26.479000    -10.016000      0.469000
S         -23.027000     -8.707000      0.981000
N         -24.589000     -8.756000      1.387000
C         -27.563000     -9.363000      1.264000
S         -27.610000     -7.642000      1.755000
C         -28.806000     -9.938000      1.493000
C         -29.141000     -7.862000      2.551000
S         -29.359000    -11.538000      1.132000
C         -29.650000     -9.152000      2.274000
C         -29.773000     -6.841000      3.363000
C         -30.934000    -11.000000      1.895000
C         -30.918000     -9.804000      2.559000
N         -30.911000     -7.154000      3.926000
S         -29.277000     -5.160000      3.339000
C         -31.350000     -6.140000      4.679000
C         -30.510000     -5.013000      4.554000
C         -21.418000    -13.952000     -5.383000
H         -20.960000    -11.489000     -4.198000
H         -22.338000    -10.330000     -2.398000
H         -24.776000    -13.977000     -2.356000
H         -26.377000    -12.347000     -1.865000
H         -31.768000    -11.688000      1.857000
H         -31.719000     -9.236000      3.017000
H         -32.205000     -6.219000      5.337000
H         -30.508000     -4.028000      5.000000
H         -20.360000    -13.665000     -5.424000
C         -22.051000    -13.458000     -6.693000
H         -21.389000    -15.048000     -5.415000
H         -21.928000    -12.372000     -6.782000
H         -23.120000    -13.644000     -6.858000
C         -21.288000    -14.071000     -7.914000
H         -20.260000    -13.902000     -7.567000
C         -21.509000    -13.261000     -9.195000
H         -21.349000    -15.164000     -7.991000
H         -21.385000    -12.189000     -8.997000
H         -22.550000    -13.314000     -9.538000
C         -20.514000    -13.521000    -10.374000
H         -20.614000    -12.812000    -11.206000
C         -20.546000    -15.006000    -10.810000
H         -19.508000    -13.295000    -10.001000
H         -21.365000    -15.189000    -11.518000
H         -20.586000    -15.668000     -9.936000
H         -19.572000    -15.224000    -11.265000
$end

--------------------------------------------------------------

             Standard Nuclear Orientation (Angstroms)
    I     Atom           X                Y                Z
 ----------------------------------------------------------------
    1      C       0.6748978517     6.6572671186    -0.9613600438
    2      C       0.7313275493     5.7145640446     0.0179257182
    3      N       0.8923365125     6.3893877768    -2.2544552015
    4      C       1.2619649375     4.4255470581    -0.1408072983
    5      C       1.3577876383     5.1761674414    -2.5021579817
    6      C       1.5640589339     4.1513625414    -1.4871820857
    7      C       2.0919056070     2.7737197855    -1.7938599734
    8      C       2.9772460207     2.0634895856    -0.8486973339
    9      C       1.7037488156     1.9521278330    -2.8385230621
   10      N       3.2440338568     0.7810130739    -0.8530845179
   11      N       0.9561856420     2.3716141327    -3.8553684514
   12      C       2.0063427470     0.5751493604    -2.8588257395
   13      C       2.6253269435    -0.0236386108    -1.7770468665
   14      S       0.8440134346     1.1302284269    -4.8653946517
   15      N       1.6023685235    -0.0028712782    -4.0015899182
   16      C       2.9139209720    -1.4383246897    -1.6202164325
   17      S       4.3955171928    -2.1786617558    -0.8655756791
   18      C       2.0045533830    -2.4712769743    -1.9152048488
   19      C       3.7392418823    -3.7953779118    -0.9496327295
   20      S       0.3196328243    -2.3778438684    -2.3457939400
   21      C       2.4799916748    -3.7113974443    -1.5706723385
   22      C       4.3283070850    -5.0533998604    -0.5372882572
   23      C       0.2132268777    -4.1681199990    -2.1991680526
   24      C       1.4314879746    -4.7196256798    -1.7290889276
   25      N       4.2022030822    -6.0379905582    -1.3716664319
   26      S       5.6605913213    -5.0701728413     0.6081349751
   27      C       5.1137681529    -7.0118584514    -1.0461338708
   28      C       5.9602114192    -6.6876022174     0.0278496913
   29      C       0.0527308526     8.0266905707    -0.7375261007
   30      H       0.3767711430     5.9540643723     1.0147197530
   31      H       1.4054819276     3.7313639643     0.6820667540
   32      H       1.4494392072     4.8534431606    -3.5383959025
   33      H       3.4464229178     2.6395897999    -0.0521280762
   34      H      -0.7510881007    -4.5982705610    -2.4329203068
   35      H       1.5131875954    -5.7835752129    -1.5353995806
   36      H       5.0213276953    -7.9541181331    -1.5694946010
   37      H       6.6763906617    -7.3032510040     0.5534758551
   38      H      -0.4236915864     8.4331742350    -1.6391211818
   39      C       1.0017220620     9.0137645390     0.0169741748
   40      H      -0.8102151645     7.8782397028    -0.0775923833
   41      H       1.8382370676     9.2860096024    -0.6376304928
   42      H       1.2944528846     8.4417824530     0.9062947912
   43      C       0.2726114888    10.2727673255     0.4458748108
   44      H       0.1362045216    10.9062515391    -0.4392816107
   45      C       1.0157115028    11.0475421585     1.5763310582
   46      H      -0.7302109846    10.0735729199     0.8420990851
   47      H       1.8997763155    11.5856045055     1.2167419625
   48      H       1.2704567884    10.3699578549     2.4005266362
   49      C       0.1697841970    12.2786875208     2.1472838498
   50      H       0.6948710682    12.7870504491     2.9647273713
   51      C      -1.2588862674    11.8617310831     2.6448549834
   52      H       0.1150248529    12.9963148684     1.3179718432
   53      H      -2.0156196260    11.9477952630     1.8560701072
   54      H      -1.5293422619    12.4098061225     3.5566621485
   55      H      -1.2698633960    10.8497941891     3.0685284723
   56      C      -7.4506799022    -1.9813010670    -0.6451008636
   57      C      -6.8295064104    -0.7436347349    -0.6994565773
   58      N      -6.7361016687    -3.0967518190    -0.3168333383
   59      C      -5.4146463880    -0.6068520155    -0.5397142703
   60      C      -5.4105553559    -3.0382450170    -0.1695787063
   61      C      -4.6720105544    -1.7810440576    -0.2468336341
   62      C      -3.2323885754    -1.6136488151     0.1055942171
   63      C      -2.6112773214    -2.5148268449     1.0819798831
   64      C      -2.3981753824    -0.5388303604    -0.3134650125
   65      N      -1.2702819093    -2.5133033030     1.4301206356
   66      N      -2.7540973724     0.3886049529    -1.1902604714
   67      C      -1.0562996386    -0.5197087403     0.1004901203
   68      C      -0.5064600228    -1.4892929153     1.0064133645
   69      S      -1.3745584600     1.2689736295    -1.3452455757
   70      N      -0.2913372017     0.4589631422    -0.4634316975
   71      C       0.8817055411    -1.4796410755     1.5599413306
   72      S       1.8577061449    -0.0212368218     1.9143575466
   73      C       1.4944531696    -2.5889860945     2.1273996750
   74      C       3.1851482961    -0.9903527867     2.4841720618
   75      S       0.9588001347    -4.2342237094     2.1763794352
   76      C       2.7958055948    -2.3476881164     2.5613929366
   77      C       4.4828186350    -0.4439222612     2.8286635314
   78      C       2.5264126128    -4.5568972429     3.0655987048
   79      C       3.4412069640    -3.5399099589     3.0869565873
   80      N       5.3980407980    -1.2937273280     3.2161964213
   81      S       4.7620266149     1.2687623496     3.0758624951
   82      C       6.5505162914    -0.6581331531     3.4523029266
   83      C       6.3992013673     0.7378937420     3.3124218984
   84      C      -9.0021231872    -2.1828761690    -0.6350404629
   85      H      -7.4753744803     0.1245658201    -0.7934950405
   86      H      -4.9671647619     0.3774756003    -0.4370042950
   87      H      -4.9085230335    -3.9848516955     0.0243835155
   88      H      -3.1945646872    -3.3448082861     1.4783000266
   89      H       2.6851271265    -5.5548135103     3.4520140597
   90      H       4.3901068257    -3.4498681574     3.6021949073
   91      H       7.4783349463    -1.1738389355     3.6607017979
   92      H       7.0767122188     1.5762903820     3.3973637617
   93      H      -9.4648756002    -1.4256851351    -1.2799714224
   94      C      -9.5872832730    -1.9703314239     0.7696792263
   95      H      -9.3966401851    -3.1291735229    -1.0248592108
   96      H      -9.3687328465    -0.9532134876     1.1163098869
   97      H      -9.2527313721    -2.6315563601     1.5792708575
   98      C     -11.1478806990    -2.0714855823     0.7141588691
   99      H     -11.3207679932    -1.4557450612    -0.1784371168
  100      C     -11.8109098714    -1.3875448158     1.9135417707
  101      H     -11.5333099624    -3.0551798027     0.4173610192
  102      H     -11.3657062475    -0.3997104941     2.0859978120
  103      H     -11.5908683321    -1.9078863004     2.8542677991
  104      C     -13.3380336347    -1.0711558647     1.7892154139
  105      H     -13.7310256997    -0.4456993309     2.6011676053
  106      C     -14.1543209511    -2.3632983785     1.5434762408
  107      H     -13.4606396809    -0.4174203438     0.9175281844
  108      H     -14.3805746872    -2.8700328900     2.4908639026
  109      H     -13.6430957436    -3.0165868773     0.8254352081
  110      H     -15.0730641252    -2.0640940614     1.0242337574
 ----------------------------------------------------------------

   10   -5663.4845948039      7.23E-06 Convergence criterion met
 Total energy in the final basis set = -5663.4845948039

                    Orbital Energies (a.u.)
 --------------------------------------------------------------

 Alpha MOs
 -- Occupied --
-88.984 -88.984 -88.928 -88.927 -88.924 -88.920 -88.906 -88.903
-14.393 -14.384 -14.375 -14.369 -14.350 -14.345 -14.342 -14.341
-14.329 -14.328 -10.266 -10.266 -10.263 -10.257 -10.256 -10.252
-10.246 -10.245 -10.244 -10.238 -10.238 -10.236 -10.235 -10.234
-10.234 -10.234 -10.234 -10.233 -10.232 -10.229 -10.229 -10.225
-10.225 -10.223 -10.222 -10.222 -10.222 -10.222 -10.219 -10.219
-10.214 -10.212 -10.205 -10.204 -10.201 -10.201 -10.195 -10.195
-10.191 -10.183 -10.182 -10.182 -10.181 -10.180 -10.179 -10.179
-10.178 -10.177 -10.174 -10.170  -8.040  -8.040  -7.990  -7.988
 -7.982  -7.979  -7.965  -7.963  -6.005  -6.005  -6.000  -5.999
 -5.998  -5.998  -5.953  -5.951  -5.950  -5.948  -5.947  -5.946
 -5.945  -5.943  -5.943  -5.939  -5.939  -5.936  -5.930  -5.928
 -5.926  -5.924  -5.921  -5.919  -1.046  -1.043  -0.981  -0.977
 -0.954  -0.947  -0.947  -0.933  -0.917  -0.906  -0.903  -0.899
 -0.837  -0.833  -0.828  -0.827  -0.812  -0.810  -0.809  -0.805
 -0.805  -0.797  -0.793  -0.789  -0.780  -0.778  -0.761  -0.760
 -0.744  -0.744  -0.735  -0.731  -0.719  -0.717  -0.704  -0.704
 -0.688  -0.685  -0.669  -0.664  -0.653  -0.651  -0.646  -0.643
 -0.633  -0.630  -0.626  -0.623  -0.611  -0.609  -0.597  -0.596
 -0.591  -0.587  -0.584  -0.581  -0.574  -0.573  -0.565  -0.562
 -0.551  -0.546  -0.538  -0.532  -0.521  -0.520  -0.512  -0.511
 -0.506  -0.502  -0.501  -0.499  -0.487  -0.484  -0.477  -0.473
 -0.472  -0.470  -0.466  -0.466  -0.462  -0.459  -0.446  -0.446
 -0.442  -0.441  -0.438  -0.433  -0.432  -0.431  -0.429  -0.428
 -0.425  -0.424  -0.421  -0.417  -0.415  -0.413  -0.412  -0.410
 -0.409  -0.407  -0.405  -0.402  -0.396  -0.396  -0.393  -0.390
 -0.390  -0.388  -0.387  -0.387  -0.385  -0.384  -0.381  -0.381
 -0.378  -0.376  -0.373  -0.368  -0.368  -0.362  -0.356  -0.353
 -0.352  -0.351  -0.347  -0.344  -0.343  -0.343  -0.339  -0.338
 -0.337  -0.336  -0.335  -0.331  -0.329  -0.325  -0.324  -0.323
 -0.320  -0.311  -0.311  -0.307  -0.303  -0.302  -0.300  -0.298
 -0.296  -0.295  -0.293  -0.291  -0.289  -0.286  -0.283  -0.281
 -0.273  -0.271  -0.265  -0.260  -0.254  -0.249  -0.247  -0.244
 -0.242  -0.235  -0.228  -0.225  -0.188  -0.186

          Ground-State Mulliken Net Atomic Charges

     Atom                 Charge (a.u.)
  ----------------------------------------
      1 C                     0.270903
      2 C                    -0.118991
      3 N                    -0.462598
      4 C                    -0.064707
      5 C                     0.089175
      6 C                     0.003326
      7 C                     0.000690
      8 C                     0.066127
      9 C                     0.221454
     10 N                    -0.491824
     11 N                    -0.555254
     12 C                     0.230844
     13 C                     0.270841
     14 S                     0.605307
     15 N                    -0.544460
     16 C                    -0.232739
     17 S                     0.330003
     18 C                    -0.102509
     19 C                    -0.199458
     20 S                     0.248443
     21 C                     0.139309
     22 C                     0.039652
     23 C                    -0.307712
     24 C                    -0.054013
     25 N                    -0.392486
     26 S                     0.283230
     27 C                     0.111756
     28 C                    -0.314507
     29 C                    -0.236267
     30 H                     0.081377
     31 H                     0.119410
     32 H                     0.120293
     33 H                     0.101931
     34 H                     0.134252
     35 H                     0.115679
     36 H                     0.115655
     37 H                     0.136211
     38 H                     0.114767
     39 C                    -0.170313
     40 H                     0.096508
     41 H                     0.108407
     42 H                     0.090941
     43 C                    -0.173322
     44 H                     0.093410
     45 C                    -0.181483
     46 H                     0.095961
     47 H                     0.091954
     48 H                     0.088929
     49 C                    -0.186226
     50 H                     0.093317
     51 C                    -0.323311
     52 H                     0.096043
     53 H                     0.110397
     54 H                     0.097968
     55 H                     0.100832
     56 C                     0.257204
     57 C                    -0.125952
     58 N                    -0.467988
     59 C                    -0.061247
     60 C                     0.075345
     61 C                     0.019929
     62 C                     0.028365
     63 C                     0.044058
     64 C                     0.237376
     65 N                    -0.518576
     66 N                    -0.559239
     67 C                     0.184352
     68 C                     0.303221
     69 S                     0.599245
     70 N                    -0.542662
     71 C                    -0.214212
     72 S                     0.309782
     73 C                    -0.098825
     74 C                    -0.233159
     75 S                     0.278391
     76 C                     0.144612
     77 C                     0.100623
     78 C                    -0.315202
     79 C                    -0.033573
     80 N                    -0.444250
     81 S                     0.265584
     82 C                     0.137132
     83 C                    -0.320389
     84 C                    -0.220566
     85 H                     0.088262
     86 H                     0.124033
     87 H                     0.105528
     88 H                     0.113810
     89 H                     0.117557
     90 H                     0.130225
     91 H                     0.117543
     92 H                     0.126009
     93 H                     0.096012
     94 C                    -0.172379
     95 H                     0.117438
     96 H                     0.093125
     97 H                     0.109474
     98 C                    -0.180102
     99 H                     0.087696
    100 C                    -0.176406
    101 H                     0.098887
    102 H                     0.086322
    103 H                     0.091124
    104 C                    -0.182373
    105 H                     0.090715
    106 C                    -0.314747
    107 H                     0.090740
    108 H                     0.105848
    109 H                     0.105527
    110 H                     0.097626
  ----------------------------------------
  Sum of atomic charges =     0.000000

                    Cartesian Multipole Moments
 -----------------------------------------------------------------
    Charge (ESU x 10^10)
                 0.0000
    Dipole Moment (Debye)
         X       1.7012      Y       0.2631      Z       3.0409
       Tot       3.4944
    Quadrupole Moments (Debye-Ang)
        XX    -413.8694     XY     -21.3517     YY    -425.6533
        XZ      17.8611     YZ       7.6350     ZZ    -450.0035

 Total job time:  109.80s(wall), 1291.96s(cpu)
        *  Thank you very much for using Q-Chem.  Have a nice day.  *
