 Q-Chem 4.4, Q-Chem, Inc., Pleasanton, CA (2016)
 Q-Chem 4.4.2 for Intel X86 Linux

User input:
--------------------------------------------------------------
$comment
SP
$end

$rem
MEM_STATIC 5000
MEM_TOTAL 20000
JOBTYPE SP
EXCHANGE B3LYP
BASIS 6-31g(d,p)
$end

$molecule
0 1
C          17.259000     15.213000    -13.091000
C          18.184000     14.177000    -13.305000
N          17.360000     16.038000    -12.056000
C          19.307000     14.022000    -12.518000
C          18.370000     15.834000    -11.178000
C          19.442000     14.950000    -11.430000
C          20.653000     14.788000    -10.556000
C          20.632000     15.261000     -9.222000
C          21.924000     14.432000    -11.030000
N          21.744000     15.251000     -8.435000
N          22.234000     14.061000    -12.301000
C          23.033000     14.417000    -10.171000
C          22.907000     14.856000     -8.872000
S          23.778000     13.777000    -12.364000
N          24.149000     13.896000    -10.749000
C          23.957000     14.625000     -7.865000
S          25.431000     13.690000     -8.132000
C          23.837000     14.954000     -6.546000
C          25.685000     13.455000     -6.502000
S          22.741000     16.095000     -5.717000
C          24.764000     14.257000     -5.810000
C          26.833000     12.736000     -5.984000
C          23.566000     15.540000     -4.199000
C          24.625000     14.642000     -4.431000
N          27.639000     12.197000     -6.908000
S          26.976000     12.176000     -4.391000
C          28.499000     11.397000     -6.314000
C          28.219000     11.151000     -4.997000
C          16.012000     15.363000    -14.044000
H          17.984000     13.580000    -14.190000
H          20.016000     13.212000    -12.664000
H          18.544000     16.581000    -10.407000
H          19.672000     15.601000     -8.838000
H          23.133000     15.988000     -3.314000
H          25.355000     14.320000     -3.696000
H          29.364000     11.077000     -6.879000
H          28.791000     10.591000     -4.268000
H          15.444000     14.424000    -14.051000
C          16.350000     15.757000    -15.527000
H          15.296000     16.051000    -13.579000
H          17.195000     15.196000    -15.944000
H          16.615000     16.820000    -15.572000
C          15.162000     15.428000    -16.492000
H          14.991000     14.353000    -16.362000
C          15.386000     15.890000    -17.956000
H          14.200000     15.747000    -16.072000
H          16.275000     15.408000    -18.381000
H          15.665000     16.950000    -17.942000
C          14.220000     15.781000    -18.936000
H          13.372000     16.364000    -18.555000
C          13.882000     14.251000    -19.221000
H          14.457000     16.196000    -19.924000
H          14.802000     13.677000    -19.391000
H          13.253000     14.234000    -20.121000
H          13.253000     13.771000    -18.462000
C          20.078000     12.422000     -7.602000
C          21.343000     12.016000     -7.806000
N          19.146000     12.422000     -8.546000
C          21.676000     11.272000     -8.960000
C          19.384000     11.744000     -9.658000
C          20.649000     11.152000     -9.901000
C          20.891000     10.224000    -11.043000
C          22.197000     10.112000    -11.631000
C          19.911000      9.261000    -11.510000
N          22.598000      9.186000    -12.518000
N          18.638000      9.215000    -11.178000
C          20.293000      8.400000    -12.491000
C          21.629000      8.321000    -12.919000
S          17.942000      7.924000    -11.954000
N          19.285000      7.575000    -12.878000
C          22.124000      7.345000    -13.895000
S          21.049000      6.276000    -14.843000
C          23.437000      6.992000    -14.142000
C          22.511000      5.577000    -15.697000
S          24.899000      7.926000    -13.659000
C          23.630000      6.097000    -15.131000
C          22.392000      4.770000    -16.839000
C          25.814000      6.990000    -14.900000
C          24.945000      6.164000    -15.633000
N          23.466000      4.233000    -17.397000
S          20.994000      4.780000    -17.813000
C          23.139000      3.633000    -18.596000
C          21.858000      3.784000    -18.957000
C          19.754000     13.190000     -6.314000
H          22.115000     12.252000     -7.080000
H          22.649000     10.802000     -9.070000
H          18.557000     11.698000    -10.366000
H          23.016000     10.682000    -11.192000
H          26.895000      7.040000    -14.892000
H          25.208000      5.606000    -16.525000
H          23.898000      3.143000    -19.192000
H          21.333000      3.280000    -19.759000
H          20.467000     13.956000     -5.984000
C          19.428000     12.237000     -5.109000
H          18.877000     13.826000     -6.484000
H          18.576000     11.602000     -5.383000
H          19.207000     12.919000     -4.279000
C          20.615000     11.309000     -4.629000
H          20.300000     10.590000     -3.863000
C          21.844000     12.155000     -4.171000
H          20.988000     10.711000     -5.470000
H          21.492000     12.764000     -3.328000
H          22.348000     12.710000     -4.972000
C          22.940000     11.245000     -3.682000
H          23.789000     11.805000     -3.269000
C          23.594000     10.447000     -4.779000
H          22.542000     10.611000     -2.880000
H          22.888000      9.693000     -5.150000
H          24.465000      9.868000     -4.446000
H          23.818000     11.049000     -5.668000
$end

--------------------------------------------------------------

             Standard Nuclear Orientation (Angstroms)
    I     Atom           X                Y                Z
 ----------------------------------------------------------------
    1      C      -1.7399350014    -5.9245360160     0.1816199568
    2      C      -2.0382734872    -4.5613378060     0.3471548115
    3      N      -0.4893952969    -6.3692448022     0.1607502928
    4      C      -1.0602274122    -3.6222288828     0.6041048172
    5      C       0.5089221923    -5.4613852116     0.2691622597
    6      C       0.2885816917    -4.1151422914     0.6341609769
    7      C       1.3669373115    -3.1039019712     0.9009627237
    8      C       2.6886851698    -3.3435636504     0.4545650551
    9      C       1.2379933663    -2.0336574780     1.7980709579
   10      N       3.7220857101    -2.5186274092     0.7825536547
   11      N       0.1068133762    -1.6696746597     2.4592292885
   12      C       2.3296970689    -1.2004204793     2.0842284842
   13      C       3.5731362159    -1.4886186453     1.5677026815
   14      S       0.4473676928    -0.4316971816     3.3647653293
   15      N       1.9938738836    -0.1220781306     2.8427675848
   16      C       4.6835546079    -0.5221934463     1.6215852335
   17      S       4.5624098833     1.1296027613     2.2340256339
   18      C       5.9012620203    -0.7235079054     1.0392939435
   19      C       5.9390580244     1.6229480318     1.4352194372
   20      S       6.7096993656    -2.2220124185     0.4996169261
   21      C       6.5506729305     0.4787898220     0.8993666612
   22      C       6.4667954962     2.9694677448     1.5427686049
   23      C       8.0492868937    -1.1206652159    -0.0347177948
   24      C       7.8359947172     0.2290198143     0.3037578569
   25      N       5.7265910336     3.8214936634     2.2639358445
   26      S       7.6430715274     3.6244122976     0.5136328844
   27      C       6.1910299490     5.0416904699     2.0970459187
   28      C       7.1202999215     5.1565049046     1.0987073169
   29      C      -2.9023475421    -6.9583327457    -0.0748550071
   30      H      -3.1009813872    -4.3370943439     0.3480431328
   31      H      -1.2800202519    -2.5639701408     0.7130843689
   32      H       1.5269643075    -5.8240298504     0.3908385416
   33      H       2.8371365887    -4.2019155910    -0.1980068736
   34      H       8.8423983033    -1.6593167617    -0.5369595735
   35      H       8.5720650684     1.0230093433     0.2360078311
   36      H       5.8651797643     5.8049917394     2.7906184304
   37      H       7.7022778353     6.0193729449     0.8004030209
   38      H      -3.4778193309    -6.6479443878    -0.9562659712
   39      C      -3.8936566928    -7.1585760937     1.1276331505
   40      H      -2.4627800349    -7.9020547067    -0.4189396870
   41      H      -4.1980864603    -6.2175396590     1.6013503080
   42      H      -3.4120684057    -7.7681175966     1.9014230949
   43      C      -5.2416692947    -7.8011287245     0.6577415228
   44      H      -5.6247047011    -7.1119366785    -0.1038779367
   45      C      -6.2267691170    -8.1260976992     1.8113833675
   46      H      -5.0717571791    -8.6420388763    -0.0260749654
   47      H      -6.4913493382    -7.2145031230     2.3611675391
   48      H      -5.6915246035    -8.7186170825     2.5624300313
   49      C      -7.4907989355    -8.9173338189     1.4827330660
   50      H      -7.2090738003    -9.8798989722     1.0374766524
   51      C      -8.4675487098    -8.0431109751     0.5782645493
   52      H      -8.0852828474    -9.1551538472     2.3741187920
   53      H      -8.5421180792    -7.0195054755     0.9674267137
   54      H      -9.4487220209    -8.5349172195     0.6150823667
   55      H      -8.2239804152    -8.0411640756    -0.4907502754
   56      C       2.7307478920    -1.4745435236    -2.2833596138
   57      C       2.8094615601    -0.3466356600    -1.5565136812
   58      N       1.6189775951    -2.1859540305    -2.4161071088
   59      C       1.6337956994     0.3182682132    -1.1419613644
   60      C       0.4745710226    -1.6294539406    -2.0507124636
   61      C       0.4444006613    -0.3681352957    -1.4042582692
   62      C      -0.8259386382     0.3724245264    -1.1558207241
   63      C      -0.9411701314     1.2759052170    -0.0447994170
   64      C      -1.9390095708     0.3820738184    -2.0868620713
   65      N      -1.9410004773     2.1450082290     0.1789085041
   66      N      -2.0952114248    -0.4064840094    -3.1292854656
   67      C      -2.9987372741     1.1819153166    -1.7921812734
   68      C      -2.9543563598     2.0959207924    -0.7259048905
   69      S      -3.5111487798     0.0066134119    -3.8893808065
   70      N      -3.9967720630     1.0785212525    -2.7085295846
   71      C      -4.0193006307     3.0566457686    -0.4208176574
   72      S      -5.6165588985     3.0364342346    -1.2242151429
   73      C      -3.9398056737     4.1737207286     0.3887569751
   74      C      -6.1456508029     4.4523224411    -0.1894768459
   75      S      -2.6657726312     4.5098799308     1.6163260353
   76      C      -5.0825766039     4.8712251638     0.5435379946
   77      C      -7.4859503853     4.8618615766    -0.1156613606
   78      C      -3.8015027022     5.6981777020     2.3589346890
   79      C      -5.0487670477     5.6568083940     1.7129112893
   80      N      -7.8251131177     5.9256870471     0.5959937590
   81      S      -8.7730544600     3.8280696652    -0.5373453477
   82      C      -9.1984266270     6.0381348173     0.6727759450
   83      C      -9.8674081605     5.0353171886     0.0889065149
   84      C       4.0332857827    -2.1387585624    -2.7480718103
   85      H       3.7787268714     0.0636653239    -1.2901795696
   86      H       1.6701377339     1.3063083169    -0.6923114895
   87      H      -0.4202283739    -2.2148991919    -2.2602283290
   88      H      -0.0649751597     1.4452664739     0.5812845520
   89      H      -3.4174593276     6.3864348636     3.1005125783
   90      H      -5.9487139587     6.1619252378     2.0463022481
   91      H      -9.6548334607     6.8527705546     1.2200038845
   92      H     -10.9288843566     4.9809271915    -0.1188313327
   93      H       4.8613748790    -2.1948260108    -2.0303323800
   94      C       4.5643624682    -1.5443267166    -4.1012600214
   95      H       3.8576705313    -3.2105175447    -2.8997852483
   96      H       3.7913730321    -1.6727341611    -4.8695072862
   97      H       5.4758089522    -2.1183420905    -4.3077464793
   98      C       4.9875870119    -0.0212303292    -4.0611180187
   99      H       5.2435586062     0.3678028614    -5.0541304655
  100      C       6.1276029878     0.2213181094    -3.0231128022
  101      H       4.1511246621     0.5917520759    -3.7025133500
  102      H       6.9771767808    -0.3855108584    -3.3628435401
  103      H       5.8375018947     0.0765033086    -1.9750135563
  104      C       6.5357724940     1.6710082069    -3.0383861624
  105      H       7.3956577968     1.8654438014    -2.3843509450
  106      C       5.4926676880     2.5960273001    -2.4689996147
  107      H       6.8295837207     1.9451314154    -4.0592169171
  108      H       4.6368485644     2.6441721184    -3.1544547219
  109      H       5.8283285773     3.6367870597    -2.3745438572
  110      H       5.0542890311     2.2208724376    -1.5362702958
 ----------------------------------------------------------------

   10   -5663.4892752189      5.03E-06 Convergence criterion met
 Total energy in the final basis set = -5663.4892752189

                    Orbital Energies (a.u.)
 --------------------------------------------------------------

 Alpha MOs
 -- Occupied --
-88.994 -88.988 -88.934 -88.924 -88.922 -88.919 -88.914 -88.905
-14.389 -14.380 -14.378 -14.378 -14.355 -14.344 -14.339 -14.339
-14.328 -14.322 -10.266 -10.263 -10.263 -10.254 -10.253 -10.253
-10.252 -10.245 -10.243 -10.240 -10.239 -10.238 -10.234 -10.234
-10.230 -10.228 -10.227 -10.227 -10.227 -10.227 -10.226 -10.225
-10.225 -10.225 -10.224 -10.221 -10.221 -10.215 -10.214 -10.212
-10.210 -10.210 -10.207 -10.206 -10.201 -10.194 -10.193 -10.190
-10.188 -10.186 -10.182 -10.180 -10.178 -10.178 -10.174 -10.173
-10.172 -10.170 -10.168 -10.166  -8.048  -8.044  -7.996  -7.986
 -7.980  -7.980  -7.972  -7.963  -6.014  -6.009  -6.008  -6.006
 -6.003  -6.002  -5.960  -5.957  -5.953  -5.950  -5.947  -5.945
 -5.944  -5.943  -5.941  -5.940  -5.937  -5.937  -5.937  -5.933
 -5.928  -5.928  -5.924  -5.919  -1.040  -1.036  -0.986  -0.974
 -0.965  -0.961  -0.947  -0.938  -0.919  -0.913  -0.899  -0.898
 -0.844  -0.834  -0.834  -0.832  -0.823  -0.813  -0.807  -0.804
 -0.803  -0.800  -0.799  -0.795  -0.785  -0.780  -0.766  -0.764
 -0.749  -0.748  -0.739  -0.735  -0.727  -0.721  -0.704  -0.704
 -0.689  -0.689  -0.679  -0.672  -0.655  -0.654  -0.650  -0.645
 -0.639  -0.632  -0.626  -0.625  -0.615  -0.610  -0.605  -0.595
 -0.594  -0.593  -0.585  -0.583  -0.577  -0.575  -0.568  -0.556
 -0.550  -0.548  -0.541  -0.539  -0.528  -0.524  -0.522  -0.513
 -0.505  -0.504  -0.497  -0.496  -0.487  -0.485  -0.478  -0.477
 -0.475  -0.469  -0.468  -0.465  -0.461  -0.455  -0.452  -0.450
 -0.446  -0.440  -0.439  -0.437  -0.436  -0.435  -0.434  -0.434
 -0.433  -0.428  -0.426  -0.422  -0.417  -0.416  -0.415  -0.413
 -0.410  -0.409  -0.407  -0.405  -0.403  -0.400  -0.396  -0.396
 -0.393  -0.391  -0.390  -0.389  -0.387  -0.385  -0.383  -0.380
 -0.379  -0.377  -0.370  -0.367  -0.363  -0.360  -0.358  -0.355
 -0.353  -0.349  -0.349  -0.345  -0.344  -0.343  -0.340  -0.338
 -0.336  -0.334  -0.334  -0.331  -0.325  -0.323  -0.318  -0.318
 -0.314  -0.310  -0.305  -0.304  -0.303  -0.302  -0.301  -0.299
 -0.298  -0.294  -0.291  -0.289  -0.288  -0.285  -0.283  -0.280
 -0.277  -0.271  -0.267  -0.262  -0.255  -0.252  -0.249  -0.247
 -0.245  -0.243  -0.230  -0.229  -0.192  -0.192

          Ground-State Mulliken Net Atomic Charges

     Atom                 Charge (a.u.)
  ----------------------------------------
      1 C                     0.268160
      2 C                    -0.111687
      3 N                    -0.482098
      4 C                    -0.057087
      5 C                     0.069755
      6 C                     0.038427
      7 C                     0.039287
      8 C                     0.056782
      9 C                     0.220130
     10 N                    -0.541860
     11 N                    -0.539146
     12 C                     0.210407
     13 C                     0.334940
     14 S                     0.616029
     15 N                    -0.591747
     16 C                    -0.261501
     17 S                     0.364550
     18 C                    -0.093681
     19 C                    -0.207182
     20 S                     0.275226
     21 C                     0.112844
     22 C                     0.056171
     23 C                    -0.303525
     24 C                    -0.083387
     25 N                    -0.419461
     26 S                     0.302506
     27 C                     0.141184
     28 C                    -0.331280
     29 C                    -0.236870
     30 H                     0.083876
     31 H                     0.123800
     32 H                     0.098245
     33 H                     0.125452
     34 H                     0.133211
     35 H                     0.102556
     36 H                     0.115316
     37 H                     0.129326
     38 H                     0.104402
     39 C                    -0.178524
     40 H                     0.120352
     41 H                     0.098383
     42 H                     0.106465
     43 C                    -0.181691
     44 H                     0.091599
     45 C                    -0.172498
     46 H                     0.090326
     47 H                     0.089154
     48 H                     0.089757
     49 C                    -0.180650
     50 H                     0.095472
     51 C                    -0.320640
     52 H                     0.095631
     53 H                     0.104536
     54 H                     0.096714
     55 H                     0.105522
     56 C                     0.284976
     57 C                    -0.107044
     58 N                    -0.476415
     59 C                    -0.083944
     60 C                     0.092556
     61 C                     0.008988
     62 C                     0.003815
     63 C                     0.045577
     64 C                     0.273423
     65 N                    -0.512094
     66 N                    -0.572227
     67 C                     0.237129
     68 C                     0.304470
     69 S                     0.604045
     70 N                    -0.581559
     71 C                    -0.209333
     72 S                     0.304171
     73 C                    -0.154100
     74 C                    -0.235638
     75 S                     0.274885
     76 C                     0.205665
     77 C                     0.067651
     78 C                    -0.313956
     79 C                    -0.063922
     80 N                    -0.451262
     81 S                     0.270381
     82 C                     0.131818
     83 C                    -0.308589
     84 C                    -0.254804
     85 H                     0.102093
     86 H                     0.117785
     87 H                     0.119959
     88 H                     0.112251
     89 H                     0.135534
     90 H                     0.125230
     91 H                     0.115895
     92 H                     0.132660
     93 H                     0.135696
     94 C                    -0.183335
     95 H                     0.105600
     96 H                     0.098316
     97 H                     0.089812
     98 C                    -0.184380
     99 H                     0.089347
    100 C                    -0.167599
    101 H                     0.096401
    102 H                     0.083906
    103 H                     0.105671
    104 C                    -0.177010
    105 H                     0.084756
    106 C                    -0.322333
    107 H                     0.085173
    108 H                     0.098482
    109 H                     0.099638
    110 H                     0.103809
  ----------------------------------------
  Sum of atomic charges =     0.000000

                    Cartesian Multipole Moments
 -----------------------------------------------------------------
    Charge (ESU x 10^10)
                 0.0000
    Dipole Moment (Debye)
         X      -0.7974      Y       2.7891      Z      -0.2252
       Tot       2.9096
    Quadrupole Moments (Debye-Ang)
        XX    -376.1815     XY      13.2947     YY    -444.2611
        XZ      -5.1667     YZ       3.8549     ZZ    -444.1344

 Total job time:  107.27s(wall), 1303.54s(cpu)
        *  Thank you very much for using Q-Chem.  Have a nice day.  *
