 Q-Chem 4.4, Q-Chem, Inc., Pleasanton, CA (2016)
 Q-Chem 4.4.2 for Intel X86 Linux

User input:
--------------------------------------------------------------
$comment
SP
$end

$rem
MEM_STATIC 5000
MEM_TOTAL 20000
JOBTYPE SP
EXCHANGE B3LYP
BASIS 6-31g(d,p)
$end

$molecule
0 1
C          10.431000    -16.374000     -9.547000
C          11.006000    -17.363000     -8.768000
N           9.123000    -16.105000     -9.428000
C          10.253000    -18.102000     -7.832000
C           8.354000    -16.776000     -8.545000
C           8.884000    -17.796000     -7.692000
C           7.963000    -18.571000     -6.845000
C           8.252000    -19.928000     -6.556000
C           6.703000    -18.158000     -6.273000
N           7.536000    -20.755000     -5.813000
N           6.274000    -16.874000     -6.293000
C           5.949000    -19.003000     -5.472000
C           6.438000    -20.289000     -5.241000
S           4.944000    -16.891000     -5.380000
N           4.926000    -18.462000     -4.877000
C           5.808000    -21.365000     -4.414000
S           6.772000    -22.552000     -3.515000
C           4.456000    -21.545000     -4.182000
C           5.293000    -23.299000     -2.847000
S           3.069000    -20.868000     -4.955000
C           4.216000    -22.579000     -3.286000
C           5.263000    -24.445000     -1.969000
C           2.029000    -21.875000     -3.914000
C           2.792000    -22.745000     -3.088000
N           4.140000    -24.815000     -1.425000
S           6.647000    -25.349000     -1.397000
C           4.350000    -25.943000     -0.674000
C           5.650000    -26.311000     -0.522000
C          11.185000    -15.569000    -10.614000
H          12.030000    -17.670000     -8.955000
H          10.681000    -18.937000     -7.286000
H           7.278000    -16.606000     -8.546000
H           9.081000    -20.400000     -7.080000
H           0.949000    -21.808000     -3.898000
H           2.376000    -23.463000     -2.391000
H           3.566000    -26.477000     -0.154000
H           6.134000    -27.077000      0.069000
H          11.073000    -16.201000    -11.504000
C          12.673000    -15.365000    -10.195000
H          10.650000    -14.631000    -10.808000
H          13.162000    -16.294000     -9.873000
H          12.661000    -14.606000     -9.404000
C          13.658000    -14.548000    -11.150000
H          13.710000    -15.137000    -12.074000
C          15.129000    -14.315000    -10.775000
H          13.086000    -13.635000    -11.360000
H          15.669000    -15.198000    -10.411000
H          15.067000    -13.551000     -9.988000
C          16.007000    -13.616000    -11.874000
H          17.017000    -13.543000    -11.452000
C          15.621000    -12.178000    -12.209000
H          16.022000    -14.158000    -12.827000
H          15.660000    -11.622000    -11.265000
H          14.565000    -12.137000    -12.506000
H          16.356000    -11.821000    -12.940000
C           5.964000    -14.236000    -17.412000
C           6.841000    -13.705000    -16.485000
N           4.913000    -14.991000    -17.006000
C           6.583000    -13.783000    -15.149000
C           4.749000    -15.179000    -15.690000
C           5.436000    -14.476000    -14.713000
C           4.943000    -14.327000    -13.331000
C           5.803000    -14.307000    -12.204000
C           3.567000    -14.335000    -12.961000
N           5.376000    -14.194000    -10.921000
N           2.587000    -14.275000    -13.867000
C           3.135000    -14.305000    -11.659000
C           4.064000    -14.192000    -10.607000
S           1.165000    -14.430000    -13.063000
N           1.785000    -14.295000    -11.595000
C           3.595000    -14.142000     -9.140000
S           1.926000    -14.083000     -8.594000
C           4.393000    -13.923000     -8.031000
C           2.383000    -14.101000     -6.858000
S           6.101000    -13.568000     -7.972000
C           3.712000    -13.712000     -6.847000
C           1.544000    -14.286000     -5.720000
C           5.916000    -13.269000     -6.165000
C           4.569000    -13.341000     -5.773000
N           0.269000    -14.313000     -6.012000
S           2.114000    -14.749000     -4.085000
C          -0.458000    -14.609000     -4.946000
C           0.383000    -14.824000     -3.844000
C           6.174000    -14.070000    -18.923000
H           7.725000    -13.185000    -16.845000
H           7.284000    -13.425000    -14.400000
H           4.013000    -15.900000    -15.336000
H           6.881000    -14.246000    -12.345000
H           6.828000    -13.079000     -5.616000
H           4.285000    -13.256000     -4.730000
H          -1.536000    -14.703000     -4.962000
H           0.067000    -15.017000     -2.827000
H           5.346000    -13.529000    -19.398000
C           6.592000    -15.284000    -19.692000
H           6.935000    -13.295000    -19.078000
H           5.806000    -16.037000    -19.828000
H           7.338000    -15.833000    -19.104000
C           7.138000    -14.779000    -20.999000
H           6.379000    -14.250000    -21.589000
C           7.524000    -16.010000    -21.872000
H           7.978000    -14.087000    -20.860000
H           6.583000    -16.496000    -22.155000
H           8.085000    -16.767000    -21.311000
C           8.188000    -15.506000    -23.188000
H           7.532000    -14.806000    -23.721000
C           8.509000    -16.745000    -24.083000
H           9.097000    -14.938000    -22.955000
H           7.600000    -16.969000    -24.655000
H           8.803000    -17.603000    -23.465000
H           9.270000    -16.455000    -24.820000
$end

--------------------------------------------------------------

             Standard Nuclear Orientation (Angstroms)
    I     Atom           X                Y                Z
 ----------------------------------------------------------------
    1      C       1.5321550556    -3.9786622118     1.6598927913
    2      C       0.5155580023    -4.8809540835     1.3991499878
    3      N       1.3081102477    -2.6631951261     1.5305240534
    4      C      -0.7705034247    -4.4564357794     1.0053782068
    5      C       0.0957445955    -2.1985952588     1.1622748324
    6      C      -1.0077515401    -3.0709895343     0.8974475175
    7      C      -2.2622038631    -2.5016900910     0.3792559380
    8      C      -3.0633568659    -3.2640099145    -0.5070359738
    9      C      -2.8116440781    -1.1845431710     0.5996928707
   10      N      -4.2120929636    -2.9033973958    -1.0538430597
   11      N      -2.3045313820    -0.3212239246     1.5110729189
   12      C      -4.0262033949    -0.7956809051     0.0540063268
   13      C      -4.7085597454    -1.7182304854    -0.7394481978
   14      S      -3.3563396734     0.9020438846     1.5196277421
   15      N      -4.4960298375     0.3463014993     0.4643407048
   16      C      -6.0254884372    -1.5286227106    -1.4238111956
   17      S      -7.1640954675    -2.8665598595    -1.6686871158
   18      C      -6.5553338846    -0.3353791923    -1.8815902993
   19      C      -8.3507099812    -1.7645799308    -2.4231804774
   20      S      -5.8300206295     1.2116588573    -2.1269898819
   21      C      -7.8431773377    -0.4951968303    -2.3770593327
   22      C      -9.6339815459    -2.1604211145    -2.9538629140
   23      C      -7.3791274960     1.8059481109    -2.7799969257
   24      C      -8.3501013212     0.7706566670    -2.8620119058
   25      N     -10.4800857140    -1.2530338539    -3.3472089400
   26      S     -10.2837011597    -3.7840809536    -2.9919306183
   27      C     -11.6001079026    -1.8646872074    -3.8491207571
   28      C     -11.6592890631    -3.2116642337    -3.6739680209
   29      C       2.9626266899    -4.3787325999     2.0455410612
   30      H       0.7307351362    -5.9444269851     1.3763862324
   31      H      -1.5411868037    -5.1632842243     0.7139379809
   32      H      -0.0243927561    -1.1337500912     0.9664463724
   33      H      -2.6607434039    -4.2010361500    -0.8871481075
   34      H      -7.5604687718     2.8371800066    -3.0535314191
   35      H      -9.3555429580     0.8913304893    -3.2479056006
   36      H     -12.4358441466    -1.3323129664    -4.2830960997
   37      H     -12.4287697873    -3.9464060144    -3.8697917449
   38      H       3.4443366719    -4.4913983554     1.0660871722
   39      C       2.9561767545    -5.6980308107     2.8766437200
   40      H       3.4502214603    -3.5392055134     2.5565700338
   41      H       2.3517655457    -6.4929575309     2.4198893000
   42      H       2.5949568866    -5.4227273842     3.8744584475
   43      C       4.3357151178    -6.3105711645     3.3976112997
   44      H       4.8961999428    -6.5602770282     2.4882682717
   45      C       4.3776295692    -7.6030260520     4.2261995825
   46      H       4.8195601015    -5.4453566772     3.8689401899
   47      H       3.7659736403    -8.4294396308     3.8431818003
   48      H       4.0130169026    -7.2792387065     5.2106427541
   49      C       5.8119405378    -8.1565790760     4.5480956759
   50      H       5.6577756052    -9.0773388623     5.1242446058
   51      C       6.6716216338    -7.2740298639     5.4487178506
   52      H       6.4119295938    -8.3544795784     3.6519670446
   53      H       6.0955727884    -7.1213360148     6.3688511649
   54      H       6.7580343789    -6.2707738732     5.0116409069
   55      H       7.6054556386    -7.8219745499     5.6211871884
   56      C       8.5700840035     1.0534477447    -1.7355134450
   57      C       8.1507025661     0.4157680891    -0.5831667668
   58      N       7.6880563841     1.7565330963    -2.4886138812
   59      C       6.8959025268     0.6121233869    -0.0887322834
   60      C       6.4193186841     1.8257981153    -2.0648179330
   61      C       5.9974409694     1.4267362401    -0.8064555791
   62      C       4.7597728705     1.9235583362    -0.1767576501
   63      C       3.9356951535     1.1150668657     0.6462651069
   64      C       4.1804168332     3.1995354616    -0.4347672573
   65      N       2.7810833931     1.5385497158     1.2196070280
   66      N       4.8239088552     4.1461201535    -1.1237748325
   67      C       2.9715061748     3.5975248740     0.0779387478
   68      C       2.2669972743     2.7591193586     0.9629570532
   69      S       3.7900275603     5.4067511501    -1.3093117788
   70      N       2.6735776967     4.8594411590    -0.3035083807
   71      C       0.9152820039     3.1968343455     1.5594647379
   72      S       0.1575674620     4.7681104230     1.3494215015
   73      C       0.1837025877     2.5181379280     2.5180098494
   74      C      -1.2916130941     4.3144176042     2.3069743941
   75      S       0.6002857156     1.0524518921     3.3694750229
   76      C      -0.8869454273     3.2150471226     3.0454265749
   77      C      -2.5257785056     5.0164574541     2.4379926617
   78      C      -0.8881293387     1.3109653436     4.4214571623
   79      C      -1.5098180699     2.5365532938     4.1304343147
   80      N      -2.5137558033     6.1993858444     1.8792853338
   81      S      -4.0624314158     4.2981426898     3.0169708414
   82      C      -3.7133529894     6.7578154742     1.9195834687
   83      C      -4.6228541280     5.8826132143     2.5317425028
   84      C      10.0087287567     0.9357046689    -2.2562963577
   85      H       8.8579700528    -0.2168531607    -0.0530544612
   86      H       6.5242512258     0.0783639209     0.7816366860
   87      H       5.6554256010     2.2479848975    -2.7167985144
   88      H       4.2830460897     0.1333635239     0.9645289531
   89      H      -1.1199574613     0.5222573463     5.1239103041
   90      H      -2.4399710984     2.8194709815     4.6105415169
   91      H      -3.9374195272     7.7295174149     1.4991485449
   92      H      -5.6589367310     6.0954523096     2.7611468607
   93      H      10.5141251265     1.9087501927    -2.2968785978
   94      C      10.2234592141     0.1174193130    -3.4908735757
   95      H      10.6262974514     0.5072672688    -1.4570333838
   96      H       9.8666150617     0.5806222666    -4.4189933280
   97      H       9.6003382532    -0.7833986437    -3.4283573618
   98      C      11.6941167044    -0.1939287358    -3.5311096134
   99      H      12.3077800151     0.7118265544    -3.6150542101
  100      C      11.9868276648    -0.9872419567    -4.8393375856
  101      H      12.0311986825    -0.7295259209    -2.6348415757
  102      H      11.8488809589    -0.2814295135    -5.6667223216
  103      H      11.2617119016    -1.7901905072    -5.0181440595
  104      C      13.4864616945    -1.4088950810    -4.8479642813
  105      H      14.1444619509    -0.5382350419    -4.7321551331
  106      C      13.7831039730    -2.1442044094    -6.1935164172
  107      H      13.6987429285    -2.0546917937    -3.9871058240
  108      H      14.0206431980    -1.3702757181    -6.9339558120
  109      H      12.9145880041    -2.7352402673    -6.5111335238
  110      H      14.6973211848    -2.7404836320    -6.0708462158
 ----------------------------------------------------------------

   10   -5663.4900982439      3.68E-06 Convergence criterion met
 Total energy in the final basis set = -5663.4900982439

                    Orbital Energies (a.u.)
 --------------------------------------------------------------

 Alpha MOs
 -- Occupied --
-88.986 -88.985 -88.939 -88.919 -88.918 -88.915 -88.906 -88.904
-14.382 -14.382 -14.374 -14.368 -14.348 -14.342 -14.342 -14.338
-14.325 -14.324 -10.268 -10.265 -10.262 -10.255 -10.254 -10.249
-10.246 -10.245 -10.239 -10.237 -10.235 -10.234 -10.234 -10.233
-10.233 -10.231 -10.230 -10.229 -10.225 -10.225 -10.224 -10.224
-10.223 -10.223 -10.221 -10.221 -10.218 -10.217 -10.214 -10.213
-10.208 -10.206 -10.205 -10.205 -10.201 -10.197 -10.194 -10.194
-10.190 -10.190 -10.185 -10.183 -10.181 -10.180 -10.178 -10.175
-10.175 -10.174 -10.173 -10.171  -8.042  -8.040  -7.998  -7.982
 -7.978  -7.974  -7.966  -7.963  -6.007  -6.005  -6.002  -6.000
 -6.000  -5.998  -5.962  -5.960  -5.955  -5.945  -5.943  -5.942
 -5.939  -5.939  -5.938  -5.935  -5.934  -5.931  -5.930  -5.927
 -5.927  -5.924  -5.922  -5.919  -1.047  -1.038  -0.984  -0.979
 -0.967  -0.950  -0.937  -0.935  -0.915  -0.910  -0.905  -0.894
 -0.837  -0.832  -0.831  -0.829  -0.823  -0.814  -0.811  -0.807
 -0.806  -0.803  -0.794  -0.790  -0.785  -0.783  -0.768  -0.764
 -0.748  -0.747  -0.739  -0.737  -0.718  -0.715  -0.711  -0.706
 -0.690  -0.689  -0.673  -0.671  -0.658  -0.651  -0.647  -0.639
 -0.636  -0.630  -0.627  -0.621  -0.610  -0.609  -0.601  -0.594
 -0.591  -0.591  -0.584  -0.582  -0.578  -0.577  -0.574  -0.559
 -0.549  -0.543  -0.541  -0.538  -0.526  -0.522  -0.518  -0.513
 -0.508  -0.507  -0.499  -0.497  -0.486  -0.485  -0.477  -0.473
 -0.473  -0.471  -0.468  -0.466  -0.465  -0.464  -0.450  -0.448
 -0.443  -0.441  -0.439  -0.438  -0.434  -0.434  -0.432  -0.431
 -0.427  -0.427  -0.425  -0.422  -0.421  -0.416  -0.414  -0.414
 -0.412  -0.408  -0.406  -0.404  -0.403  -0.401  -0.398  -0.398
 -0.392  -0.389  -0.388  -0.385  -0.384  -0.384  -0.383  -0.382
 -0.380  -0.375  -0.374  -0.371  -0.369  -0.359  -0.356  -0.354
 -0.351  -0.347  -0.345  -0.344  -0.343  -0.341  -0.341  -0.339
 -0.339  -0.338  -0.333  -0.332  -0.330  -0.322  -0.321  -0.320
 -0.317  -0.317  -0.313  -0.307  -0.303  -0.300  -0.297  -0.294
 -0.293  -0.293  -0.290  -0.289  -0.286  -0.284  -0.280  -0.280
 -0.273  -0.271  -0.267  -0.264  -0.250  -0.247  -0.245  -0.244
 -0.240  -0.236  -0.228  -0.226  -0.189  -0.187

          Ground-State Mulliken Net Atomic Charges

     Atom                 Charge (a.u.)
  ----------------------------------------
      1 C                     0.276597
      2 C                    -0.116417
      3 N                    -0.499376
      4 C                    -0.085830
      5 C                     0.092499
      6 C                     0.035744
      7 C                     0.060151
      8 C                     0.041112
      9 C                     0.180913
     10 N                    -0.488518
     11 N                    -0.531010
     12 C                     0.250101
     13 C                     0.253964
     14 S                     0.613292
     15 N                    -0.565084
     16 C                    -0.220973
     17 S                     0.299264
     18 C                    -0.095509
     19 C                    -0.228871
     20 S                     0.269526
     21 C                     0.151215
     22 C                     0.068668
     23 C                    -0.308893
     24 C                    -0.061824
     25 N                    -0.443874
     26 S                     0.269557
     27 C                     0.113088
     28 C                    -0.300460
     29 C                    -0.219645
     30 H                     0.084312
     31 H                     0.102687
     32 H                     0.135867
     33 H                     0.101076
     34 H                     0.129307
     35 H                     0.128381
     36 H                     0.107050
     37 H                     0.140737
     38 H                     0.119699
     39 C                    -0.195977
     40 H                     0.121495
     41 H                     0.095206
     42 H                     0.107047
     43 C                    -0.186873
     44 H                     0.085546
     45 C                    -0.175655
     46 H                     0.092466
     47 H                     0.093372
     48 H                     0.088825
     49 C                    -0.178985
     50 H                     0.092913
     51 C                    -0.312759
     52 H                     0.092414
     53 H                     0.099467
     54 H                     0.105818
     55 H                     0.105212
     56 C                     0.260082
     57 C                    -0.113664
     58 N                    -0.489672
     59 C                    -0.067703
     60 C                     0.105093
     61 C                     0.033943
     62 C                     0.056106
     63 C                     0.050337
     64 C                     0.205346
     65 N                    -0.530664
     66 N                    -0.561282
     67 C                     0.223730
     68 C                     0.320696
     69 S                     0.606376
     70 N                    -0.564095
     71 C                    -0.218588
     72 S                     0.349192
     73 C                    -0.112713
     74 C                    -0.211185
     75 S                     0.290420
     76 C                     0.099055
     77 C                     0.064546
     78 C                    -0.300932
     79 C                    -0.093196
     80 N                    -0.414652
     81 S                     0.276838
     82 C                     0.138997
     83 C                    -0.315599
     84 C                    -0.224288
     85 H                     0.084396
     86 H                     0.096999
     87 H                     0.102714
     88 H                     0.116117
     89 H                     0.134731
     90 H                     0.110710
     91 H                     0.123532
     92 H                     0.119829
     93 H                     0.114458
     94 C                    -0.157068
     95 H                     0.089170
     96 H                     0.112253
     97 H                     0.093308
     98 C                    -0.177862
     99 H                     0.096437
    100 C                    -0.181647
    101 H                     0.092035
    102 H                     0.095438
    103 H                     0.091933
    104 C                    -0.180709
    105 H                     0.092880
    106 C                    -0.319012
    107 H                     0.091448
    108 H                     0.104802
    109 H                     0.105524
    110 H                     0.097006
  ----------------------------------------
  Sum of atomic charges =     0.000000

                    Cartesian Multipole Moments
 -----------------------------------------------------------------
    Charge (ESU x 10^10)
                 0.0000
    Dipole Moment (Debye)
         X      -1.7855      Y      -2.1584      Z       1.7224
       Tot       3.2883
    Quadrupole Moments (Debye-Ang)
        XX    -396.7296     XY     -17.4389     YY    -417.8897
        XZ       5.7789     YZ      -4.4380     ZZ    -442.1703

 Total job time:  89.35s(wall), 1042.29s(cpu)
        *  Thank you very much for using Q-Chem.  Have a nice day.  *
