 Q-Chem 4.4, Q-Chem, Inc., Pleasanton, CA (2016)
 Q-Chem 4.4.2 for Intel X86 Linux

User input:
--------------------------------------------------------------
$comment
SP
$end

$rem
MEM_STATIC 5000
MEM_TOTAL 20000
JOBTYPE SP
EXCHANGE B3LYP
BASIS 6-31g(d,p)
$end

$molecule
0 1
C          -2.634000     18.386000     -3.431000
C          -3.095000     19.692000     -3.474000
N          -1.421000     18.046000     -3.886000
C          -2.265000     20.687000     -3.953000
C          -0.602000     19.094000     -4.268000
C          -0.905000     20.486000     -4.356000
C           0.053000     21.617000     -4.654000
C          -0.444000     22.943000     -4.884000
C           1.431000     21.584000     -4.431000
N           0.312000     24.118000     -4.886000
N           2.140000     20.484000     -4.247000
C           2.222000     22.711000     -4.448000
C           1.622000     23.970000     -4.661000
S           3.652000     20.930000     -3.952000
N           3.593000     22.546000     -4.216000
C           2.340000     25.260000     -4.656000
S           2.273000     26.570000     -5.889000
C           3.199000     25.655000     -3.720000
C           3.434000     27.535000     -5.064000
S           3.596000     24.821000     -2.202000
C           3.707000     26.878000     -3.877000
C           3.883000     28.788000     -5.539000
C           4.358000     26.345000     -1.688000
C           4.440000     27.270000     -2.695000
N           2.993000     29.501000     -6.161000
S           5.272000     29.655000     -5.046000
C           3.602000     30.632000     -6.567000
C           4.894000     30.882000     -6.078000
C          -3.630000     17.342000     -2.987000
H          -4.127000     19.905000     -3.212000
H          -2.728000     21.668000     -3.997000
H           0.352000     18.628000     -4.512000
H          -1.513000     23.039000     -5.068000
H           4.833000     26.415000     -0.717000
H           4.916000     28.231000     -2.539000
H           2.999000     31.282000     -7.188000
H           5.593000     31.661000     -6.352000
H          -4.272000     17.664000     -2.158000
C          -2.971000     16.085000     -2.495000
H          -4.243000     17.109000     -3.866000
H          -2.431000     16.377000     -1.587000
H          -2.251000     15.642000     -3.195000
C          -3.922000     14.936000     -2.001000
H          -4.695000     15.364000     -1.351000
C          -3.150000     13.702000     -1.372000
H          -4.485000     14.463000     -2.813000
H          -3.887000     13.092000     -0.834000
H          -2.342000     14.020000     -0.702000
C          -2.427000     12.799000     -2.432000
H          -3.230000     12.657000     -3.165000
C          -1.987000     11.483000     -1.747000
H          -1.600000     13.271000     -2.977000
H          -1.820000     10.769000     -2.563000
H          -2.716000     11.126000     -1.008000
H          -1.031000     11.676000     -1.245000
C           7.501000     20.103000     -3.327000
C           8.021000     20.633000     -2.132000
N           6.509000     19.157000     -3.275000
C           7.357000     20.350000     -0.900000
C           5.914000     18.845000     -2.091000
C           6.289000     19.460000     -0.884000
C           5.498000     19.334000      0.391000
C           4.098000     19.450000      0.388000
C           6.082000     18.940000      1.620000
N           3.353000     19.229000      1.482000
N           7.407000     18.828000      1.825000
C           5.291000     18.588000      2.662000
C           3.927000     18.758000      2.590000
S           7.532000     18.356000      3.367000
N           5.931000     18.227000      3.735000
C           2.999000     18.187000      3.540000
S           3.339000     17.099000      4.860000
C           1.613000     18.417000      3.551000
C           1.704000     16.975000      5.363000
S           0.555000     19.439000      2.537000
C           0.923000     17.719000      4.555000
C           1.217000     16.200000      6.457000
C          -0.825000     18.907000      3.477000
C          -0.464000     18.025000      4.484000
N           0.014000     16.250000      6.927000
S           2.417000     15.105000      7.267000
C          -0.048000     15.395000      8.005000
C           1.120000     14.715000      8.388000
C           8.122000     20.291000     -4.647000
H           8.829000     21.357000     -2.181000
H           7.676000     20.769000      0.048000
H           5.144000     18.087000     -1.953000
H           3.565000     19.748000     -0.512000
H          -1.819000     19.229000      3.197000
H          -1.180000     17.593000      5.173000
H          -0.983000     15.381000      8.548000
H           1.292000     13.935000      9.118000
H           7.360000     20.250000     -5.435000
C           9.177000     19.177000     -4.945000
H           8.633000     21.261000     -4.672000
H           8.915000     18.197000     -4.529000
H          10.155000     19.515000     -4.581000
C           9.303000     18.951000     -6.486000
H           8.283000     18.822000     -6.869000
C          10.263000     17.831000     -6.775000
H           9.667000     19.879000     -6.945000
H           9.687000     16.900000     -6.715000
H          11.033000     17.826000     -5.993000
C          11.000000     17.995000     -8.095000
H          11.244000     19.058000     -8.215000
C          10.160000     17.498000     -9.286000
H          11.925000     17.406000     -8.063000
H          10.733000     17.223000    -10.181000
H           9.380000     18.233000     -9.522000
H           9.674000     16.575000     -8.948000
$end

--------------------------------------------------------------

             Standard Nuclear Orientation (Angstroms)
    I     Atom           X                Y                Z
 ----------------------------------------------------------------
    1      C      -1.5045512624     5.6602910771    -2.3836500755
    2      C      -0.6929907799     6.2811923202    -1.4477776325
    3      N      -1.1134816519     4.5641403425    -3.0466071832
    4      C       0.5376722927     5.7300514250    -1.1476474684
    5      C       0.0859495084     4.0063845648    -2.6400824187
    6      C       1.0291605192     4.4976903185    -1.6881430060
    7      C       2.2666298746     3.7963149421    -1.1758235981
    8      C       3.2078912321     4.5005820494    -0.3534976905
    9      C       2.4595561628     2.4134719657    -1.1607653798
   10      N       4.2238243479     3.9256904407     0.4143203496
   11      N       1.7619392590     1.5459493465    -1.8729957925
   12      C       3.4615660041     1.8025162840    -0.4404818017
   13      C       4.3176974879     2.5929129875     0.3549815435
   14      S       2.2740174144     0.0780466824    -1.4791395605
   15      N       3.5551375609     0.4072411958    -0.5121880919
   16      C       5.3985477659     2.0675378004     1.2125318857
   17      S       7.1152461039     2.6046963940     1.2852330646
   18      C       5.2723717950     1.0618116183     2.0742722591
   19      C       7.5385193662     1.4094643514     2.4480017904
   20      S       3.7818876506     0.1983104944     2.5105196939
   21      C       6.3597481161     0.7695803958     2.7888740004
   22      C       8.8442658153     1.2563538041     2.9664787629
   23      C       4.6952513144    -0.4651313799     3.8863931246
   24      C       6.0331429901    -0.1763241819     3.8313089488
   25      N       9.5194275547     2.3563488813     3.1131772827
   26      S       9.4826894463    -0.0883606642     3.8080352174
   27      C      10.7367902970     2.0168638265     3.5797132955
   28      C      10.9246541227     0.6871637032     3.9889684299
   29      C      -2.7897067073     6.3732319582    -2.7288728768
   30      H      -0.9946662139     7.2349221434    -1.0253698237
   31      H       1.1241767897     6.3114358683    -0.4428988578
   32      H       0.1795706599     3.0906695672    -3.2227565328
   33      H       3.1143863161     5.5850889734    -0.3229270740
   34      H       4.2186099085    -1.1523850735     4.5747689891
   35      H       6.7206215230    -0.5487966444     4.5816892067
   36      H      11.4437137946     2.8328849061     3.6579358386
   37      H      11.8334634793     0.1834618375     4.2904115985
   38      H      -3.2926456195     6.8262130206    -1.8657682436
   39      C      -3.8158850217     5.4574594007    -3.3327873493
   40      H      -2.5242821396     7.1493782321    -3.4567779258
   41      H      -4.0792255769     4.7518241226    -2.5365093788
   42      H      -3.4626066390     4.8821567091    -4.1981602153
   43      C      -5.1953921758     6.1013534801    -3.7213725088
   44      H      -5.5395891037     6.7379951584    -2.8970977680
   45      C      -6.2675371248     5.0461359577    -4.2227727371
   46      H      -5.1279356278     6.7821332426    -4.5769603354
   47      H      -7.2463347044     5.5427521565    -4.2163970597
   48      H      -6.2822304913     4.1452690335    -3.5973841459
   49      C      -5.9908170184     4.4979407236    -5.6666030485
   50      H      -5.8106031572     5.4321524661    -6.2116107407
   51      C      -7.2453451427     3.7372292348    -6.1586987870
   52      H      -5.0790880051     3.8989152035    -5.7834646450
   53      H      -7.1486701309     3.6869654386    -7.2503344830
   54      H      -8.1814889359     4.2089265091    -5.8328959634
   55      H      -7.1947699406     2.7197126649    -5.7521386083
   56      C       2.3023038047    -3.8792544642    -1.9569706140
   57      C       2.0061359883    -4.6060987172    -0.7893632073
   58      N       1.3489564058    -3.0606867226    -2.5072065538
   59      C       0.8079352195    -4.3092040959    -0.0717438782
   60      C       0.1811383504    -2.8219168651    -1.8496239016
   61      C      -0.1026186823    -3.4015613802    -0.6009473292
   62      C      -1.2545330986    -2.9731830768     0.2689763495
   63      C      -1.5432935955    -1.6129468481     0.4685753914
   64      C      -2.1967819797    -3.8884133108     0.7993098905
   65      N      -2.6274762993    -1.1961919616     1.1405614251
   66      N      -2.0605770950    -5.2260361387     0.7502446298
   67      C      -3.3490641995    -3.4314264293     1.3458971902
   68      C      -3.5445980105    -2.0817837415     1.5324746375
   69      S      -3.3884287082    -5.7877995719     1.4833237103
   70      N      -4.1490005066    -4.3576468414     1.7857467698
   71      C      -4.8232600683    -1.4985641261     1.8710056144
   72      S      -6.3720927017    -2.2909545884     1.9933936419
   73      C      -5.0387043629    -0.1406129703     2.1600893640
   74      C      -7.2287332411    -0.8608764226     2.3966967859
   75      S      -3.9311286221     1.2572677931     2.2661523157
   76      C      -6.3784785998     0.1843843626     2.4259873290
   77      C      -8.6283913957    -0.7629717963     2.6536048132
   78      C      -5.2958903283     2.2820805039     2.6639065027
   79      C      -6.4865444029     1.5733135005     2.7117208272
   80      N      -9.2278120559     0.2826709330     3.1204400673
   81      S      -9.6121192274    -2.2561710941     2.3409382012
   82      C     -10.5595044126    -0.0339173796     3.2731499473
   83      C     -10.9778469957    -1.3376034860     2.9589763977
   84      C       3.4822837744    -4.1252821197    -2.7998838148
   85      H       2.7548657644    -5.2771609993    -0.3788511662
   86      H       0.5471851574    -4.7961805678     0.8614706315
   87      H      -0.6407522810    -2.2137122264    -2.2252445981
   88      H      -0.8746435435    -0.8403381082     0.0959148985
   89      H      -5.1485446487     3.3472718015     2.7812809047
   90      H      -7.4376843786     2.0352650359     2.9482256381
   91      H     -11.1811704121     0.7280736750     3.7227842629
   92      H     -11.9621963694    -1.7832926256     2.9015177057
   93      H       3.7802294801    -3.2038985252    -3.3151988916
   94      C       3.1898818455    -5.2077664688    -3.8887151818
   95      H       4.3066406548    -4.4854739973    -2.1727127496
   96      H       2.1624357311    -5.1846586649    -4.2707106156
   97      H       3.4392928007    -6.1937024451    -3.4776818182
   98      C       4.0999524647    -4.9768470101    -5.1377470756
   99      H       3.9969653554    -3.9190693272    -5.4101989594
  100      C       3.7721732570    -5.9710838241    -6.2164383885
  101      H       5.1472402753    -5.0939600695    -4.8314240874
  102      H       2.9341399159    -5.5521128441    -6.7859122133
  103      H       3.4484975673    -6.9045678048    -5.7386406221
  104      C       4.9662757587    -6.3316008170    -7.0862726907
  105      H       5.8479888755    -6.3999436762    -6.4367988781
  106      C       5.1977933564    -5.2941718292    -8.2003780256
  107      H       4.7819182552    -7.3034639946    -7.5606820867
  108      H       5.7592607902    -5.6585396074    -9.0704179344
  109      H       5.6585417421    -4.3924193162    -7.7774426518
  110      H       4.2027594876    -5.0293335929    -8.5773890446
 ----------------------------------------------------------------

   10   -5663.5001005272      4.47E-06 Convergence criterion met
 Total energy in the final basis set = -5663.5001005272

                    Orbital Energies (a.u.)
 --------------------------------------------------------------

 Alpha MOs
 -- Occupied --
-88.992 -88.986 -88.926 -88.926 -88.921 -88.916 -88.907 -88.902
-14.390 -14.387 -14.386 -14.376 -14.352 -14.350 -14.348 -14.337
-14.335 -14.329 -10.271 -10.259 -10.258 -10.258 -10.253 -10.253
-10.251 -10.247 -10.242 -10.242 -10.240 -10.235 -10.235 -10.234
-10.233 -10.232 -10.231 -10.230 -10.228 -10.227 -10.226 -10.225
-10.225 -10.225 -10.224 -10.223 -10.223 -10.221 -10.213 -10.212
-10.211 -10.211 -10.204 -10.203 -10.198 -10.198 -10.192 -10.192
-10.187 -10.184 -10.183 -10.175 -10.174 -10.174 -10.174 -10.173
-10.172 -10.169 -10.169 -10.168  -8.048  -8.041  -7.990  -7.987
 -7.982  -7.975  -7.967  -7.962  -6.013  -6.007  -6.006  -6.005
 -6.001  -6.000  -5.954  -5.951  -5.950  -5.947  -5.947  -5.945
 -5.944  -5.942  -5.940  -5.939  -5.936  -5.932  -5.931  -5.927
 -5.927  -5.923  -5.923  -5.918  -1.056  -1.043  -0.990  -0.976
 -0.968  -0.952  -0.933  -0.932  -0.921  -0.918  -0.915  -0.904
 -0.847  -0.842  -0.838  -0.831  -0.827  -0.815  -0.810  -0.807
 -0.805  -0.799  -0.799  -0.796  -0.789  -0.779  -0.769  -0.766
 -0.749  -0.746  -0.739  -0.736  -0.724  -0.723  -0.712  -0.705
 -0.694  -0.691  -0.679  -0.668  -0.657  -0.654  -0.652  -0.643
 -0.641  -0.635  -0.633  -0.622  -0.610  -0.608  -0.603  -0.599
 -0.595  -0.593  -0.585  -0.580  -0.579  -0.575  -0.566  -0.557
 -0.555  -0.546  -0.543  -0.542  -0.526  -0.525  -0.519  -0.515
 -0.508  -0.507  -0.501  -0.499  -0.498  -0.487  -0.478  -0.477
 -0.476  -0.472  -0.469  -0.465  -0.465  -0.459  -0.452  -0.450
 -0.447  -0.447  -0.442  -0.441  -0.439  -0.437  -0.435  -0.430
 -0.428  -0.428  -0.423  -0.421  -0.420  -0.416  -0.415  -0.414
 -0.412  -0.408  -0.405  -0.405  -0.403  -0.401  -0.398  -0.396
 -0.393  -0.391  -0.389  -0.385  -0.383  -0.382  -0.380  -0.377
 -0.373  -0.371  -0.370  -0.369  -0.366  -0.361  -0.358  -0.356
 -0.353  -0.351  -0.350  -0.348  -0.347  -0.345  -0.341  -0.340
 -0.340  -0.339  -0.334  -0.334  -0.331  -0.323  -0.318  -0.318
 -0.314  -0.312  -0.310  -0.309  -0.305  -0.304  -0.302  -0.302
 -0.296  -0.296  -0.295  -0.292  -0.290  -0.285  -0.282  -0.281
 -0.280  -0.274  -0.266  -0.264  -0.254  -0.252  -0.251  -0.248
 -0.247  -0.244  -0.234  -0.230  -0.195  -0.192

          Ground-State Mulliken Net Atomic Charges

     Atom                 Charge (a.u.)
  ----------------------------------------
      1 C                     0.294343
      2 C                    -0.106315
      3 N                    -0.494808
      4 C                    -0.092578
      5 C                     0.043463
      6 C                     0.059051
      7 C                     0.062865
      8 C                     0.038222
      9 C                     0.250890
     10 N                    -0.494972
     11 N                    -0.539567
     12 C                     0.181819
     13 C                     0.221090
     14 S                     0.634464
     15 N                    -0.533905
     16 C                    -0.221747
     17 S                     0.328896
     18 C                    -0.083526
     19 C                    -0.210726
     20 S                     0.243626
     21 C                     0.155515
     22 C                     0.033245
     23 C                    -0.294513
     24 C                    -0.084946
     25 N                    -0.394732
     26 S                     0.290131
     27 C                     0.101406
     28 C                    -0.309442
     29 C                    -0.239276
     30 H                     0.090030
     31 H                     0.090305
     32 H                     0.123265
     33 H                     0.110324
     34 H                     0.124326
     35 H                     0.105481
     36 H                     0.105212
     37 H                     0.144709
     38 H                     0.104930
     39 C                    -0.171000
     40 H                     0.121336
     41 H                     0.097670
     42 H                     0.119611
     43 C                    -0.192201
     44 H                     0.077478
     45 C                    -0.176556
     46 H                     0.084388
     47 H                     0.087211
     48 H                     0.092001
     49 C                    -0.180337
     50 H                     0.088472
     51 C                    -0.316447
     52 H                     0.102455
     53 H                     0.101499
     54 H                     0.103558
     55 H                     0.107129
     56 C                     0.263161
     57 C                    -0.114301
     58 N                    -0.497878
     59 C                    -0.064720
     60 C                     0.077537
     61 C                     0.050478
     62 C                    -0.024930
     63 C                     0.060438
     64 C                     0.241627
     65 N                    -0.514264
     66 N                    -0.546253
     67 C                     0.227208
     68 C                     0.323545
     69 S                     0.594651
     70 N                    -0.569014
     71 C                    -0.228854
     72 S                     0.334990
     73 C                    -0.131492
     74 C                    -0.241207
     75 S                     0.283119
     76 C                     0.179937
     77 C                     0.096860
     78 C                    -0.311040
     79 C                    -0.062927
     80 N                    -0.437579
     81 S                     0.240026
     82 C                     0.114920
     83 C                    -0.304299
     84 C                    -0.225573
     85 H                     0.090184
     86 H                     0.111390
     87 H                     0.109272
     88 H                     0.120537
     89 H                     0.133334
     90 H                     0.121222
     91 H                     0.109232
     92 H                     0.140282
     93 H                     0.118314
     94 C                    -0.175267
     95 H                     0.098995
     96 H                     0.116171
     97 H                     0.095369
     98 C                    -0.178862
     99 H                     0.100868
    100 C                    -0.172805
    101 H                     0.086410
    102 H                     0.096536
    103 H                     0.089637
    104 C                    -0.180042
    105 H                     0.092330
    106 C                    -0.316756
    107 H                     0.088989
    108 H                     0.100442
    109 H                     0.106105
    110 H                     0.101127
  ----------------------------------------
  Sum of atomic charges =     0.000000

                    Cartesian Multipole Moments
 -----------------------------------------------------------------
    Charge (ESU x 10^10)
                 0.0000
    Dipole Moment (Debye)
         X      -0.7010      Y      -3.3763      Z       2.3252
       Tot       4.1590
    Quadrupole Moments (Debye-Ang)
        XX    -392.2116     XY     -19.1081     YY    -415.4647
        XZ       5.6645     YZ      -7.1979     ZZ    -448.3874

 Total job time:  89.11s(wall), 1042.43s(cpu)
        *  Thank you very much for using Q-Chem.  Have a nice day.  *
