 Q-Chem 4.4, Q-Chem, Inc., Pleasanton, CA (2016)
 Q-Chem 4.4.2 for Intel X86 Linux

User input:
--------------------------------------------------------------
$comment
SP
$end

$rem
MEM_STATIC 5000
MEM_TOTAL 20000
JOBTYPE SP
EXCHANGE B3LYP
BASIS 6-31g(d,p)
$end

$molecule
0 1
C          14.666000     18.901000     15.731000
C          13.320000     19.055000     15.352000
N          15.639000     18.827000     14.780000
C          12.942000     19.038000     14.021000
C          15.276000     18.822000     13.444000
C          13.920000     18.907000     13.024000
C          13.593000     18.993000     11.559000
C          12.387000     18.435000     11.141000
C          14.382000     19.644000     10.615000
N          11.964000     18.495000      9.880000
N          15.558000     20.148000     10.892000
C          13.853000     19.784000      9.309000
C          12.666000     19.147000      8.944000
S          15.975000     20.878000      9.495000
N          14.684000     20.543000      8.517000
C          12.147000     19.163000      7.552000
S          12.737000     20.184000      6.272000
C          11.242000     18.263000      7.102000
C          11.860000     19.263000      5.075000
S          10.487000     16.872000      7.864000
C          11.120000     18.325000      5.716000
C          11.947000     19.465000      3.661000
C           9.978000     16.392000      6.244000
C          10.401000     17.245000      5.195000
N          10.921000     19.069000      2.945000
S          13.048000     20.539000      2.885000
C          10.987000     19.439000      1.666000
C          12.103000     20.225000      1.401000
C          14.963000     18.803000     17.183000
H          12.537000     19.185000     16.094000
H          11.892000     19.132000     13.759000
H          16.147000     18.804000     12.790000
H          11.691000     18.048000     11.884000
H           9.422000     15.477000      6.090000
H          10.187000     17.070000      4.148000
H          10.215000     19.063000      1.008000
H          12.439000     20.615000      0.449000
H          15.960000     19.237000     17.327000
C          15.102000     17.447000     17.774000
H          14.172000     19.351000     17.708000
H          15.892000     16.865000     17.285000
H          14.183000     16.907000     17.514000
C          15.383000     17.508000     19.257000
H          16.388000     17.912000     19.435000
C          15.391000     16.048000     19.847000
H          14.617000     18.102000     19.771000
H          15.734000     16.300000     20.858000
H          16.115000     15.419000     19.313000
C          13.994000     15.425000     19.959000
H          13.383000     16.086000     20.586000
C          14.094000     14.070000     20.610000
H          13.516000     15.360000     18.975000
H          14.469000     13.311000     19.910000
H          13.159000     13.750000     21.084000
H          14.807000     14.142000     21.440000
C           7.501000     20.103000     -3.327000
C           8.021000     20.633000     -2.132000
N           6.509000     19.157000     -3.275000
C           7.357000     20.350000     -0.900000
C           5.914000     18.845000     -2.091000
C           6.289000     19.460000     -0.884000
C           5.498000     19.334000      0.391000
C           4.098000     19.450000      0.388000
C           6.082000     18.940000      1.620000
N           3.353000     19.229000      1.482000
N           7.407000     18.828000      1.825000
C           5.291000     18.588000      2.662000
C           3.927000     18.758000      2.590000
S           7.532000     18.356000      3.367000
N           5.931000     18.227000      3.735000
C           2.999000     18.187000      3.540000
S           3.339000     17.099000      4.860000
C           1.613000     18.417000      3.551000
C           1.704000     16.975000      5.363000
S           0.555000     19.439000      2.537000
C           0.923000     17.719000      4.555000
C           1.217000     16.200000      6.457000
C          -0.825000     18.907000      3.477000
C          -0.464000     18.025000      4.484000
N           0.014000     16.250000      6.927000
S           2.417000     15.105000      7.267000
C          -0.048000     15.395000      8.005000
C           1.120000     14.715000      8.388000
C           8.122000     20.291000     -4.647000
H           8.829000     21.357000     -2.181000
H           7.676000     20.769000      0.048000
H           5.144000     18.087000     -1.953000
H           3.565000     19.748000     -0.512000
H          -1.819000     19.229000      3.197000
H          -1.180000     17.593000      5.173000
H          -0.983000     15.381000      8.548000
H           1.292000     13.935000      9.118000
H           7.360000     20.250000     -5.435000
C           9.177000     19.177000     -4.945000
H           8.633000     21.261000     -4.672000
H           8.915000     18.197000     -4.529000
H          10.155000     19.515000     -4.581000
C           9.303000     18.951000     -6.486000
H           8.283000     18.822000     -6.869000
C          10.263000     17.831000     -6.775000
H           9.667000     19.879000     -6.945000
H           9.687000     16.900000     -6.715000
H          11.033000     17.826000     -5.993000
C          11.000000     17.995000     -8.095000
H          11.244000     19.058000     -8.215000
C          10.160000     17.498000     -9.286000
H          11.925000     17.406000     -8.063000
H          10.733000     17.223000    -10.181000
H           9.380000     18.233000     -9.522000
H           9.674000     16.575000     -8.948000
$end

--------------------------------------------------------------

             Standard Nuclear Orientation (Angstroms)
    I     Atom           X                Y                Z
 ----------------------------------------------------------------
    1      C      11.4643433008    -0.6929687858    -0.7810135126
    2      C      10.5099541646     0.2809781157    -1.1269062844
    3      N      11.0623301888    -1.9377038563    -0.3994036830
    4      C       9.1542190450     0.0360555261    -0.9975648348
    5      C       9.7084790561    -2.2005903992    -0.2782930885
    6      C       8.7157755834    -1.2201321305    -0.5532519917
    7      C       7.2598405358    -1.5910373673    -0.4963974172
    8      C       6.3623677195    -0.5950372482    -0.1181774987
    9      C       6.7519412408    -2.8363104374    -0.8552724469
   10      N       5.0454828330    -0.7877309751    -0.0816627979
   11      N       7.5124117051    -3.8552053647    -1.1671358789
   12      C       5.3437297931    -2.9742403813    -0.9099793843
   13      C       4.5051772859    -1.9539069421    -0.4586343217
   14      S       6.4292956050    -4.9908609410    -1.6093393678
   15      N       4.9859411843    -4.2145155062    -1.3870652530
   16      C       3.0298407589    -2.1098731320    -0.3790247762
   17      S       2.1179186913    -3.4113388821    -1.0886204667
   18      C       2.2539946681    -1.3128321096     0.3918925034
   19      C       0.6906418701    -2.9585254298    -0.1897212216
   20      S       2.6445063244    -0.0088932665     1.5022051349
   21      C       0.9623781448    -1.8227043687     0.4990421007
   22      C      -0.5365603311    -3.6944389831    -0.1764924866
   23      C       0.9903142735    -0.1604488737     2.0976550126
   24      C       0.2148533439    -1.1779535062     1.4891456293
   25      N      -1.6239994156    -3.0214874169     0.1180587434
   26      S      -0.7699832396    -5.2344023214    -0.9126172468
   27      C      -2.7471860991    -3.7184372541    -0.0545958207
   28      C      -2.5075543191    -4.9843067628    -0.5776904557
   29      C      12.8955627103    -0.2988433597    -0.8299333508
   30      H      10.8099481566     1.2565933134    -1.4993731834
   31      H       8.4406995286     0.8163546605    -1.2465691734
   32      H       9.5223449768    -3.2400232500    -0.0106843195
   33      H       6.7231363855     0.4221085268     0.0284323308
   34      H       0.6369616686     0.4643341315     2.9068923900
   35      H      -0.8073983336    -1.4067173979     1.7635515141
   36      H      -3.6684958631    -3.2462483381     0.2593308367
   37      H      -3.2178897481    -5.7790892902    -0.7648917176
   38      H      13.4591541658    -1.2036385243    -1.0884123272
   39      C      13.5382480874     0.1434832596     0.4344402759
   40      H      12.9822649337     0.4949110920    -1.5809637063
   41      H      13.4844799667    -0.6260669275     1.2134438052
   42      H      12.9109802906     0.9538528418     0.8263551280
   43      C      14.9835282924     0.5290617442     0.2235721626
   44      H      15.5822006711    -0.3611492060    -0.0088947105
   45      C      15.5699670335     1.1086851980     1.5651720489
   46      H      15.0699709397     1.2858365220    -0.5661161331
   47      H      16.6156859107     1.1919268899     1.2445213815
   48      H      15.4480381699     0.3877533666     2.3839294285
   49      C      15.0601638420     2.5161853518     1.8988275940
   50      H      15.3149068359     3.1717724809     1.0569947583
   51      C      15.7385192158     3.0183559523     3.1468198516
   52      H      13.9698276862     2.5200704706     2.0089047177
   53      H      15.3155413022     2.5589648111     4.0505650944
   54      H      15.7487056403     4.1118299372     3.2210618959
   55      H      16.7981544930     2.7411003600     3.0943277974
   56      C      -8.8003290390    -2.9989355469    -0.6586809490
   57      C      -7.5214453278    -3.0529396118    -1.2425174109
   58      N      -9.1669758707    -1.8975261436     0.0721756902
   59      C      -6.7149547633    -1.8747485286    -1.2582571977
   60      C      -8.3707518062    -0.7937858774     0.1039508993
   61      C      -7.1503530185    -0.7353904449    -0.5909705154
   62      C      -6.3694221365     0.5366907707    -0.7888046340
   63      C      -7.0121125989     1.7296805510    -1.1591954459
   64      C      -4.9947704915     0.6506690334    -0.4661983562
   65      N      -6.3676784594     2.9045037880    -1.2312856784
   66      N      -4.2064621164    -0.3900720911    -0.1412032526
   67      C      -4.4123367324     1.8726334761    -0.4121352710
   68      C      -5.1022403293     2.9920434641    -0.8189943444
   69      S      -2.7584401497     0.2777062507     0.1298640274
   70      N      -3.1524380646     1.8625449131    -0.0899496599
   71      C      -4.6552464818     4.3430091967    -0.5644101942
   72      S      -3.2829577041     4.8662278682     0.3762330604
   73      C      -5.2836173441     5.5040902078    -1.0450950653
   74      C      -3.5724101225     6.5382337373     0.1267863303
   75      S      -6.7067975697     5.7547142267    -2.0957090032
   76      C      -4.6755178189     6.6997550914    -0.6304621510
   77      C      -2.7890169090     7.6134430484     0.6414221340
   78      C      -6.4754016623     7.4865708484    -1.9609775078
   79      C      -5.3803360084     7.8088884891    -1.1740616596
   80      N      -2.9186301814     8.8551311678     0.3067282237
   81      S      -1.4801023268     7.1668977475     1.8172048140
   82      C      -1.9534213227     9.5709656203     0.9797110582
   83      C      -1.0555122905     8.8729178193     1.8042118995
   84      C      -9.7009252123    -4.1563856986    -0.5463391531
   85      H      -7.2268852437    -3.9424171990    -1.7916121010
   86      H      -5.7427991802    -1.8357313190    -1.7372323323
   87      H      -8.5674963485     0.1089236238     0.6809388901
   88      H      -8.0669578261     1.7359034246    -1.4240648903
   89      H      -7.1885216092     8.1586550779    -2.4191071072
   90      H      -5.0749397904     8.8301865860    -0.9799370933
   91      H      -1.8938841753    10.6252036600     0.7466713967
   92      H      -0.2968367310     9.2165804216     2.4950023245
   93      H     -10.7466362352    -3.8251748176    -0.5388019871
   94      C      -9.4433996607    -4.9536404258     0.7730889390
   95      H      -9.5295104753    -4.8321525414    -1.3928627275
   96      H      -9.1533394348    -4.3228047884     1.6216238315
   97      H      -8.6888041139    -5.7245677038     0.5743914482
   98      C     -10.7490686307    -5.6819232880     1.2274738127
   99      H     -11.5478862730    -4.9299104400     1.2176223869
  100      C     -10.5264140950    -6.3910885761     2.5340076056
  101      H     -11.0290587445    -6.4086044432     0.4542332066
  102      H     -10.6977136925    -5.6522685350     3.3258020201
  103      H      -9.4805983251    -6.7214758652     2.5735375271
  104      C     -11.3734124026    -7.6442398151     2.6910771407
  105      H     -11.4114223449    -8.1495469452     1.7178736941
  106      C     -12.7952815076    -7.3169835009     3.1832981818
  107      H     -10.9018431478    -8.3035293919     3.4303536058
  108      H     -13.3210699104    -8.1431980364     3.6791762886
  109      H     -13.3883945280    -6.9057675974     2.3565942289
  110      H     -12.6785753839    -6.5376464583     3.9457825782
 ----------------------------------------------------------------

   11   -5663.5487424134      4.82E-06 Convergence criterion met
 Total energy in the final basis set = -5663.5487424134

                    Orbital Energies (a.u.)
 --------------------------------------------------------------

 Alpha MOs
 -- Occupied --
-88.990 -88.985 -88.933 -88.924 -88.924 -88.918 -88.915 -88.905
-14.396 -14.388 -14.381 -14.380 -14.350 -14.347 -14.344 -14.340
-14.331 -14.329 -10.269 -10.268 -10.263 -10.258 -10.255 -10.254
-10.248 -10.241 -10.239 -10.238 -10.238 -10.236 -10.236 -10.234
-10.233 -10.232 -10.232 -10.231 -10.230 -10.228 -10.228 -10.227
-10.226 -10.226 -10.225 -10.220 -10.219 -10.219 -10.216 -10.210
-10.209 -10.208 -10.202 -10.201 -10.200 -10.196 -10.196 -10.190
-10.186 -10.184 -10.180 -10.179 -10.178 -10.177 -10.176 -10.175
-10.174 -10.173 -10.170 -10.170  -8.046  -8.040  -7.994  -7.985
 -7.984  -7.979  -7.974  -7.964  -6.011  -6.005  -6.005  -6.004
 -5.999  -5.998  -5.958  -5.955  -5.951  -5.949  -5.948  -5.945
 -5.944  -5.943  -5.941  -5.941  -5.940  -5.938  -5.936  -5.935
 -5.930  -5.929  -5.925  -5.920  -1.050  -1.045  -0.983  -0.974
 -0.967  -0.964  -0.929  -0.926  -0.922  -0.917  -0.915  -0.911
 -0.848  -0.845  -0.835  -0.834  -0.816  -0.813  -0.813  -0.808
 -0.807  -0.803  -0.800  -0.796  -0.788  -0.787  -0.774  -0.766
 -0.754  -0.747  -0.745  -0.737  -0.728  -0.720  -0.713  -0.710
 -0.696  -0.692  -0.679  -0.675  -0.658  -0.654  -0.648  -0.648
 -0.640  -0.637  -0.630  -0.625  -0.613  -0.608  -0.602  -0.597
 -0.597  -0.592  -0.585  -0.583  -0.580  -0.578  -0.567  -0.565
 -0.557  -0.552  -0.546  -0.539  -0.527  -0.521  -0.515  -0.511
 -0.506  -0.505  -0.503  -0.498  -0.495  -0.490  -0.483  -0.482
 -0.477  -0.474  -0.471  -0.470  -0.468  -0.463  -0.455  -0.452
 -0.448  -0.446  -0.444  -0.439  -0.438  -0.435  -0.434  -0.431
 -0.428  -0.427  -0.422  -0.420  -0.420  -0.419  -0.417  -0.416
 -0.413  -0.412  -0.411  -0.404  -0.403  -0.401  -0.399  -0.398
 -0.396  -0.393  -0.392  -0.390  -0.388  -0.388  -0.385  -0.381
 -0.379  -0.378  -0.373  -0.370  -0.368  -0.365  -0.361  -0.359
 -0.358  -0.352  -0.349  -0.349  -0.348  -0.345  -0.343  -0.340
 -0.338  -0.337  -0.336  -0.336  -0.334  -0.331  -0.329  -0.323
 -0.322  -0.315  -0.314  -0.310  -0.308  -0.307  -0.303  -0.302
 -0.298  -0.298  -0.296  -0.293  -0.289  -0.284  -0.283  -0.278
 -0.275  -0.270  -0.267  -0.261  -0.257  -0.250  -0.249  -0.249
 -0.246  -0.244  -0.232  -0.231  -0.194  -0.192

          Ground-State Mulliken Net Atomic Charges

     Atom                 Charge (a.u.)
  ----------------------------------------
      1 C                     0.287136
      2 C                    -0.122686
      3 N                    -0.504096
      4 C                    -0.069895
      5 C                     0.071637
      6 C                     0.030273
      7 C                     0.025555
      8 C                     0.058528
      9 C                     0.257124
     10 N                    -0.533396
     11 N                    -0.556412
     12 C                     0.198397
     13 C                     0.316423
     14 S                     0.600751
     15 N                    -0.560077
     16 C                    -0.219872
     17 S                     0.317398
     18 C                    -0.101698
     19 C                    -0.218557
     20 S                     0.292554
     21 C                     0.158212
     22 C                     0.053335
     23 C                    -0.320951
     24 C                    -0.059241
     25 N                    -0.434899
     26 S                     0.269232
     27 C                     0.139748
     28 C                    -0.329640
     29 C                    -0.222272
     30 H                     0.084937
     31 H                     0.098418
     32 H                     0.127446
     33 H                     0.110983
     34 H                     0.124714
     35 H                     0.125199
     36 H                     0.138648
     37 H                     0.130255
     38 H                     0.112967
     39 C                    -0.162821
     40 H                     0.094787
     41 H                     0.105491
     42 H                     0.088161
     43 C                    -0.180776
     44 H                     0.094663
     45 C                    -0.177571
     46 H                     0.088292
     47 H                     0.089155
     48 H                     0.093744
     49 C                    -0.167173
     50 H                     0.090717
     51 C                    -0.314261
     52 H                     0.096535
     53 H                     0.103887
     54 H                     0.096731
     55 H                     0.101245
     56 C                     0.267649
     57 C                    -0.122260
     58 N                    -0.497067
     59 C                    -0.069080
     60 C                     0.085591
     61 C                     0.045521
     62 C                    -0.024459
     63 C                     0.060636
     64 C                     0.247716
     65 N                    -0.515705
     66 N                    -0.568774
     67 C                     0.221146
     68 C                     0.322617
     69 S                     0.620557
     70 N                    -0.573298
     71 C                    -0.228487
     72 S                     0.335356
     73 C                    -0.131653
     74 C                    -0.242187
     75 S                     0.279157
     76 C                     0.179575
     77 C                     0.096963
     78 C                    -0.311609
     79 C                    -0.063138
     80 N                    -0.438090
     81 S                     0.238047
     82 C                     0.114631
     83 C                    -0.304178
     84 C                    -0.224472
     85 H                     0.084669
     86 H                     0.112303
     87 H                     0.105610
     88 H                     0.119126
     89 H                     0.132515
     90 H                     0.120540
     91 H                     0.108202
     92 H                     0.139009
     93 H                     0.118626
     94 C                    -0.174311
     95 H                     0.095047
     96 H                     0.116103
     97 H                     0.092228
     98 C                    -0.178559
     99 H                     0.101361
    100 C                    -0.173014
    101 H                     0.085404
    102 H                     0.096733
    103 H                     0.088786
    104 C                    -0.179846
    105 H                     0.091924
    106 C                    -0.316332
    107 H                     0.088889
    108 H                     0.100377
    109 H                     0.105819
    110 H                     0.101102
  ----------------------------------------
  Sum of atomic charges =     0.000000

                    Cartesian Multipole Moments
 -----------------------------------------------------------------
    Charge (ESU x 10^10)
                 0.0000
    Dipole Moment (Debye)
         X       1.6362      Y      -0.8028      Z       0.0878
       Tot       1.8247
    Quadrupole Moments (Debye-Ang)
        XX    -450.8682     XY      36.4429     YY    -411.3181
        XZ       1.6270     YZ      12.4101     ZZ    -443.5320

 Total job time:  98.63s(wall), 1167.68s(cpu)
        *  Thank you very much for using Q-Chem.  Have a nice day.  *
