 Q-Chem 4.4, Q-Chem, Inc., Pleasanton, CA (2016)
 Q-Chem 4.4.2 for Intel X86 Linux

User input:
--------------------------------------------------------------
$comment
SP
$end

$rem
MEM_STATIC 5000
MEM_TOTAL 20000
JOBTYPE SP
EXCHANGE B3LYP
BASIS 6-31g(d,p)
$end

$molecule
0 1
C          11.736000     29.585000      6.208000
C          11.782000     28.474000      5.328000
N          10.977000     29.637000      7.323000
C          11.080000     27.314000      5.670000
C          10.237000     28.527000      7.630000
C          10.266000     27.284000      6.872000
C           9.385000     26.226000      7.195000
C           8.666000     25.573000      6.177000
C           9.141000     25.773000      8.526000
N           7.688000     24.703000      6.398000
N           9.726000     26.218000      9.661000
C           8.123000     24.856000      8.759000
C           7.410000     24.247000      7.656000
S           8.956000     25.444000     10.880000
N           7.888000     24.573000     10.047000
C           6.406000     23.182000      7.780000
S           5.850000     22.393000      9.290000
C           5.675000     22.579000      6.736000
C           4.928000     21.214000      8.380000
S           5.647000     23.100000      5.050000
C           4.860000     21.546000      7.077000
C           4.198000     20.092000      8.894000
C           4.439000     21.808000      4.779000
C           4.185000     21.075000      5.911000
N           3.149000     19.653000      8.314000
S           4.409000     19.555000     10.580000
C           2.498000     18.724000      9.078000
C           3.000000     18.594000     10.356000
C          12.327000     30.886000      5.760000
H          12.340000     28.479000      4.398000
H          11.008000     26.493000      4.964000
H           9.672000     28.612000      8.557000
H           8.923000     25.788000      5.141000
H           4.004000     21.594000      3.810000
H           3.468000     20.264000      5.860000
H           1.585000     18.241000      8.755000
H           2.577000     18.078000     11.208000
H          12.856000     31.191000      6.673000
C          11.311000     31.953000      5.364000
H          13.141000     30.862000      5.025000
H          10.514000     32.031000      6.114000
H          10.814000     31.511000      4.491000
C          11.879000     33.399000      5.088000
H          12.227000     33.841000      6.030000
C          10.894000     34.369000      4.457000
H          12.784000     33.420000      4.469000
H           9.914000     33.926000      4.674000
H          10.934000     34.250000      3.368000
C          11.225000     35.793000      4.807000
H          11.106000     35.965000      5.884000
C          10.393000     36.914000      4.091000
H          12.269000     36.024000      4.562000
H          10.646000     37.913000      4.470000
H           9.324000     36.761000      4.285000
H          10.645000     36.840000      3.026000
C           7.501000     20.103000     -3.327000
C           8.021000     20.633000     -2.132000
N           6.509000     19.157000     -3.275000
C           7.357000     20.350000     -0.900000
C           5.914000     18.845000     -2.091000
C           6.289000     19.460000     -0.884000
C           5.498000     19.334000      0.391000
C           4.098000     19.450000      0.388000
C           6.082000     18.940000      1.620000
N           3.353000     19.229000      1.482000
N           7.407000     18.828000      1.825000
C           5.291000     18.588000      2.662000
C           3.927000     18.758000      2.590000
S           7.532000     18.356000      3.367000
N           5.931000     18.227000      3.735000
C           2.999000     18.187000      3.540000
S           3.339000     17.099000      4.860000
C           1.613000     18.417000      3.551000
C           1.704000     16.975000      5.363000
S           0.555000     19.439000      2.537000
C           0.923000     17.719000      4.555000
C           1.217000     16.200000      6.457000
C          -0.825000     18.907000      3.477000
C          -0.464000     18.025000      4.484000
N           0.014000     16.250000      6.927000
S           2.417000     15.105000      7.267000
C          -0.048000     15.395000      8.005000
C           1.120000     14.715000      8.388000
C           8.122000     20.291000     -4.647000
H           8.829000     21.357000     -2.181000
H           7.676000     20.769000      0.048000
H           5.144000     18.087000     -1.953000
H           3.565000     19.748000     -0.512000
H          -1.819000     19.229000      3.197000
H          -1.180000     17.593000      5.173000
H          -0.983000     15.381000      8.548000
H           1.292000     13.935000      9.118000
H           7.360000     20.250000     -5.435000
C           9.177000     19.177000     -4.945000
H           8.633000     21.261000     -4.672000
H           8.915000     18.197000     -4.529000
H          10.155000     19.515000     -4.581000
C           9.303000     18.951000     -6.486000
H           8.283000     18.822000     -6.869000
C          10.263000     17.831000     -6.775000
H           9.667000     19.879000     -6.945000
H           9.687000     16.900000     -6.715000
H          11.033000     17.826000     -5.993000
C          11.000000     17.995000     -8.095000
H          11.244000     19.058000     -8.215000
C          10.160000     17.498000     -9.286000
H          11.925000     17.406000     -8.063000
H          10.733000     17.223000    -10.181000
H           9.380000     18.233000     -9.522000
H           9.674000     16.575000     -8.948000
$end

--------------------------------------------------------------

             Standard Nuclear Orientation (Angstroms)
    I     Atom           X                Y                Z
 ----------------------------------------------------------------
    1      C       9.4782908325     1.2111268053    -0.9654168728
    2      C       8.3007791357     1.9202088137    -1.3139938503
    3      N       9.5085318145    -0.1036485489    -0.6613424558
    4      C       7.1031954704     1.2114836963    -1.4513622337
    5      C       8.3266779903    -0.7908053329    -0.7319547226
    6      C       7.0644625273    -0.2127420030    -1.1713963131
    7      C       5.8693196335    -0.9659380841    -1.1067192165
    8      C       4.7046973296    -0.3930116699    -0.5634842644
    9      C       5.7589781210    -2.3206738488    -1.5412554735
   10      N       3.5974145693    -1.0736248748    -0.2934554620
   11      N       6.7212795770    -3.0746295795    -2.1191842441
   12      C       4.5975479912    -3.0329551252    -1.2669610390
   13      C       3.4485689831    -2.3758636543    -0.6804995843
   14      S       6.0740266865    -4.5706486821    -2.2638477865
   15      N       4.6234046466    -4.3280234453    -1.6081171316
   16      C       2.1361105089    -2.9980131726    -0.4614111766
   17      S       1.6539831139    -4.6744593154    -0.8723108058
   18      C       1.0012575112    -2.4012661729     0.1250252582
   19      C      -0.0164074548    -4.3337159577    -0.4699250306
   20      S       0.9476120619    -0.8258717442     0.9187982481
   21      C      -0.1383761503    -3.1418470000     0.1442646998
   22      C      -1.1445857781    -5.2064884316    -0.6164237673
   23      C      -0.7612746462    -1.1929698564     1.3020921235
   24      C      -1.1713450890    -2.3984134013     0.7902551455
   25      N      -2.1467194401    -5.1435807924     0.1717974913
   26      S      -1.0239334399    -6.7099554316    -1.5653789786
   27      C      -3.0041145883    -6.1930050393    -0.0129193458
   28      C      -2.5263380506    -7.1676698977    -0.8637695052
   29      C      10.7164435692     1.9857773913    -0.6345388436
   30      H       8.2836286141     2.9914907883    -1.4823678106
   31      H       6.1703481512     1.7436035249    -1.6072640201
   32      H       8.4164297522    -1.8532175642    -0.5105865404
   33      H       4.7031029447     0.6747272538    -0.3501745161
   34      H      -1.4133316079    -0.5068947058     1.8294483660
   35      H      -2.1916240798    -2.7206927132     0.9622371974
   36      H      -3.9099175346    -6.3137930285     0.5668377448
   37      H      -2.9067448067    -8.1645318801    -1.0444512364
   38      H      11.4712165506     1.3974951684    -1.1736833259
   39      C      11.0625992691     2.0442194002     0.8501570051
   40      H      10.8434297816     2.9795054056    -1.0815020807
   41      H      10.9933399138     1.0490365001     1.3068923082
   42      H      10.2168946568     2.5953185975     1.2809416189
   43      C      12.4633656626     2.6674729925     1.2231509332
   44      H      13.2632582616     1.9937010876     0.8914353166
   45      C      12.6731553037     2.9426509515     2.7028642153
   46      H      12.7020425074     3.5966359205     0.6918161827
   47      H      11.9270145297     2.3073427748     3.1962154756
   48      H      12.2766658051     3.9382419143     2.9336817018
   49      C      14.1306731941     2.8986331636     3.0682968815
   50      H      14.5339912675     1.8874997557     2.9318499570
   51      C      14.5118683323     3.3276738426     4.5284802133
   52      H      14.7166517474     3.5640578200     2.4224167366
   53      H      15.5818868094     3.1836521999     4.7284032612
   54      H      13.9665637424     2.7063902752     5.2499063241
   55      H      14.2539384050     4.3910614020     4.6051877823
   56      C      -3.1916062321     7.2467798830     0.3778531291
   57      C      -2.1684047607     6.4205444144    -0.1218654911
   58      N      -4.4182539952     6.7068306006     0.6702125616
   59      C      -2.3476215987     5.0041078100    -0.1019238103
   60      C      -4.6055316933     5.3589261269     0.6340795636
   61      C      -3.5704634954     4.4719677467     0.2910960984
   62      C      -3.6597396361     2.9809798879     0.4812722688
   63      C      -4.1786696728     2.4328094701     1.6660447406
   64      C      -3.3844568814     2.0576082776    -0.5571579283
   65      N      -4.3804874054     1.1156244249     1.8241433160
   66      N      -2.8371238721     2.3921579316    -1.7398231835
   67      C      -3.7328977267     0.7562520490    -0.4142945552
   68      C      -4.2098664301     0.2907280981     0.7900178242
   69      S      -2.7404474259     0.9916941660    -2.5432706965
   70      N      -3.4497015554     0.0006724603    -1.4341717114
   71      C      -4.8313566104    -1.0036963521     0.9571713418
   72      S      -5.2276754760    -2.1769550956    -0.2708918803
   73      C      -5.2431374362    -1.5476492607     2.1854094232
   74      C      -5.9088656414    -3.3040341636     0.8278723042
   75      S      -5.1313246796    -0.9479679229     3.8646724165
   76      C      -5.8522842850    -2.8082481398     2.0798131050
   77      C      -6.4682175888    -4.5726678029     0.4927244440
   78      C      -5.9216330039    -2.4109974565     4.4178282140
   79      C      -6.2234268165    -3.2703966409     3.3725303920
   80      N      -6.8205941423    -5.4788482950     1.3443562189
   81      S      -6.6381790360    -4.9368533954    -1.2774752512
   82      C      -7.2653638266    -6.5701327683     0.6314529110
   83      C      -7.2191441741    -6.5171867103    -0.7715344227
   84      C      -3.1374159484     8.7166030113     0.3695836294
   85      H      -1.2107663507     6.8617632938    -0.3820492264
   86      H      -1.5783421071     4.3109359226    -0.4240228609
   87      H      -5.5497759927     4.8485720205     0.8196850301
   88      H      -4.4186055209     3.0676215489     2.5159490961
   89      H      -6.1660939147    -2.5234099300     5.4655506481
   90      H      -6.7082964791    -4.2282298579     3.5190156772
   91      H      -7.5331394358    -7.4414661883     1.2131266119
   92      H      -7.5970326061    -7.1902074656    -1.5299059649
   93      H      -3.7343769166     9.1237434400     1.1948976749
   94      C      -3.7057702860     9.3009280592    -0.9639689887
   95      H      -2.0944881556     9.0411224352     0.4677404559
   96      H      -4.5351691376     8.7195061763    -1.3836666647
   97      H      -2.8828786390     9.3960845198    -1.6830090330
   98      C      -4.2852522414    10.7318992236    -0.7228151169
   99      H      -4.9543461190    10.6579520471     0.1435423139
  100      C      -4.8979731974    11.2692690674    -1.9858779345
  101      H      -3.4675024234    11.3882715675    -0.3990535051
  102      H      -5.9263080839    10.8906534003    -2.0221344900
  103      H      -4.3383359759    10.8662296728    -2.8395842228
  104      C      -4.8130950522    12.7833073026    -2.0996712679
  105      H      -3.8359837623    13.0962929851    -1.7108287679
  106      C      -5.9480465403    13.4806261339    -1.3271937168
  107      H      -4.8973759912    13.0672086425    -3.1560172115
  108      H      -6.1866786278    14.4982251339    -1.6626426729
  109      H      -5.7343287011    13.4552063477    -0.2510898558
  110      H      -6.8500537181    12.8858893066    -1.5143838806
 ----------------------------------------------------------------

    9   -5663.5509279323      8.55E-06 Convergence criterion met
 Total energy in the final basis set = -5663.5509279323

                    Orbital Energies (a.u.)
 --------------------------------------------------------------

 Alpha MOs
 -- Occupied --
-88.990 -88.987 -88.928 -88.927 -88.924 -88.920 -88.909 -88.905
-14.386 -14.385 -14.384 -14.380 -14.353 -14.349 -14.346 -14.342
-14.332 -14.331 -10.274 -10.266 -10.264 -10.259 -10.253 -10.253
-10.252 -10.246 -10.244 -10.244 -10.240 -10.239 -10.238 -10.237
-10.237 -10.235 -10.231 -10.230 -10.230 -10.230 -10.229 -10.229
-10.228 -10.227 -10.223 -10.223 -10.217 -10.217 -10.216 -10.214
-10.209 -10.208 -10.204 -10.201 -10.201 -10.199 -10.194 -10.190
-10.185 -10.183 -10.181 -10.180 -10.178 -10.176 -10.176 -10.174
-10.172 -10.172 -10.172 -10.170  -8.046  -8.043  -7.988  -7.985
 -7.985  -7.982  -7.968  -7.964  -6.011  -6.008  -6.006  -6.004
 -6.002  -6.000  -5.952  -5.950  -5.948  -5.948  -5.946  -5.946
 -5.945  -5.945  -5.942  -5.942  -5.942  -5.939  -5.933  -5.929
 -5.929  -5.925  -5.925  -5.920  -1.055  -1.042  -0.982  -0.980
 -0.969  -0.954  -0.931  -0.929  -0.921  -0.916  -0.915  -0.905
 -0.849  -0.841  -0.837  -0.835  -0.815  -0.810  -0.810  -0.808
 -0.807  -0.804  -0.798  -0.793  -0.787  -0.784  -0.769  -0.766
 -0.748  -0.746  -0.741  -0.735  -0.725  -0.724  -0.712  -0.712
 -0.694  -0.692  -0.680  -0.674  -0.656  -0.652  -0.651  -0.645
 -0.642  -0.632  -0.631  -0.621  -0.611  -0.610  -0.599  -0.596
 -0.594  -0.590  -0.586  -0.581  -0.578  -0.576  -0.573  -0.566
 -0.556  -0.551  -0.543  -0.539  -0.526  -0.525  -0.516  -0.510
 -0.506  -0.506  -0.503  -0.498  -0.496  -0.487  -0.482  -0.479
 -0.477  -0.472  -0.471  -0.470  -0.465  -0.463  -0.451  -0.451
 -0.447  -0.443  -0.440  -0.439  -0.438  -0.437  -0.433  -0.431
 -0.429  -0.428  -0.426  -0.424  -0.421  -0.420  -0.416  -0.413
 -0.412  -0.411  -0.407  -0.405  -0.401  -0.400  -0.399  -0.397
 -0.396  -0.394  -0.393  -0.388  -0.386  -0.384  -0.382  -0.380
 -0.373  -0.373  -0.372  -0.372  -0.365  -0.364  -0.358  -0.353
 -0.351  -0.351  -0.349  -0.348  -0.346  -0.345  -0.341  -0.340
 -0.339  -0.339  -0.336  -0.333  -0.332  -0.328  -0.322  -0.317
 -0.317  -0.314  -0.313  -0.311  -0.310  -0.305  -0.304  -0.303
 -0.301  -0.299  -0.298  -0.295  -0.290  -0.283  -0.281  -0.279
 -0.275  -0.269  -0.269  -0.263  -0.253  -0.251  -0.250  -0.250
 -0.247  -0.246  -0.234  -0.227  -0.197  -0.191

          Ground-State Mulliken Net Atomic Charges

     Atom                 Charge (a.u.)
  ----------------------------------------
      1 C                     0.258733
      2 C                    -0.109990
      3 N                    -0.473700
      4 C                    -0.083372
      5 C                     0.080980
      6 C                     0.021619
      7 C                     0.017892
      8 C                     0.079385
      9 C                     0.252806
     10 N                    -0.535537
     11 N                    -0.557967
     12 C                     0.181580
     13 C                     0.319167
     14 S                     0.600927
     15 N                    -0.554568
     16 C                    -0.221542
     17 S                     0.327462
     18 C                    -0.139264
     19 C                    -0.255983
     20 S                     0.274973
     21 C                     0.214968
     22 C                     0.070477
     23 C                    -0.319134
     24 C                    -0.062364
     25 N                    -0.416376
     26 S                     0.245817
     27 C                     0.116699
     28 C                    -0.306374
     29 C                    -0.223515
     30 H                     0.094338
     31 H                     0.094979
     32 H                     0.116741
     33 H                     0.108050
     34 H                     0.128940
     35 H                     0.137297
     36 H                     0.126321
     37 H                     0.136931
     38 H                     0.113539
     39 C                    -0.180293
     40 H                     0.092849
     41 H                     0.119464
     42 H                     0.088246
     43 C                    -0.181202
     44 H                     0.097437
     45 C                    -0.165344
     46 H                     0.087147
     47 H                     0.093609
     48 H                     0.087887
     49 C                    -0.184839
     50 H                     0.095940
     51 C                    -0.321802
     52 H                     0.095726
     53 H                     0.100305
     54 H                     0.104916
     55 H                     0.101905
     56 C                     0.266994
     57 C                    -0.118350
     58 N                    -0.497488
     59 C                    -0.063801
     60 C                     0.085965
     61 C                     0.045953
     62 C                    -0.024752
     63 C                     0.058848
     64 C                     0.242172
     65 N                    -0.519322
     66 N                    -0.544742
     67 C                     0.230990
     68 C                     0.320267
     69 S                     0.602116
     70 N                    -0.567430
     71 C                    -0.232145
     72 S                     0.341747
     73 C                    -0.134979
     74 C                    -0.238834
     75 S                     0.280555
     76 C                     0.181619
     77 C                     0.093758
     78 C                    -0.310931
     79 C                    -0.062488
     80 N                    -0.441878
     81 S                     0.243447
     82 C                     0.108546
     83 C                    -0.305478
     84 C                    -0.224501
     85 H                     0.087055
     86 H                     0.111712
     87 H                     0.104636
     88 H                     0.121223
     89 H                     0.134470
     90 H                     0.120658
     91 H                     0.109440
     92 H                     0.140279
     93 H                     0.118072
     94 C                    -0.174872
     95 H                     0.095548
     96 H                     0.116319
     97 H                     0.094861
     98 C                    -0.179089
     99 H                     0.100867
    100 C                    -0.173481
    101 H                     0.085480
    102 H                     0.096452
    103 H                     0.089922
    104 C                    -0.179624
    105 H                     0.092088
    106 C                    -0.316834
    107 H                     0.088984
    108 H                     0.100277
    109 H                     0.105770
    110 H                     0.101038
  ----------------------------------------
  Sum of atomic charges =     0.000000

                    Cartesian Multipole Moments
 -----------------------------------------------------------------
    Charge (ESU x 10^10)
                 0.0000
    Dipole Moment (Debye)
         X      -1.7348      Y      -1.0518      Z      -2.2649
       Tot       3.0407
    Quadrupole Moments (Debye-Ang)
        XX    -454.7886     XY      42.8456     YY    -400.3942
        XZ       4.0301     YZ       2.2551     ZZ    -442.1222

 Total job time:  84.51s(wall), 998.35s(cpu)
        *  Thank you very much for using Q-Chem.  Have a nice day.  *
