 Q-Chem 4.4, Q-Chem, Inc., Pleasanton, CA (2016)
 Q-Chem 4.4.2 for Intel X86 Linux

User input:
--------------------------------------------------------------
$comment
SP
$end

$rem
MEM_STATIC 5000
MEM_TOTAL 20000
JOBTYPE SP
EXCHANGE B3LYP
BASIS 6-31g(d,p)
$end

$molecule
0 1
C          10.789000     11.407000      8.300000
C          11.740000     10.784000      7.510000
N           9.908000     12.365000      7.844000
C          11.666000     11.001000      6.180000
C           9.948000     12.683000      6.552000
C          10.763000     11.956000      5.639000
C          10.732000     12.197000      4.238000
C          10.674000     13.533000      3.799000
C          10.628000     11.174000      3.161000
N          10.506000     13.858000      2.464000
N          10.545000      9.845000      3.441000
C          10.516000     11.529000      1.819000
C          10.450000     12.928000      1.480000
S          10.423000      9.161000      1.944000
N          10.435000     10.488000      0.967000
C          10.235000     13.378000      0.094000
S          10.309000     12.389000     -1.398000
C           9.839000     14.630000     -0.303000
C           9.909000     13.725000     -2.454000
S           9.329000     15.994000      0.682000
C           9.563000     14.823000     -1.664000
C           9.833000     13.714000     -3.849000
C           8.860000     16.818000     -0.766000
C           9.016000     16.123000     -1.934000
N           9.586000     12.530000     -4.307000
S          10.553000     14.914000     -4.924000
C          10.030000     12.480000     -5.582000
C          10.679000     13.619000     -6.049000
C          10.666000     11.165000      9.757000
H          12.362000      9.960000      7.846000
H          12.410000     10.581000      5.509000
H           9.184000     13.419000      6.306000
H          10.593000     14.350000      4.515000
H           8.228000     17.690000     -0.664000
H           8.775000     16.446000     -2.940000
H          10.002000     11.556000     -6.142000
H          11.124000     13.796000     -7.021000
H           9.784000     11.670000     10.168000
C          11.953000     11.438000     10.580000
H          10.360000     10.132000      9.964000
H          12.868000     10.944000     10.231000
H          11.817000     10.835000     11.488000
C          12.169000     12.972000     10.856000
H          13.227000     13.038000     11.139000
C          11.374000     13.454000     12.083000
H          12.039000     13.587000      9.958000
H          11.577000     12.770000     12.917000
H          10.309000     13.466000     11.821000
C          11.852000     14.881000     12.410000
H          12.912000     14.937000     12.688000
C          11.075000     15.535000     13.663000
H          11.738000     15.575000     11.569000
H           9.992000     15.364000     13.694000
H          11.143000     16.630000     13.660000
H          11.560000     15.196000     14.587000
C           7.501000     20.103000     -3.327000
C           8.021000     20.633000     -2.132000
N           6.509000     19.157000     -3.275000
C           7.357000     20.350000     -0.900000
C           5.914000     18.845000     -2.091000
C           6.289000     19.460000     -0.884000
C           5.498000     19.334000      0.391000
C           4.098000     19.450000      0.388000
C           6.082000     18.940000      1.620000
N           3.353000     19.229000      1.482000
N           7.407000     18.828000      1.825000
C           5.291000     18.588000      2.662000
C           3.927000     18.758000      2.590000
S           7.532000     18.356000      3.367000
N           5.931000     18.227000      3.735000
C           2.999000     18.187000      3.540000
S           3.339000     17.099000      4.860000
C           1.613000     18.417000      3.551000
C           1.704000     16.975000      5.363000
S           0.555000     19.439000      2.537000
C           0.923000     17.719000      4.555000
C           1.217000     16.200000      6.457000
C          -0.825000     18.907000      3.477000
C          -0.464000     18.025000      4.484000
N           0.014000     16.250000      6.927000
S           2.417000     15.105000      7.267000
C          -0.048000     15.395000      8.005000
C           1.120000     14.715000      8.388000
C           8.122000     20.291000     -4.647000
H           8.829000     21.357000     -2.181000
H           7.676000     20.769000      0.048000
H           5.144000     18.087000     -1.953000
H           3.565000     19.748000     -0.512000
H          -1.819000     19.229000      3.197000
H          -1.180000     17.593000      5.173000
H          -0.983000     15.381000      8.548000
H           1.292000     13.935000      9.118000
H           7.360000     20.250000     -5.435000
C           9.177000     19.177000     -4.945000
H           8.633000     21.261000     -4.672000
H           8.915000     18.197000     -4.529000
H          10.155000     19.515000     -4.581000
C           9.303000     18.951000     -6.486000
H           8.283000     18.822000     -6.869000
C          10.263000     17.831000     -6.775000
H           9.667000     19.879000     -6.945000
H           9.687000     16.900000     -6.715000
H          11.033000     17.826000     -5.993000
C          11.000000     17.995000     -8.095000
H          11.244000     19.058000     -8.215000
C          10.160000     17.498000     -9.286000
H          11.925000     17.406000     -8.063000
H          10.733000     17.223000    -10.181000
H           9.380000     18.233000     -9.522000
H           9.674000     16.575000     -8.948000
$end

--------------------------------------------------------------

             Standard Nuclear Orientation (Angstroms)
    I     Atom           X                Y                Z
 ----------------------------------------------------------------
    1      C       6.6665082762     4.7699241189     0.0186914088
    2      C       5.9296461372     5.9322047536    -0.1321989956
    3      N       6.1145463980     3.5150537629     0.1686896578
    4      C       4.6016591469     5.7920277289    -0.3278158544
    5      C       4.7882830897     3.4091658816     0.1262468293
    6      C       3.9704870698     4.5237078347    -0.2133542669
    7      C       2.5635527887     4.4074015341    -0.3832123640
    8      C       1.8516968496     3.6097571462     0.5322140680
    9      C       1.7561203664     4.9440658445    -1.5133974380
   10      N       0.5058497267     3.3309111942     0.3678533165
   11      N       2.3283783966     5.6275358921    -2.5414633118
   12      C       0.3905507561     4.6941552224    -1.6242907211
   13      C      -0.2373137459     3.8505294521    -0.6391208237
   14      S       1.0416452467     5.9694817803    -3.5167272815
   15      N      -0.1975164433     5.2524079343    -2.7007092636
   16      C      -1.6546616813     3.4633298743    -0.7436307137
   17      S      -2.8919064600     4.1402889433    -1.8484441714
   18      C      -2.2690126209     2.4354737955    -0.0742923805
   19      C      -4.1628101589     3.0832031941    -1.2762505791
   20      S      -1.5558036773     1.2036800457     0.9576175771
   21      C      -3.5988368835     2.1445987345    -0.4100082267
   22      C      -5.5035456775     3.0741044325    -1.6690195719
   23      C      -3.0864225288     0.3963647065     0.9906156745
   24      C      -4.0835044907     0.9612953762     0.2434437400
   25      N      -5.6596040191     3.5650023096    -2.8553138307
   26      S      -6.8902108329     3.0130303853    -0.5793156179
   27      C      -6.9345513928     4.0001878435    -2.9572144945
   28      C      -7.7106119797     3.8954484302    -1.8068360260
   29      C       8.1454142209     4.7587638395     0.1148925263
   30      H       6.3653444809     6.9022149969    -0.3512950503
   31      H       3.9590889169     6.6645146601    -0.4055786629
   32      H       4.4752232647     2.3701860275     0.2180205116
   33      H       2.3755066563     3.0516047176     1.3073238363
   34      H      -3.1070844861    -0.6240323230     1.3491892173
   35      H      -5.1018169260     0.6127400078     0.1169726394
   36      H      -7.2713473294     4.5250650530    -3.8399559131
   37      H      -8.7418519278     4.1913136913    -1.6546982041
   38      H       8.5330663419     3.7332971044     0.1186084759
   39      C       8.7368895884     5.6291390923     1.2554322271
   40      H       8.6073308033     5.0925391214    -0.8225514091
   41      H       8.4031564286     6.6732591885     1.2941285133
   42      H       9.7644647365     5.8324494823     0.9247916363
   43      C       8.6433366234     4.9185801399     2.6562683410
   44      H       8.7829511058     5.7380079743     3.3724071687
   45      C       9.8168721357     3.9501396912     2.8903954404
   46      H       7.6530249862     4.4901546491     2.8493057988
   47      H      10.7520119689     4.4800207098     2.6682229883
   48      H       9.6812930471     3.0796158860     2.2370811092
   49      C       9.7664575919     3.5137585767     4.3664617995
   50      H       9.9031933225     4.3407179286     5.0746013128
   51      C      10.9254163764     2.4607180870     4.7529514667
   52      H       8.8122348580     3.0512969817     4.6448522577
   53      H      11.1159431606     1.6703755599     4.0166436272
   54      H      10.6746058361     1.8896226275     5.6555045394
   55      H      11.8400716645     3.0210748123     4.9838801233
   56      C      -6.1342994912    -2.5116105610     2.1951707233
   57      C      -5.1516250777    -2.4291997557     3.1986070472
   58      N      -5.7637651271    -2.7844127654     0.9028985993
   59      C      -3.8203218715    -2.8525192459     2.9032405249
   60      C      -4.4804490026    -3.1329915957     0.6116641173
   61      C      -3.4883252471    -3.2184325461     1.6036768681
   62      C      -2.1353699326    -3.8371204502     1.3714717982
   63      C      -2.0047447299    -5.0503207146     0.6753775698
   64      C      -0.9243424807    -3.1744201100     1.6892354994
   65      N      -0.8115672697    -5.5708558514     0.3496894983
   66      N      -0.8515870854    -2.0317363482     2.3957583038
   67      C       0.2524036857    -3.6558926116     1.2214730703
   68      C       0.3002341890    -4.8681991923     0.5713923082
   69      S       0.7319729378    -1.7109107099     2.4704681602
   70      N       1.2986671144    -2.9609690108     1.5586140300
   71      C       1.4514241213    -5.3334319346    -0.1689084653
   72      S       2.9305641833    -4.4763506982    -0.5143074104
   73      C       1.5690205701    -6.6009001579    -0.7636456999
   74      C       3.6308397574    -5.7616597552    -1.4082899316
   75      S       0.4824084239    -8.0186656555    -0.7991286192
   76      C       2.7733681618    -6.8002665358    -1.4572737887
   77      C       4.9162368126    -5.7536670570    -2.0266106633
   78      C       1.6666803599    -8.8761719473    -1.7651549858
   79      C       2.7949486356    -8.1093103043    -2.0125977440
   80      N       5.4973134552    -6.7835875472    -2.5483603345
   81      S       5.8050569248    -4.1709275830    -2.0188928016
   82      C       6.7364931469    -6.3810933902    -2.9948859722
   83      C       7.1241490240    -5.0478171040    -2.7817891260
   84      C      -7.5251556469    -2.0661719264     2.3697805080
   85      H      -5.4496639902    -2.1801343775     4.2127964989
   86      H      -3.0298229772    -2.8629223406     3.6455539855
   87      H      -4.0930249627    -3.3344515023    -0.3862459584
   88      H      -2.8816998950    -5.6273325611     0.3909483741
   89      H       1.4375999348    -9.8654065743    -2.1380584740
   90      H       3.6386628185    -8.4716826172    -2.5877791801
   91      H       7.3719134576    -7.1572779459    -3.3986786965
   92      H       7.9830883300    -4.4848764459    -3.1226777940
   93      H      -8.1932193210    -2.6404625428     1.7162132083
   94      C      -7.6893732242    -0.5541177839     2.0098501573
   95      H      -7.8201711463    -2.2020555344     3.4172285975
   96      H      -7.0415537615    -0.2216617177     1.1901533183
   97      H      -7.5218456238     0.0413287372     2.9157209779
   98      C      -9.1473642043    -0.2697416818     1.5250558353
   99      H      -9.3743767560    -1.0186119308     0.7560378566
  100      C      -9.2907568972     1.1676205548     1.1091840565
  101      H      -9.8370280458    -0.4874234226     2.3504887190
  102      H      -8.9629991933     1.2267519137     0.0645715111
  103      H      -8.6193259305     1.7750020097     1.7294398305
  104      C     -10.6895211057     1.7218274991     1.3300422737
  105      H     -11.0666731761     1.3171633343     2.2776224705
  106      C     -11.6392203973     1.3582432063     0.1737690717
  107      H     -10.6343567185     2.8157292222     1.3925395590
  108      H     -12.5112374821     2.0151563236     0.0596184685
  109      H     -11.9405538397     0.3063926198     0.2582054387
  110      H     -11.0540506718     1.4771839994    -0.7459039572
 ----------------------------------------------------------------

    9   -5663.5287323814      9.06E-06 Convergence criterion met
 Total energy in the final basis set = -5663.5287323814

                    Orbital Energies (a.u.)
 --------------------------------------------------------------

 Alpha MOs
 -- Occupied --
-88.991 -88.983 -88.928 -88.926 -88.919 -88.916 -88.907 -88.901
-14.388 -14.386 -14.386 -14.386 -14.348 -14.348 -14.345 -14.339
-14.335 -14.328 -10.270 -10.263 -10.259 -10.258 -10.256 -10.253
-10.253 -10.246 -10.241 -10.240 -10.237 -10.234 -10.234 -10.234
-10.233 -10.233 -10.233 -10.229 -10.229 -10.228 -10.227 -10.227
-10.226 -10.223 -10.221 -10.221 -10.219 -10.213 -10.212 -10.210
-10.210 -10.206 -10.205 -10.202 -10.198 -10.194 -10.193 -10.192
-10.189 -10.188 -10.184 -10.181 -10.181 -10.179 -10.178 -10.178
-10.177 -10.177 -10.175 -10.171  -8.047  -8.038  -7.989  -7.986
 -7.980  -7.975  -7.967  -7.961  -6.012  -6.006  -6.004  -6.003
 -5.998  -5.996  -5.953  -5.950  -5.949  -5.946  -5.946  -5.944
 -5.943  -5.941  -5.939  -5.937  -5.935  -5.931  -5.931  -5.927
 -5.926  -5.923  -5.922  -5.918  -1.055  -1.032  -0.984  -0.975
 -0.968  -0.941  -0.937  -0.934  -0.920  -0.914  -0.906  -0.901
 -0.847  -0.839  -0.839  -0.831  -0.817  -0.815  -0.812  -0.808
 -0.804  -0.799  -0.799  -0.796  -0.791  -0.785  -0.769  -0.765
 -0.751  -0.742  -0.739  -0.732  -0.723  -0.715  -0.713  -0.707
 -0.695  -0.687  -0.679  -0.668  -0.659  -0.653  -0.652  -0.644
 -0.640  -0.633  -0.633  -0.621  -0.612  -0.611  -0.600  -0.600
 -0.594  -0.590  -0.585  -0.582  -0.581  -0.572  -0.571  -0.568
 -0.555  -0.543  -0.540  -0.537  -0.524  -0.521  -0.517  -0.514
 -0.509  -0.506  -0.501  -0.499  -0.494  -0.488  -0.487  -0.478
 -0.474  -0.473  -0.469  -0.468  -0.467  -0.464  -0.452  -0.449
 -0.449  -0.444  -0.443  -0.440  -0.437  -0.436  -0.432  -0.431
 -0.429  -0.423  -0.421  -0.420  -0.419  -0.417  -0.415  -0.414
 -0.407  -0.406  -0.405  -0.403  -0.401  -0.400  -0.400  -0.394
 -0.393  -0.390  -0.389  -0.386  -0.385  -0.381  -0.380  -0.379
 -0.378  -0.376  -0.375  -0.369  -0.369  -0.362  -0.360  -0.355
 -0.351  -0.350  -0.349  -0.348  -0.346  -0.344  -0.343  -0.339
 -0.339  -0.338  -0.337  -0.333  -0.329  -0.329  -0.324  -0.324
 -0.320  -0.318  -0.316  -0.314  -0.311  -0.306  -0.301  -0.298
 -0.295  -0.294  -0.294  -0.291  -0.291  -0.289  -0.286  -0.282
 -0.274  -0.272  -0.265  -0.259  -0.254  -0.253  -0.250  -0.246
 -0.245  -0.240  -0.234  -0.227  -0.194  -0.188

          Ground-State Mulliken Net Atomic Charges

     Atom                 Charge (a.u.)
  ----------------------------------------
      1 C                     0.274563
      2 C                    -0.098974
      3 N                    -0.478607
      4 C                    -0.049231
      5 C                     0.079560
      6 C                     0.016627
      7 C                     0.022866
      8 C                     0.051448
      9 C                     0.212825
     10 N                    -0.546066
     11 N                    -0.542895
     12 C                     0.222152
     13 C                     0.321573
     14 S                     0.591235
     15 N                    -0.561421
     16 C                    -0.227906
     17 S                     0.350546
     18 C                    -0.120231
     19 C                    -0.218491
     20 S                     0.279960
     21 C                     0.128688
     22 C                     0.029730
     23 C                    -0.322728
     24 C                    -0.063951
     25 N                    -0.398177
     26 S                     0.295162
     27 C                     0.114840
     28 C                    -0.315228
     29 C                    -0.240734
     30 H                     0.097685
     31 H                     0.101267
     32 H                     0.107970
     33 H                     0.116866
     34 H                     0.140507
     35 H                     0.106182
     36 H                     0.110869
     37 H                     0.136377
     38 H                     0.120305
     39 C                    -0.195504
     40 H                     0.099318
     41 H                     0.089251
     42 H                     0.088637
     43 C                    -0.171991
     44 H                     0.086764
     45 C                    -0.158227
     46 H                     0.106317
     47 H                     0.094367
     48 H                     0.103159
     49 C                    -0.181317
     50 H                     0.094741
     51 C                    -0.333639
     52 H                     0.097687
     53 H                     0.102221
     54 H                     0.097006
     55 H                     0.102390
     56 C                     0.265315
     57 C                    -0.114666
     58 N                    -0.497573
     59 C                    -0.065955
     60 C                     0.086824
     61 C                     0.019862
     62 C                    -0.011830
     63 C                     0.062761
     64 C                     0.245178
     65 N                    -0.517136
     66 N                    -0.561515
     67 C                     0.228837
     68 C                     0.324932
     69 S                     0.610293
     70 N                    -0.566329
     71 C                    -0.230424
     72 S                     0.337632
     73 C                    -0.131807
     74 C                    -0.239197
     75 S                     0.279927
     76 C                     0.180981
     77 C                     0.097323
     78 C                    -0.312460
     79 C                    -0.062080
     80 N                    -0.437923
     81 S                     0.242526
     82 C                     0.114001
     83 C                    -0.302967
     84 C                    -0.222351
     85 H                     0.090316
     86 H                     0.113879
     87 H                     0.110527
     88 H                     0.120781
     89 H                     0.133457
     90 H                     0.121434
     91 H                     0.109030
     92 H                     0.140935
     93 H                     0.119118
     94 C                    -0.184747
     95 H                     0.097875
     96 H                     0.121904
     97 H                     0.098652
     98 C                    -0.181391
     99 H                     0.102646
    100 C                    -0.183094
    101 H                     0.086956
    102 H                     0.106603
    103 H                     0.096441
    104 C                    -0.182799
    105 H                     0.095058
    106 C                    -0.317194
    107 H                     0.086368
    108 H                     0.101289
    109 H                     0.108462
    110 H                     0.098976
  ----------------------------------------
  Sum of atomic charges =     0.000000

                    Cartesian Multipole Moments
 -----------------------------------------------------------------
    Charge (ESU x 10^10)
                 0.0000
    Dipole Moment (Debye)
         X      -0.3665      Y       1.7919      Z       1.4853
       Tot       2.3561
    Quadrupole Moments (Debye-Ang)
        XX    -394.1402     XY       2.4856     YY    -428.6408
        XZ     -18.3660     YZ      -0.6080     ZZ    -438.0987

 Total job time:  84.65s(wall), 1010.17s(cpu)
        *  Thank you very much for using Q-Chem.  Have a nice day.  *
