 Q-Chem 4.4, Q-Chem, Inc., Pleasanton, CA (2016)
 Q-Chem 4.4.2 for Intel X86 Linux

User input:
--------------------------------------------------------------
$comment
SP
$end

$rem
MEM_STATIC 5000
MEM_TOTAL 20000
JOBTYPE SP
EXCHANGE B3LYP
BASIS 6-31g(d,p)
$end

$molecule
0 1
C          10.230000     23.031000      2.655000
C          11.228000     23.503000      3.530000
N           9.172000     22.341000      3.059000
C          11.269000     23.032000      4.861000
C           9.116000     21.984000      4.372000
C          10.116000     22.285000      5.302000
C           9.930000     21.922000      6.780000
C          10.647000     22.581000      7.799000
C           9.126000     20.841000      7.247000
N          10.545000     22.195000      9.090000
N           8.507000     19.978000      6.394000
C           8.953000     20.552000      8.608000
C           9.716000     21.209000      9.479000
S           7.613000     19.008000      7.273000
N           8.060000     19.576000      8.852000
C           9.503000     21.146000     10.939000
S           8.035000     20.408000     11.710000
C          10.475000     21.500000     11.877000
C           8.654000     20.828000     13.330000
S          12.123000     22.096000     11.790000
C           9.960000     21.354000     13.196000
C           7.907000     20.746000     14.580000
C          12.049000     22.251000     13.566000
C          10.917000     21.716000     14.125000
N           8.518000     21.065000     15.684000
S           6.212000     20.499000     14.604000
C           7.610000     21.004000     16.728000
C           6.328000     20.832000     16.299000
C          10.252000     23.642000      1.252000
H          11.925000     24.252000      3.165000
H          12.090000     23.323000      5.509000
H           8.163000     21.536000      4.650000
H          11.147000     23.504000      7.509000
H          12.988000     22.458000     14.062000
H          10.777000     21.515000     15.182000
H           7.970000     21.273000     17.712000
H           5.406000     20.859000     16.864000
H          10.639000     24.667000      1.306000
C           8.854000     23.752000      0.522000
H          10.987000     23.149000      0.603000
H           8.182000     24.362000      1.140000
H           8.417000     22.751000      0.415000
C           9.093000     24.413000     -0.892000
H           9.408000     25.446000     -0.696000
C           7.871000     24.546000     -1.773000
H           9.972000     23.957000     -1.365000
H           7.402000     25.533000     -1.683000
H           7.191000     23.770000     -1.401000
C           8.119000     24.448000     -3.270000
H           8.519000     25.395000     -3.651000
C           6.782000     24.166000     -4.019000
H           8.851000     23.697000     -3.591000
H           7.014000     23.962000     -5.073000
H           6.123000     25.042000     -3.970000
H           6.264000     23.283000     -3.625000
C           7.501000     20.103000     -3.327000
C           8.021000     20.633000     -2.132000
N           6.509000     19.157000     -3.275000
C           7.357000     20.350000     -0.900000
C           5.914000     18.845000     -2.091000
C           6.289000     19.460000     -0.884000
C           5.498000     19.334000      0.391000
C           4.098000     19.450000      0.388000
C           6.082000     18.940000      1.620000
N           3.353000     19.229000      1.482000
N           7.407000     18.828000      1.825000
C           5.291000     18.588000      2.662000
C           3.927000     18.758000      2.590000
S           7.532000     18.356000      3.367000
N           5.931000     18.227000      3.735000
C           2.999000     18.187000      3.540000
S           3.339000     17.099000      4.860000
C           1.613000     18.417000      3.551000
C           1.704000     16.975000      5.363000
S           0.555000     19.439000      2.537000
C           0.923000     17.719000      4.555000
C           1.217000     16.200000      6.457000
C          -0.825000     18.907000      3.477000
C          -0.464000     18.025000      4.484000
N           0.014000     16.250000      6.927000
S           2.417000     15.105000      7.267000
C          -0.048000     15.395000      8.005000
C           1.120000     14.715000      8.388000
C           8.122000     20.291000     -4.647000
H           8.829000     21.357000     -2.181000
H           7.676000     20.769000      0.048000
H           5.144000     18.087000     -1.953000
H           3.565000     19.748000     -0.512000
H          -1.819000     19.229000      3.197000
H          -1.180000     17.593000      5.173000
H          -0.983000     15.381000      8.548000
H           1.292000     13.935000      9.118000
H           7.360000     20.250000     -5.435000
C           9.177000     19.177000     -4.945000
H           8.633000     21.261000     -4.672000
H           8.915000     18.197000     -4.529000
H          10.155000     19.515000     -4.581000
C           9.303000     18.951000     -6.486000
H           8.283000     18.822000     -6.869000
C          10.263000     17.831000     -6.775000
H           9.667000     19.879000     -6.945000
H           9.687000     16.900000     -6.715000
H          11.033000     17.826000     -5.993000
C          11.000000     17.995000     -8.095000
H          11.244000     19.058000     -8.215000
C          10.160000     17.498000     -9.286000
H          11.925000     17.406000     -8.063000
H          10.733000     17.223000    -10.181000
H           9.380000     18.233000     -9.522000
H           9.674000     16.575000     -8.948000
$end

--------------------------------------------------------------

             Standard Nuclear Orientation (Angstroms)
    I     Atom           X                Y                Z
 ----------------------------------------------------------------
    1      C       1.7898271671    -4.4176917745     1.0478207206
    2      C       0.8826808346    -5.4911701367     0.9522030586
    3      N       1.4263566839    -3.1452076008     0.9620697120
    4      C      -0.4342814144    -5.2539257524     0.5000874354
    5      C       0.1258131576    -2.8802294342     0.6572302337
    6      C      -0.8312593915    -3.8695993168     0.4109369713
    7      C      -2.2940910678    -3.4834701379     0.1621866061
    8      C      -3.3454440978    -4.4000525614     0.3653231789
    9      C      -2.7136650692    -2.2376067083    -0.3899437880
   10      N      -4.6222795349    -4.0814639071     0.0582832211
   11      N      -1.8239860295    -1.3007651826    -0.8216128303
   12      C      -4.0620092253    -1.9028186450    -0.5787717233
   13      C      -4.9662546133    -2.8630106123    -0.3975793833
   14      S      -2.6569183126    -0.0184919169    -1.2396751269
   15      N      -4.2601732203    -0.6380882788    -0.9919897431
   16      C      -6.4194998364    -2.6015771292    -0.3717171425
   17      S      -7.1406486957    -0.9374331784    -0.3033195270
   18      C      -7.3856173017    -3.5924211504    -0.5582356910
   19      C      -8.7837017441    -1.6325705349    -0.2698272012
   20      S      -7.3471983167    -5.3221458694    -0.8502380508
   21      C      -8.6898350878    -3.0317639615    -0.4534431203
   22      C     -10.0165220261    -0.9037020760     0.0061038077
   23      C      -9.1253221599    -5.2791519997    -0.7084490339
   24      C      -9.6469150102    -4.0137730445    -0.6254610935
   25      N     -11.1407443765    -1.5581253291    -0.0357568267
   26      S     -10.0014630192     0.6932232325     0.6259528099
   27      C     -12.1653030712    -0.7058889776     0.3411963299
   28      C     -11.7074764701     0.4808220151     0.8303392775
   29      C       3.1734095809    -4.7808644789     1.5918972694
   30      H       1.2121771602    -6.4774157750     1.2665065939
   31      H      -1.1058819951    -6.0913617611     0.3379776225
   32      H      -0.1208847436    -1.8220760739     0.7323874800
   33      H      -3.0923824628    -5.2982168156     0.9268298854
   34      H      -9.6447298111    -6.1826085954    -0.9992545899
   35      H     -10.6946766870    -3.7603947620    -0.7489313924
   36      H     -13.1634189982    -1.1210482652     0.3814997070
   37      H     -12.2556812010     1.2871295853     1.2987169832
   38      H       3.0817685616    -5.6202818458     2.2921046727
   39      C       3.9258477895    -3.6413086699     2.3885485735
   40      H       3.8228974321    -5.1977624872     0.8116174594
   41      H       3.3026882731    -3.3377535891     3.2400968869
   42      H       4.0706789624    -2.7718400944     1.7347387177
   43      C       5.3148791620    -4.2182143529     2.8693912493
   44      H       5.0824350651    -4.9945404183     3.6096733455
   45      C       6.2142488067    -3.2477621281     3.6018465187
   46      H       5.7846828528    -4.7731592233     2.0474261144
   47      H       6.1037724339    -3.3226544708     4.6901553480
   48      H       5.8782404366    -2.2628033772     3.2555595940
   49      C       7.7085968535    -3.4615612004     3.4192790744
   50      H       8.0537606420    -4.2873491109     4.0524506831
   51      C       8.4905213976    -2.1827599984     3.8451376109
   52      H       8.0380033928    -3.7387509016     2.4105555239
   53      H       9.5455890042    -2.3167854222     3.5708648790
   54      H       8.4278701221    -2.0389983316     4.9311695629
   55      H       8.1326728954    -1.2854055310     3.3255720143
   56      C       7.9061348159    -0.7875059003    -0.0555741607
   57      C       6.6864059654    -1.4637799609     0.1294661759
   58      N       7.9008138995     0.5426567002    -0.3907206121
   59      C       5.4759898968    -0.7087655756     0.1899245840
   60      C       6.7379384668     1.2504289899    -0.3886922677
   61      C       5.5064058761     0.6588463092    -0.0584553682
   62      C       4.2507305974     1.4484193260     0.2004578329
   63      C       4.2764758973     2.6092314042     0.9912280262
   64      C       3.0232607124     1.1722144141    -0.4505118500
   65      N       3.2036492824     3.3999400070     1.1478324954
   66      N       2.7969241866     0.0809263776    -1.2042068802
   67      C       2.0071522837     2.0658002280    -0.3843525398
   68      C       2.0995782224     3.1665868319     0.4368090147
   69      S       1.2675501193     0.2521048011    -1.7020883012
   70      N       0.9335588136     1.7198152061    -1.0316093866
   71      C       1.1844786718     4.2842873813     0.3814619800
   72      S      -0.1087641695     4.5646883014    -0.7546024008
   73      C       1.1925858014     5.3772531889     1.2642853020
   74      C      -0.5771846986     6.0636902792    -0.0652655613
   75      S       2.1954092563     5.7634418869     2.6916070624
   76      C       0.2228378495     6.3520610472     0.9802808139
   77      C      -1.6383886873     6.9025629156    -0.5177794225
   78      C       1.2976016449     7.2548777318     2.8930632945
   79      C       0.3106565892     7.4059631456     1.9310827049
   80      N      -2.0870778613     7.9390837590     0.1106404739
   81      S      -2.4378268513     6.4224536393    -2.0751871099
   82      C      -3.1378673157     8.4470832906    -0.6206125592
   83      C      -3.5222919988     7.7773964302    -1.7940903699
   84      C       9.2081218610    -1.4610811735    -0.1760361293
   85      H       6.6987626381    -2.5245258378     0.3620742094
   86      H       4.5101650388    -1.1631824151     0.3815327246
   87      H       6.6369352333     2.2975971540    -0.6710841638
   88      H       5.1770447534     2.8984762473     1.5280763810
   89      H       1.5864642678     7.9525402109     3.6676247512
   90      H      -0.3516970419     8.2627574539     1.8965547357
   91      H      -3.6626250234     9.2841967959    -0.1811352248
   92      H      -4.2319004207     8.0341552806    -2.5695997382
   93      H      10.0111094392    -0.8023258357     0.1768397045
   94      C       9.5192780058    -1.8399360031    -1.6601102082
   95      H       9.1947454236    -2.3837537356     0.4165365786
   96      H       9.1375338859    -1.1168859898    -2.3905690401
   97      H       9.1271697828    -2.8458666260    -1.8539625316
   98      C      11.0636819104    -1.8859675532    -1.8931996238
   99      H      11.4693585586    -0.9469328171    -1.4965004662
  100      C      11.3677990252    -2.1789424527    -3.3358359220
  101      H      11.4880352916    -2.6734966144    -1.2575242463
  102      H      11.3462550668    -1.2178305144    -3.8630329439
  103      H      10.5720239145    -2.8222066900    -3.7325752499
  104      C      12.6683285310    -2.9416264052    -3.5343332599
  105      H      12.7521273012    -3.6807123769    -2.7277139616
  106      C      13.8890666202    -2.0030706532    -3.5330612356
  107      H      12.6365317497    -3.4555342853    -4.5030735014
  108      H      14.7809608170    -2.3939101723    -4.0397645137
  109      H      14.1176900353    -1.6934626071    -2.5053476608
  110      H      13.5877726387    -1.1156027780    -4.1022639300
 ----------------------------------------------------------------

   11   -5663.5280805752      8.43E-06 Convergence criterion met
 Total energy in the final basis set = -5663.5280805752

                    Orbital Energies (a.u.)
 --------------------------------------------------------------

 Alpha MOs
 -- Occupied --
-88.991 -88.987 -88.927 -88.925 -88.924 -88.919 -88.911 -88.905
-14.389 -14.388 -14.382 -14.381 -14.350 -14.347 -14.344 -14.340
-14.335 -14.327 -10.270 -10.265 -10.259 -10.254 -10.254 -10.248
-10.248 -10.243 -10.242 -10.241 -10.240 -10.239 -10.235 -10.234
-10.233 -10.233 -10.232 -10.230 -10.229 -10.229 -10.228 -10.228
-10.227 -10.227 -10.227 -10.225 -10.224 -10.220 -10.219 -10.219
-10.206 -10.205 -10.204 -10.204 -10.201 -10.198 -10.192 -10.190
-10.187 -10.184 -10.182 -10.181 -10.178 -10.178 -10.174 -10.173
-10.172 -10.170 -10.170 -10.169  -8.046  -8.042  -7.989  -7.985
 -7.983  -7.980  -7.970  -7.964  -6.011  -6.007  -6.005  -6.004
 -6.002  -6.000  -5.953  -5.950  -5.949  -5.947  -5.946  -5.945
 -5.944  -5.943  -5.942  -5.941  -5.939  -5.937  -5.935  -5.931
 -5.929  -5.926  -5.925  -5.921  -1.051  -1.035  -0.977  -0.974
 -0.964  -0.962  -0.944  -0.926  -0.917  -0.911  -0.906  -0.900
 -0.845  -0.838  -0.833  -0.832  -0.814  -0.811  -0.807  -0.807
 -0.804  -0.803  -0.796  -0.794  -0.786  -0.784  -0.767  -0.765
 -0.749  -0.745  -0.742  -0.737  -0.721  -0.720  -0.709  -0.708
 -0.694  -0.691  -0.678  -0.675  -0.659  -0.653  -0.647  -0.643
 -0.639  -0.639  -0.627  -0.627  -0.610  -0.607  -0.597  -0.596
 -0.594  -0.592  -0.583  -0.582  -0.575  -0.574  -0.571  -0.564
 -0.552  -0.551  -0.539  -0.538  -0.526  -0.521  -0.515  -0.512
 -0.511  -0.502  -0.499  -0.498  -0.493  -0.483  -0.483  -0.476
 -0.474  -0.473  -0.470  -0.468  -0.467  -0.460  -0.449  -0.446
 -0.446  -0.445  -0.439  -0.436  -0.435  -0.434  -0.433  -0.430
 -0.427  -0.426  -0.423  -0.420  -0.420  -0.416  -0.414  -0.411
 -0.410  -0.410  -0.407  -0.403  -0.400  -0.399  -0.398  -0.397
 -0.394  -0.393  -0.392  -0.389  -0.388  -0.386  -0.380  -0.378
 -0.377  -0.375  -0.370  -0.368  -0.368  -0.363  -0.355  -0.355
 -0.352  -0.350  -0.348  -0.348  -0.347  -0.344  -0.343  -0.338
 -0.337  -0.336  -0.335  -0.334  -0.332  -0.330  -0.325  -0.321
 -0.314  -0.313  -0.313  -0.310  -0.306  -0.306  -0.302  -0.300
 -0.298  -0.297  -0.294  -0.291  -0.289  -0.288  -0.285  -0.275
 -0.274  -0.270  -0.270  -0.259  -0.257  -0.252  -0.249  -0.247
 -0.247  -0.243  -0.233  -0.230  -0.192  -0.190

          Ground-State Mulliken Net Atomic Charges

     Atom                 Charge (a.u.)
  ----------------------------------------
      1 C                     0.292938
      2 C                    -0.121778
      3 N                    -0.490585
      4 C                    -0.085604
      5 C                     0.078022
      6 C                     0.043374
      7 C                     0.045270
      8 C                     0.058609
      9 C                     0.184547
     10 N                    -0.515198
     11 N                    -0.539231
     12 C                     0.270238
     13 C                     0.285277
     14 S                     0.610078
     15 N                    -0.610081
     16 C                    -0.215384
     17 S                     0.316685
     18 C                    -0.109663
     19 C                    -0.236623
     20 S                     0.273221
     21 C                     0.149546
     22 C                     0.092838
     23 C                    -0.315551
     24 C                    -0.047197
     25 N                    -0.444174
     26 S                     0.276876
     27 C                     0.126445
     28 C                    -0.313874
     29 C                    -0.254466
     30 H                     0.095216
     31 H                     0.107433
     32 H                     0.122897
     33 H                     0.113924
     34 H                     0.125326
     35 H                     0.129495
     36 H                     0.115766
     37 H                     0.130841
     38 H                     0.108378
     39 C                    -0.186164
     40 H                     0.113459
     41 H                     0.105208
     42 H                     0.118559
     43 C                    -0.185084
     44 H                     0.089174
     45 C                    -0.171103
     46 H                     0.086470
     47 H                     0.096427
     48 H                     0.099847
     49 C                    -0.188962
     50 H                     0.093888
     51 C                    -0.319571
     52 H                     0.087484
     53 H                     0.094707
     54 H                     0.101450
     55 H                     0.113034
     56 C                     0.268093
     57 C                    -0.125852
     58 N                    -0.498514
     59 C                    -0.077656
     60 C                     0.085216
     61 C                     0.043803
     62 C                    -0.022848
     63 C                     0.060715
     64 C                     0.241831
     65 N                    -0.515014
     66 N                    -0.540427
     67 C                     0.225661
     68 C                     0.323110
     69 S                     0.611287
     70 N                    -0.582956
     71 C                    -0.228328
     72 S                     0.328383
     73 C                    -0.131419
     74 C                    -0.242021
     75 S                     0.280053
     76 C                     0.179648
     77 C                     0.096980
     78 C                    -0.311485
     79 C                    -0.063460
     80 N                    -0.438275
     81 S                     0.236335
     82 C                     0.114741
     83 C                    -0.304311
     84 C                    -0.229457
     85 H                     0.092013
     86 H                     0.133259
     87 H                     0.103968
     88 H                     0.119638
     89 H                     0.132863
     90 H                     0.120578
     91 H                     0.108260
     92 H                     0.139353
     93 H                     0.117635
     94 C                    -0.174941
     95 H                     0.100029
     96 H                     0.116454
     97 H                     0.093759
     98 C                    -0.178433
     99 H                     0.100693
    100 C                    -0.173429
    101 H                     0.084746
    102 H                     0.096443
    103 H                     0.089660
    104 C                    -0.179050
    105 H                     0.091649
    106 C                    -0.316392
    107 H                     0.088421
    108 H                     0.099733
    109 H                     0.105620
    110 H                     0.100981
  ----------------------------------------
  Sum of atomic charges =     0.000000

                    Cartesian Multipole Moments
 -----------------------------------------------------------------
    Charge (ESU x 10^10)
                 0.0000
    Dipole Moment (Debye)
         X      -2.6884      Y      -1.9043      Z      -0.0559
       Tot       3.2950
    Quadrupole Moments (Debye-Ang)
        XX    -420.9829     XY     -34.1484     YY    -412.0647
        XZ       3.3730     YZ      -5.3690     ZZ    -443.2998

 Total job time:  102.72s(wall), 1214.64s(cpu)
        *  Thank you very much for using Q-Chem.  Have a nice day.  *
