 Q-Chem 4.4, Q-Chem, Inc., Pleasanton, CA (2016)
 Q-Chem 4.4.2 for Intel X86 Linux

User input:
--------------------------------------------------------------
$comment
SP
$end

$rem
MEM_STATIC 5000
MEM_TOTAL 20000
JOBTYPE SP
EXCHANGE B3LYP
BASIS 6-31g(d,p)
$end

$molecule
0 1
C           5.424000    -10.508000      7.455000
C           6.620000    -10.170000      8.104000
N           5.389000    -10.714000      6.116000
C           7.788000    -10.117000      7.344000
C           6.587000    -10.580000      5.364000
C           7.861000    -10.315000      5.952000
C           9.147000    -10.008000      5.207000
C           9.880000     -8.895000      5.532000
C           9.587000    -10.834000      4.148000
N          11.042000     -8.611000      4.972000
N           8.973000    -11.904000      3.736000
C          10.732000    -10.442000      3.509000
C          11.512000     -9.325000      3.957000
S           9.896000    -12.398000      2.486000
N          11.092000    -11.285000      2.516000
C          12.761000     -8.843000      3.251000
S          13.601000     -9.696000      1.972000
C          13.382000     -7.641000      3.582000
C          14.500000     -8.129000      1.627000
S          13.163000     -6.419000      4.826000
C          14.311000     -7.295000      2.635000
C          15.445000     -7.879000      0.587000
C          14.411000     -5.464000      4.049000
C          14.929000     -6.044000      2.934000
N          15.160000     -8.290000     -0.576000
S          17.192000     -7.573000      0.865000
C          16.260000     -8.183000     -1.411000
C          17.424000     -7.734000     -0.802000
C           4.070000    -10.654000      8.182000
H           6.597000     -9.996000      9.175000
H           8.724000    -10.000000      7.881000
H           6.408000    -10.703000      4.297000
H           9.581000     -8.167000      6.286000
H          14.643000     -4.495000      4.470000
H          15.599000     -5.507000      2.270000
H          16.070000     -8.253000     -2.474000
H          18.367000     -7.482000     -1.268000
H           3.356000     -9.866000      7.912000
C           4.071000    -10.564000      9.724000
H           3.623000    -11.598000      7.847000
H           4.739000     -9.741000     10.007000
H           4.483000    -11.508000     10.101000
C           2.695000    -10.196000     10.368000
H           2.877000     -9.862000     11.398000
C           1.596000    -11.238000     10.227000
H           2.341000     -9.275000      9.889000
H           1.860000    -12.179000     10.724000
H           1.375000    -11.344000      9.158000
C           0.344000    -10.744000     10.950000
H           0.468000    -10.491000     12.010000
C          -0.729000    -11.859000     10.960000
H          -0.160000     -9.908000     10.451000
H          -0.213000    -12.807000     11.161000
H          -1.217000    -11.895000      9.979000
H          -1.554000    -11.628000     11.644000
C          26.902000    -15.223000     -1.584000
C          25.834000    -15.734000     -2.344000
N          27.320000    -13.938000     -1.633000
C          25.125000    -14.878000     -3.175000
C          26.516000    -13.115000     -2.365000
C          25.417000    -13.512000     -3.122000
C          24.543000    -12.453000     -3.788000
C          24.273000    -11.220000     -3.098000
C          24.103000    -12.507000     -5.153000
N          23.448000    -10.270000     -3.581000
N          24.397000    -13.498000     -6.060000
C          23.156000    -11.581000     -5.554000
C          22.826000    -10.417000     -4.737000
S          23.481000    -13.027000     -7.386000
N          22.691000    -11.822000     -6.838000
C          21.886000     -9.356000     -5.120000
S          21.177000     -9.004000     -6.681000
C          21.481000     -8.449000     -4.181000
C          20.562000     -7.466000     -6.115000
S          21.870000     -8.142000     -2.508000
C          20.667000     -7.419000     -4.765000
C          19.918000     -6.473000     -6.943000
C          20.805000     -6.707000     -2.556000
C          20.290000     -6.450000     -3.838000
N          18.901000     -5.775000     -6.379000
S          20.101000     -6.275000     -8.675000
C          18.374000     -4.948000     -7.383000
C          18.849000     -5.107000     -8.637000
C          27.690000    -16.217000     -0.792000
H          25.457000    -16.745000     -2.226000
H          24.329000    -15.131000     -3.869000
H          26.889000    -12.120000     -2.605000
H          24.727000    -10.904000     -2.161000
H          20.536000     -6.132000     -1.678000
H          19.795000     -5.507000     -4.043000
H          17.578000     -4.335000     -6.980000
H          18.471000     -4.628000     -9.532000
H          27.147000    -17.160000     -0.651000
C          28.330000    -15.574000      0.499000
H          28.506000    -16.611000     -1.408000
H          27.767000    -14.661000      0.729000
H          29.361000    -15.230000      0.346000
C          28.224000    -16.396000      1.856000
H          28.772000    -17.347000      1.849000
C          26.721000    -16.714000      2.277000
H          28.624000    -15.830000      2.705000
H          26.889000    -17.526000      2.996000
H          26.139000    -17.181000      1.472000
C          25.958000    -15.637000      2.981000
H          26.410000    -15.348000      3.937000
C          24.443000    -15.967000      3.103000
H          26.047000    -14.700000      2.416000
H          24.201000    -15.961000      2.033000
H          23.878000    -15.240000      3.700000
H          24.299000    -16.976000      3.506000
$end

--------------------------------------------------------------

             Standard Nuclear Orientation (Angstroms)
    I     Atom           X                Y                Z
 ----------------------------------------------------------------
    1      C     -13.2446256918     0.8959700397     0.7848249986
    2      C     -12.5960995937     1.4437055405    -0.3310875074
    3      N     -12.5553980033     0.2040968361     1.7244305879
    4      C     -11.2100533746     1.3150984121    -0.4145685538
    5      C     -11.1538067234     0.0322053678     1.5673980834
    6      C     -10.4019689766     0.6197962718     0.5050789544
    7      C      -8.9415920578     0.3569901478     0.1867988948
    8      C      -8.5692772207    -0.0006236824    -1.0840972499
    9      C      -7.9536872652     0.4362218699     1.1943322465
   10      N      -7.3097141288    -0.1728410181    -1.4423457767
   11      N      -8.1823855171     0.7479056123     2.4361818164
   12      C      -6.6745315542     0.1323402781     0.8142971887
   13      C      -6.3273750720    -0.1368206271    -0.5509235935
   14      S      -6.7078851747     0.6282548491     3.1217454057
   15      N      -5.7879620092     0.2385723307     1.8286971063
   16      C      -4.9311290064    -0.5127744484    -0.9980439895
   17      S      -3.4865779839    -0.4203690652    -0.0112392526
   18      C      -4.6631258128    -0.9667431064    -2.2872657492
   19      C      -2.6528676688    -1.4632931620    -1.2761311210
   20      S      -5.5887872357    -1.1432432397    -3.7707682377
   21      C      -3.4017717010    -1.4982842715    -2.3648273012
   22      C      -1.3223023853    -1.9784359991    -1.2394039658
   23      C      -4.1891552448    -1.9019518960    -4.5046956625
   24      C      -3.1229065443    -2.0080831748    -3.6681558486
   25      N      -0.9231977367    -2.4959398791    -0.1551437509
   26      S      -0.0093602594    -1.4582856032    -2.3478062121
   27      C       0.4408940124    -2.7316498283    -0.2038111933
   28      C       1.0755713246    -2.2984814137    -1.3600671485
   29      C     -14.7644379771     1.0103376634     1.0302871427
   30      H     -13.1912445762     1.9739359653    -1.0676363153
   31      H     -10.7074844241     1.8673284351    -1.2023632299
   32      H     -10.7355376807    -0.5976432327     2.3509800820
   33      H      -9.2703538516    -0.1525234312    -1.9046574389
   34      H      -4.2818748411    -2.2598219220    -5.5212379002
   35      H      -2.2433262976    -2.5854354357    -3.9349290792
   36      H       0.8440246174    -3.4005292610     0.5452248671
   37      H       2.1023121444    -2.4607836644    -1.6590157534
   38      H     -15.2826988122     0.0475728943     0.9401222600
   39      C     -15.5811600734     1.8997137031     0.0670424815
   40      H     -14.9009329174     1.3336797433     2.0695123496
   41      H     -15.2215311514     1.7025787496    -0.9505266064
   42      H     -15.3642228962     2.9422287708     0.3299295198
   43      C     -17.1119420435     1.5877437906     0.0130301337
   44      H     -17.5229770370     2.0446744381    -0.8968295354
   45      C     -17.8962281016     1.8894730263     1.2808238265
   46      H     -17.2244485554     0.5174532117    -0.1986733414
   47      H     -17.8680685680     2.9559841580     1.5337013592
   48      H     -17.5136933230     1.2325831405     2.0713937610
   49      C     -19.3723026240     1.5764357739     1.0410725330
   50      H     -19.8426057455     2.0910555460     0.1943338105
   51      C     -20.2088845495     2.0322216814     2.2605166229
   52      H     -19.5954639112     0.5059077347     0.9630869113
   53      H     -19.8109284918     3.0025428687     2.5852761796
   54      H     -20.1038389212     1.2929490751     3.0631637618
   55      H     -21.2841309350     2.0219493632     2.0470179346
   56      C      10.0442461878     5.6554619441     0.3212374812
   57      C       9.5747160017     5.2044711734     1.5684318242
   58      N      10.3343129248     4.8412091167    -0.7185719346
   59      C       9.3510811554     3.8477788392     1.7564514130
   60      C       9.9803885362     3.5385027075    -0.5255368636
   61      C       9.4750241264     2.9977106288     0.6537043080
   62      C       9.0105240665     1.5441781142     0.6736021303
   63      C       8.3323356370     1.0006904299    -0.4726834323
   64      C       9.3595390969     0.5959353595     1.6928004362
   65      N       7.8207179828    -0.2457652285    -0.5044586971
   66      N      10.1552894316     0.8398376399     2.7875419959
   67      C       8.7030624205    -0.6222543821     1.6810476997
   68      C       7.9120374943    -1.0573128107     0.5337514303
   69      S      10.0436016402    -0.6145954601     3.6190004704
   70      N       9.0013682702    -1.3946931181     2.7933938775
   71      C       7.2425704181    -2.3587199163     0.4147414338
   72      S       7.4382900330    -3.8060775646     1.3791872179
   73      C       6.3417908946    -2.5587586883    -0.5937107167
   74      C       6.5115862512    -4.7565517480     0.2382034637
   75      S       5.7697932545    -1.6177037725    -1.9471261537
   76      C       5.8870317342    -3.9213503538    -0.6267267570
   77      C       6.3318692009    -6.1883348868     0.3019829694
   78      C       4.7919488183    -3.0202323814    -2.4691297549
   79      C       5.0119549234    -4.1640910719    -1.6830110553
   80      N       5.1243309085    -6.6693847304    -0.0853557976
   81      S       7.3843313214    -7.3415709906     1.0987809197
   82      C       5.1479942242    -8.0531962870     0.1474093703
   83      C       6.2214496529    -8.5605497854     0.7906106377
   84      C      10.3650171653     7.1124585040     0.2187142919
   85      H       9.2639098307     5.8785983891     2.3603447115
   86      H       9.0592888405     3.3412657301     2.6716359383
   87      H      10.3531108543     2.7990917002    -1.2334234618
   88      H       8.2020168262     1.5013189898    -1.4299342106
   89      H       4.0617732989    -2.9762151058    -3.2683645078
   90      H       4.6342514885    -5.1264882357    -2.0107774575
   91      H       4.2184155168    -8.5012023700    -0.1796502211
   92      H       6.3384158165    -9.5795167380     1.1390001696
   93      H       9.8966594600     7.6982382189     1.0196401220
   94      C      10.1831966053     7.6583354055    -1.2505337105
   95      H      11.4082737338     7.2785149075     0.5095561789
   96      H       9.5211025113     6.9643029726    -1.7828760746
   97      H      11.1134040385     7.6522996185    -1.8331001879
   98      C       9.4369807519     9.0513003231    -1.4271112809
   99      H       9.9716994091     9.9055465677    -0.9922626737
  100      C       7.9639217427     9.0511791961    -0.8209173013
  101      H       9.2896879150     9.3010553720    -2.4840333384
  102      H       7.7848885587    10.1314618441    -0.7469881496
  103      H       7.9268835341     8.6986794173     0.2179330619
  104      C       6.8714606988     8.4679183678    -1.6599939806
  105      H       6.7313412785     8.9989698348    -2.6087362467
  106      C       5.5463796918     8.2876085766    -0.8658543808
  107      H       7.1785338266     7.4768446682    -2.0185940587
  108      H       5.9038000114     7.5431225291    -0.1437108768
  109      H       4.7025309333     7.9529750581    -1.4823790607
  110      H       5.2829646776     9.2121848118    -0.3395490364
 ----------------------------------------------------------------

    9   -5663.5005643364      7.91E-06 Convergence criterion met
 Total energy in the final basis set = -5663.5005643364

                    Orbital Energies (a.u.)
 --------------------------------------------------------------

 Alpha MOs
 -- Occupied --
-88.994 -88.984 -88.936 -88.930 -88.921 -88.919 -88.918 -88.909
-14.394 -14.388 -14.386 -14.380 -14.351 -14.350 -14.342 -14.338
-14.336 -14.327 -10.276 -10.269 -10.263 -10.262 -10.261 -10.255
-10.249 -10.247 -10.247 -10.243 -10.242 -10.240 -10.234 -10.234
-10.234 -10.233 -10.232 -10.232 -10.230 -10.229 -10.229 -10.227
-10.226 -10.226 -10.224 -10.224 -10.222 -10.218 -10.215 -10.213
-10.210 -10.209 -10.205 -10.201 -10.200 -10.197 -10.196 -10.194
-10.189 -10.184 -10.182 -10.181 -10.180 -10.180 -10.179 -10.176
-10.174 -10.173 -10.173 -10.168  -8.051  -8.040  -7.997  -7.990
 -7.981  -7.979  -7.977  -7.968  -6.015  -6.010  -6.009  -6.005
 -6.000  -5.998  -5.961  -5.958  -5.954  -5.954  -5.950  -5.946
 -5.945  -5.944  -5.942  -5.941  -5.940  -5.938  -5.937  -5.936
 -5.933  -5.933  -5.929  -5.925  -1.050  -1.048  -0.978  -0.968
 -0.965  -0.965  -0.940  -0.919  -0.918  -0.915  -0.912  -0.905
 -0.848  -0.843  -0.832  -0.830  -0.819  -0.812  -0.812  -0.808
 -0.805  -0.804  -0.799  -0.793  -0.787  -0.779  -0.769  -0.765
 -0.750  -0.745  -0.740  -0.737  -0.728  -0.726  -0.711  -0.707
 -0.695  -0.692  -0.677  -0.675  -0.656  -0.654  -0.645  -0.641
 -0.638  -0.635  -0.629  -0.622  -0.612  -0.608  -0.598  -0.597
 -0.594  -0.591  -0.588  -0.584  -0.581  -0.577  -0.564  -0.558
 -0.556  -0.544  -0.543  -0.540  -0.525  -0.521  -0.517  -0.515
 -0.509  -0.505  -0.503  -0.497  -0.491  -0.483  -0.479  -0.477
 -0.476  -0.474  -0.469  -0.466  -0.461  -0.460  -0.456  -0.451
 -0.448  -0.445  -0.442  -0.440  -0.437  -0.436  -0.432  -0.430
 -0.428  -0.426  -0.426  -0.420  -0.419  -0.417  -0.416  -0.414
 -0.414  -0.411  -0.410  -0.405  -0.400  -0.398  -0.398  -0.395
 -0.393  -0.392  -0.390  -0.389  -0.387  -0.386  -0.384  -0.382
 -0.376  -0.373  -0.370  -0.369  -0.368  -0.363  -0.358  -0.358
 -0.356  -0.353  -0.352  -0.348  -0.347  -0.347  -0.346  -0.341
 -0.339  -0.338  -0.337  -0.331  -0.330  -0.327  -0.324  -0.323
 -0.320  -0.318  -0.317  -0.309  -0.303  -0.301  -0.298  -0.298
 -0.296  -0.296  -0.294  -0.292  -0.290  -0.288  -0.281  -0.275
 -0.274  -0.269  -0.268  -0.264  -0.263  -0.260  -0.250  -0.249
 -0.247  -0.245  -0.235  -0.235  -0.201  -0.196

          Ground-State Mulliken Net Atomic Charges

     Atom                 Charge (a.u.)
  ----------------------------------------
      1 C                     0.269967
      2 C                    -0.103872
      3 N                    -0.496463
      4 C                    -0.107364
      5 C                     0.065436
      6 C                     0.056147
      7 C                     0.005089
      8 C                     0.061349
      9 C                     0.277958
     10 N                    -0.526609
     11 N                    -0.552673
     12 C                     0.176031
     13 C                     0.329930
     14 S                     0.591659
     15 N                    -0.546308
     16 C                    -0.236572
     17 S                     0.331091
     18 C                    -0.096669
     19 C                    -0.216152
     20 S                     0.277290
     21 C                     0.172119
     22 C                     0.010724
     23 C                    -0.313362
     24 C                    -0.058611
     25 N                    -0.386408
     26 S                     0.255389
     27 C                     0.092025
     28 C                    -0.295211
     29 C                    -0.216425
     30 H                     0.091386
     31 H                     0.095291
     32 H                     0.113486
     33 H                     0.115512
     34 H                     0.130645
     35 H                     0.110194
     36 H                     0.116550
     37 H                     0.144460
     38 H                     0.116736
     39 C                    -0.194838
     40 H                     0.122920
     41 H                     0.090749
     42 H                     0.097263
     43 C                    -0.188115
     44 H                     0.090750
     45 C                    -0.159270
     46 H                     0.091694
     47 H                     0.093770
     48 H                     0.104250
     49 C                    -0.180087
     50 H                     0.095606
     51 C                    -0.321117
     52 H                     0.094042
     53 H                     0.098586
     54 H                     0.100316
     55 H                     0.095925
     56 C                     0.284065
     57 C                    -0.126453
     58 N                    -0.482260
     59 C                    -0.054658
     60 C                     0.054548
     61 C                     0.056811
     62 C                    -0.030701
     63 C                     0.062703
     64 C                     0.243274
     65 N                    -0.527941
     66 N                    -0.564704
     67 C                     0.145308
     68 C                     0.335741
     69 S                     0.616289
     70 N                    -0.503735
     71 C                    -0.222152
     72 S                     0.314970
     73 C                    -0.094760
     74 C                    -0.215722
     75 S                     0.293637
     76 C                     0.152790
     77 C                     0.022620
     78 C                    -0.331016
     79 C                    -0.054356
     80 N                    -0.419367
     81 S                     0.289157
     82 C                     0.119278
     83 C                    -0.305257
     84 C                    -0.239344
     85 H                     0.096066
     86 H                     0.109163
     87 H                     0.103201
     88 H                     0.124437
     89 H                     0.126023
     90 H                     0.126316
     91 H                     0.113506
     92 H                     0.142228
     93 H                     0.102369
     94 C                    -0.173444
     95 H                     0.126108
     96 H                     0.116730
     97 H                     0.100915
     98 C                    -0.201210
     99 H                     0.085888
    100 C                    -0.171236
    101 H                     0.093793
    102 H                     0.089050
    103 H                     0.083754
    104 C                    -0.179954
    105 H                     0.088677
    106 C                    -0.314683
    107 H                     0.095263
    108 H                     0.106777
    109 H                     0.102360
    110 H                     0.102928
  ----------------------------------------
  Sum of atomic charges =     0.000000

                    Cartesian Multipole Moments
 -----------------------------------------------------------------
    Charge (ESU x 10^10)
                 0.0000
    Dipole Moment (Debye)
         X       2.3835      Y      -1.9477      Z      -0.3621
       Tot       3.0993
    Quadrupole Moments (Debye-Ang)
        XX    -441.2122     XY     -28.8103     YY    -405.9571
        XZ      41.6947     YZ       7.0282     ZZ    -432.1406

 Total job time:  79.01s(wall), 923.22s(cpu)
        *  Thank you very much for using Q-Chem.  Have a nice day.  *
