 Q-Chem 4.4, Q-Chem, Inc., Pleasanton, CA (2016)
 Q-Chem 4.4.2 for Intel X86 Linux

User input:
--------------------------------------------------------------
$comment
SP
$end

$rem
MEM_STATIC 5000
MEM_TOTAL 20000
JOBTYPE SP
EXCHANGE B3LYP
BASIS 6-31g(d,p)
$end

$molecule
0 1
C          14.666000     18.901000     15.731000
C          13.320000     19.055000     15.352000
N          15.639000     18.827000     14.780000
C          12.942000     19.038000     14.021000
C          15.276000     18.822000     13.444000
C          13.920000     18.907000     13.024000
C          13.593000     18.993000     11.559000
C          12.387000     18.435000     11.141000
C          14.382000     19.644000     10.615000
N          11.964000     18.495000      9.880000
N          15.558000     20.148000     10.892000
C          13.853000     19.784000      9.309000
C          12.666000     19.147000      8.944000
S          15.975000     20.878000      9.495000
N          14.684000     20.543000      8.517000
C          12.147000     19.163000      7.552000
S          12.737000     20.184000      6.272000
C          11.242000     18.263000      7.102000
C          11.860000     19.263000      5.075000
S          10.487000     16.872000      7.864000
C          11.120000     18.325000      5.716000
C          11.947000     19.465000      3.661000
C           9.978000     16.392000      6.244000
C          10.401000     17.245000      5.195000
N          10.921000     19.069000      2.945000
S          13.048000     20.539000      2.885000
C          10.987000     19.439000      1.666000
C          12.103000     20.225000      1.401000
C          14.963000     18.803000     17.183000
H          12.537000     19.185000     16.094000
H          11.892000     19.132000     13.759000
H          16.147000     18.804000     12.790000
H          11.691000     18.048000     11.884000
H           9.422000     15.477000      6.090000
H          10.187000     17.070000      4.148000
H          10.215000     19.063000      1.008000
H          12.439000     20.615000      0.449000
H          15.960000     19.237000     17.327000
C          15.102000     17.447000     17.774000
H          14.172000     19.351000     17.708000
H          15.892000     16.865000     17.285000
H          14.183000     16.907000     17.514000
C          15.383000     17.508000     19.257000
H          16.388000     17.912000     19.435000
C          15.391000     16.048000     19.847000
H          14.617000     18.102000     19.771000
H          15.734000     16.300000     20.858000
H          16.115000     15.419000     19.313000
C          13.994000     15.425000     19.959000
H          13.383000     16.086000     20.586000
C          14.094000     14.070000     20.610000
H          13.516000     15.360000     18.975000
H          14.469000     13.311000     19.910000
H          13.159000     13.750000     21.084000
H          14.807000     14.142000     21.440000
C          19.441000     26.087000      8.026000
C          18.101000     26.110000      7.759000
N          19.960000     25.889000      9.231000
C          17.212000     25.745000      8.773000
C          19.114000     25.425000     10.233000
C          17.714000     25.505000     10.057000
C          16.706000     25.213000     11.144000
C          15.693000     26.104000     11.483000
C          16.760000     23.996000     11.913000
N          14.897000     25.874000     12.562000
N          17.588000     22.975000     11.724000
C          15.897000     23.702000     12.979000
C          14.982000     24.746000     13.267000
S          17.311000     21.749000     12.807000
N          16.096000     22.465000     13.585000
C          14.305000     24.635000     14.613000
S          14.678000     23.715000     16.052000
C          13.023000     25.116000     14.755000
C          13.075000     23.940000     16.702000
S          12.018000     25.896000     13.507000
C          12.323000     24.762000     15.920000
C          12.692000     23.317000     17.910000
C          10.755000     25.965000     14.712000
C          10.958000     25.104000     15.844000
N          11.411000     23.474000     18.348000
S          13.456000     21.880000     18.458000
C          11.201000     22.620000     19.368000
C          12.190000     21.678000     19.591000
C          20.460000     26.245000      6.812000
H          17.812000     26.298000      6.728000
H          16.169000     25.725000      8.472000
H          19.428000     25.319000     11.271000
H          15.543000     26.936000     10.797000
H           9.816000     26.338000     14.326000
H          10.140000     24.947000     16.538000
H          10.199000     22.690000     19.771000
H          12.271000     20.807000     20.229000
H          19.888000     26.606000      5.949000
C          21.142000     24.958000      6.494000
H          21.091000     27.074000      7.156000
H          20.493000     24.143000      6.148000
H          21.662000     24.613000      7.397000
C          22.287000     25.133000      5.519000
H          22.989000     25.912000      5.840000
C          21.820000     25.290000      4.048000
H          23.036000     24.331000      5.516000
H          21.102000     26.119000      4.008000
H          21.319000     24.362000      3.747000
C          22.947000     25.634000      3.115000
H          23.533000     26.446000      3.562000
C          22.409000     26.382000      1.872000
H          23.595000     24.798000      2.826000
H          22.086000     27.361000      2.246000
H          21.540000     25.856000      1.456000
H          23.252000     26.648000      1.222000
$end

--------------------------------------------------------------

             Standard Nuclear Orientation (Angstroms)
    I     Atom           X                Y                Z
 ----------------------------------------------------------------
    1      C      -4.8080018919    -0.6902738687     2.0054638196
    2      C      -4.7114587445    -1.5432010342     0.8908931978
    3      N      -3.6948675667    -0.3833376060     2.7288780196
    4      C      -3.5186823218    -2.1623895423     0.5613116498
    5      C      -2.4919373927    -0.9856943083     2.4020517664
    6      C      -2.3701308922    -1.9058704670     1.3246474721
    7      C      -1.0197112434    -2.4552535256     0.9570947177
    8      C      -0.9782134111    -3.7413237839     0.4234045263
    9      C       0.1718356833    -1.7427159613     1.0569152615
   10      N       0.1508145016    -4.3146690855     0.0120395576
   11      N       0.2498653847    -0.5533501820     1.5982482540
   12      C       1.3347531644    -2.3386018801     0.5113697513
   13      C       1.3158433096    -3.6547720722     0.0473638861
   14      S       1.8088591134    -0.1459998860     1.3492456636
   15      N       2.4081651980    -1.4798567121     0.5765567324
   16      C       2.5421037933    -4.3570330191    -0.4113253207
   17      S       4.0768341739    -3.5978815564    -0.7231469292
   18      C       2.6209731641    -5.7055312669    -0.4941329174
   19      C       4.8756140278    -5.1487727220    -0.8060102948
   20      S       1.4837195999    -6.9783075623    -0.0791090235
   21      C       3.9361600408    -6.1195587232    -0.6905730986
   22      C       6.2875573271    -5.3363856739    -0.9438018028
   23      C       2.8453905747    -8.0933646270    -0.2070969088
   24      C       4.0927376662    -7.4981777933    -0.5182509965
   25      N       6.6825886432    -6.4729056774    -1.4676534429
   26      S       7.4590486318    -4.0743854315    -0.8907309907
   27      C       7.9893323386    -6.5160791707    -1.7277571994
   28      C       8.6235447115    -5.3111782420    -1.4458610875
   29      C      -6.1545651770    -0.1722453937     2.3583530631
   30      H      -5.5726758918    -1.7459555627     0.2602200444
   31      H      -3.4802092862    -2.8372918049    -0.2889863930
   32      H      -1.6766475592    -0.6220606298     3.0263546057
   33      H      -1.9107605637    -4.2599006996     0.2050749798
   34      H       2.7136360071    -9.1484784811    -0.0084704029
   35      H       5.0212748630    -8.0482137311    -0.6071843501
   36      H       8.3876115081    -7.4600908998    -2.0749452731
   37      H       9.6786826587    -5.0777404084    -1.5049431502
   38      H      -6.0000107171     0.8159624552     2.8085298797
   39      C      -6.9262176116    -0.8959359942     3.4015033087
   40      H      -6.7368594748    -0.1392255010     1.4302081188
   41      H      -6.3845942321    -0.9441478693     4.3534826834
   42      H      -6.9706484692    -1.9423956467     3.0748397286
   43      C      -8.2785617444    -0.2653104206     3.6369767304
   44      H      -8.1600995643     0.7157788257     4.1148424047
   45      C      -9.0958538260    -1.1476922069     4.6534412091
   46      H      -8.8368772413    -0.1862794457     2.6957934800
   47      H      -9.9483209801    -0.4698143567     4.7840374240
   48      H      -8.5335570479    -1.2841973658     5.5862657772
   49      C      -9.6163379468    -2.4568841210     4.0473101900
   50      H     -10.2377322240    -2.1996711794     3.1806605175
   51      C     -10.4539625924    -3.1882805251     5.0638092077
   52      H      -8.7869685631    -3.0791267248     3.6924502634
   53      H      -9.8309618342    -3.6866988224     5.8188954651
   54      H     -11.1687943958    -3.8852005727     4.6114609567
   55      H     -11.0828765158    -2.4532376288     5.5801736310
   56      C       4.8774626308     5.4084169462     0.3309509581
   57      C       4.8451042875     4.4959126378    -0.6857627798
   58      N       3.7993345228     5.9284813144     0.9034567099
   59      C       3.6139237268     3.9443392216    -1.0486721262
   60      C       2.5719586593     5.3299032181     0.6383741713
   61      C       2.4489485399     4.4450540704    -0.4567452269
   62      C       1.1342792353     3.8900172234    -0.9532084361
   63      C       0.7414147435     3.9767544216    -2.2847883809
   64      C       0.1971335896     3.2608603480    -0.0580628251
   65      N      -0.5085352201     3.5994696290    -2.6669379248
   66      N       0.3830443821     3.0037328178     1.2315373495
   67      C      -1.0660333617     2.7912123419    -0.4471656437
   68      C      -1.3620559496     3.0365091736    -1.8118286394
   69      S      -0.9295415403     2.2429807991     1.9031537299
   70      N      -1.8184107517     2.1955018468     0.5608339938
   71      C      -2.8218629311     2.8940972706    -2.1738347536
   72      S      -4.2814412592     2.8661794008    -1.2120126824
   73      C      -3.1551779877     2.4602107656    -3.4370420104
   74      C      -5.2170311933     2.1828092499    -2.5160106549
   75      S      -2.0413192694     2.0363642222    -4.7620332795
   76      C      -4.4881855565     2.0787120353    -3.6608511711
   77      C      -6.5685820024     1.8221772040    -2.3227829711
   78      C      -3.4626203161     1.6104101178    -5.6842162524
   79      C      -4.6542957644     1.4320230585    -4.9018853230
   80      N      -7.2419709342     1.2373183943    -3.3532884389
   81      S      -7.1763900991     1.4275623834    -0.7659215575
   82      C      -8.4151029169     0.7694655989    -2.8856442227
   83      C      -8.5760469692     0.7851036900    -1.5112110806
   84      C       6.2933413049     5.8392672949     0.9198283284
   85      H       5.8046433026     4.1633260541    -1.0737022633
   86      H       3.6716740008     3.1812442428    -1.8188675293
   87      H       1.6253347002     5.7393240923     0.9898761311
   88      H       1.5113150101     4.2906412547    -2.9876743144
   89      H      -3.2325729969     1.1728954423    -6.6462480292
   90      H      -5.5266758696     0.9874194454    -5.3673846026
   91      H      -9.0089620447     0.2906168360    -3.6533343937
   92      H      -9.3216650430     0.3859347478    -0.8352200720
   93      H       7.0596099778     5.4964696786     0.2144233985
   94      C       6.5252611979     5.2622559892     2.2747778168
   95      H       6.2441372630     6.9326393550     0.8433136209
   96      H       6.5748736915     4.1669042170     2.3284909036
   97      H       5.7119813539     5.5943358477     2.9329061196
   98      C       7.7420701464     5.8514342543     2.9563348246
   99      H       7.7218236725     6.9478850655     2.9648023537
  100      C       9.0799393139     5.2620410005     2.4373929369
  101      H       7.7699455068     5.7523785895     4.0488662610
  102      H       9.1048019723     5.3884914118     1.3475502227
  103      H       9.0991334552     4.1923277672     2.6784970298
  104      C      10.2816947552     5.9727492082     2.9938385343
  105      H      10.1207983710     7.0534551005     2.9003712791
  106      C      11.4872494649     5.8254907679     2.0352198439
  107      H      10.5563020236     5.7062000881     4.0213906813
  108      H      11.2267350052     6.4257241679     1.1551641174
  109      H      11.6059862488     4.7781761930     1.7287451183
  110      H      12.3416772707     6.3765007779     2.4478287307
 ----------------------------------------------------------------

   10   -5663.4863162965      6.87E-06 Convergence criterion met
 Total energy in the final basis set = -5663.4863162965

                    Orbital Energies (a.u.)
 --------------------------------------------------------------

 Alpha MOs
 -- Occupied --
-88.990 -88.990 -88.931 -88.924 -88.923 -88.921 -88.912 -88.902
-14.396 -14.388 -14.382 -14.368 -14.351 -14.349 -14.338 -14.337
-14.334 -14.331 -10.266 -10.266 -10.263 -10.260 -10.258 -10.256
-10.250 -10.249 -10.243 -10.237 -10.236 -10.235 -10.235 -10.233
-10.233 -10.233 -10.230 -10.228 -10.228 -10.227 -10.227 -10.225
-10.225 -10.224 -10.223 -10.222 -10.221 -10.219 -10.217 -10.217
-10.212 -10.210 -10.202 -10.199 -10.199 -10.196 -10.195 -10.192
-10.186 -10.182 -10.180 -10.180 -10.179 -10.177 -10.176 -10.173
-10.173 -10.172 -10.171 -10.171  -8.045  -8.044  -7.992  -7.987
 -7.983  -7.981  -7.971  -7.962  -6.010  -6.009  -6.005  -6.003
 -6.003  -6.002  -5.956  -5.953  -5.951  -5.949  -5.947  -5.947
 -5.945  -5.944  -5.943  -5.941  -5.939  -5.937  -5.935  -5.932
 -5.927  -5.927  -5.923  -5.919  -1.046  -1.027  -0.981  -0.969
 -0.966  -0.956  -0.936  -0.927  -0.921  -0.915  -0.912  -0.890
 -0.845  -0.841  -0.836  -0.828  -0.818  -0.813  -0.812  -0.810
 -0.809  -0.805  -0.799  -0.795  -0.790  -0.785  -0.773  -0.771
 -0.754  -0.751  -0.744  -0.741  -0.725  -0.718  -0.713  -0.704
 -0.695  -0.691  -0.678  -0.672  -0.659  -0.654  -0.647  -0.641
 -0.637  -0.636  -0.628  -0.625  -0.613  -0.605  -0.602  -0.596
 -0.593  -0.585  -0.584  -0.580  -0.579  -0.577  -0.568  -0.567
 -0.556  -0.545  -0.545  -0.539  -0.526  -0.524  -0.516  -0.514
 -0.510  -0.506  -0.502  -0.498  -0.491  -0.490  -0.483  -0.477
 -0.473  -0.472  -0.470  -0.467  -0.462  -0.459  -0.456  -0.453
 -0.451  -0.446  -0.442  -0.434  -0.434  -0.432  -0.430  -0.429
 -0.425  -0.424  -0.422  -0.422  -0.421  -0.418  -0.417  -0.416
 -0.416  -0.413  -0.410  -0.408  -0.406  -0.402  -0.398  -0.397
 -0.396  -0.393  -0.392  -0.390  -0.388  -0.387  -0.385  -0.383
 -0.381  -0.379  -0.377  -0.371  -0.369  -0.369  -0.360  -0.359
 -0.356  -0.353  -0.352  -0.348  -0.344  -0.341  -0.340  -0.339
 -0.338  -0.336  -0.333  -0.333  -0.331  -0.330  -0.325  -0.323
 -0.322  -0.312  -0.312  -0.308  -0.302  -0.301  -0.298  -0.295
 -0.295  -0.291  -0.289  -0.287  -0.286  -0.284  -0.279  -0.279
 -0.275  -0.273  -0.267  -0.264  -0.254  -0.254  -0.249  -0.249
 -0.247  -0.240  -0.231  -0.230  -0.192  -0.188

          Ground-State Mulliken Net Atomic Charges

     Atom                 Charge (a.u.)
  ----------------------------------------
      1 C                     0.295950
      2 C                    -0.120878
      3 N                    -0.512092
      4 C                    -0.066160
      5 C                     0.068259
      6 C                     0.034329
      7 C                     0.026503
      8 C                     0.058858
      9 C                     0.269876
     10 N                    -0.532120
     11 N                    -0.587003
     12 C                     0.196657
     13 C                     0.316727
     14 S                     0.611823
     15 N                    -0.559818
     16 C                    -0.220074
     17 S                     0.314142
     18 C                    -0.100608
     19 C                    -0.217714
     20 S                     0.288941
     21 C                     0.158101
     22 C                     0.049704
     23 C                    -0.319219
     24 C                    -0.053258
     25 N                    -0.419098
     26 S                     0.265858
     27 C                     0.143598
     28 C                    -0.327264
     29 C                    -0.223156
     30 H                     0.089967
     31 H                     0.100918
     32 H                     0.122544
     33 H                     0.111070
     34 H                     0.121987
     35 H                     0.123202
     36 H                     0.118785
     37 H                     0.130254
     38 H                     0.111967
     39 C                    -0.164492
     40 H                     0.097012
     41 H                     0.105762
     42 H                     0.087893
     43 C                    -0.179345
     44 H                     0.096001
     45 C                    -0.177321
     46 H                     0.081118
     47 H                     0.089416
     48 H                     0.094965
     49 C                    -0.166776
     50 H                     0.088409
     51 C                    -0.314049
     52 H                     0.097213
     53 H                     0.104561
     54 H                     0.097086
     55 H                     0.101499
     56 C                     0.259647
     57 C                    -0.097328
     58 N                    -0.477811
     59 C                    -0.076697
     60 C                     0.089527
     61 C                     0.019434
     62 C                     0.014876
     63 C                     0.071478
     64 C                     0.257441
     65 N                    -0.501002
     66 N                    -0.599700
     67 C                     0.179357
     68 C                     0.254350
     69 S                     0.659917
     70 N                    -0.551029
     71 C                    -0.181828
     72 S                     0.324150
     73 C                    -0.147856
     74 C                    -0.265570
     75 S                     0.274158
     76 C                     0.209985
     77 C                     0.050798
     78 C                    -0.289736
     79 C                    -0.093854
     80 N                    -0.433133
     81 S                     0.295776
     82 C                     0.132014
     83 C                    -0.334607
     84 C                    -0.206685
     85 H                     0.089617
     86 H                     0.101629
     87 H                     0.110648
     88 H                     0.118527
     89 H                     0.121718
     90 H                     0.127532
     91 H                     0.108637
     92 H                     0.137328
     93 H                     0.089701
     94 C                    -0.167929
     95 H                     0.117490
     96 H                     0.092049
     97 H                     0.115181
     98 C                    -0.186686
     99 H                     0.089035
    100 C                    -0.164118
    101 H                     0.083853
    102 H                     0.088039
    103 H                     0.090418
    104 C                    -0.175468
    105 H                     0.094176
    106 C                    -0.321431
    107 H                     0.094210
    108 H                     0.100398
    109 H                     0.101218
    110 H                     0.097644
  ----------------------------------------
  Sum of atomic charges =     0.000000

                    Cartesian Multipole Moments
 -----------------------------------------------------------------
    Charge (ESU x 10^10)
                 0.0000
    Dipole Moment (Debye)
         X       1.0913      Y      -3.2780      Z       0.2549
       Tot       3.4643
    Quadrupole Moments (Debye-Ang)
        XX    -382.6987     XY       2.6472     YY    -454.4743
        XZ     -12.1401     YZ       3.2102     ZZ    -450.5349

 Total job time:  96.09s(wall), 1151.75s(cpu)
        *  Thank you very much for using Q-Chem.  Have a nice day.  *
