 Q-Chem 4.4, Q-Chem, Inc., Pleasanton, CA (2016)
 Q-Chem 4.4.2 for Intel X86 Linux

User input:
--------------------------------------------------------------
$comment
SP
$end

$rem
MEM_STATIC 5000
MEM_TOTAL 20000
JOBTYPE SP
EXCHANGE B3LYP
BASIS 6-31g(d,p)
$end

$molecule
0 1
C          10.230000     23.031000      2.655000
C          11.228000     23.503000      3.530000
N           9.172000     22.341000      3.059000
C          11.269000     23.032000      4.861000
C           9.116000     21.984000      4.372000
C          10.116000     22.285000      5.302000
C           9.930000     21.922000      6.780000
C          10.647000     22.581000      7.799000
C           9.126000     20.841000      7.247000
N          10.545000     22.195000      9.090000
N           8.507000     19.978000      6.394000
C           8.953000     20.552000      8.608000
C           9.716000     21.209000      9.479000
S           7.613000     19.008000      7.273000
N           8.060000     19.576000      8.852000
C           9.503000     21.146000     10.939000
S           8.035000     20.408000     11.710000
C          10.475000     21.500000     11.877000
C           8.654000     20.828000     13.330000
S          12.123000     22.096000     11.790000
C           9.960000     21.354000     13.196000
C           7.907000     20.746000     14.580000
C          12.049000     22.251000     13.566000
C          10.917000     21.716000     14.125000
N           8.518000     21.065000     15.684000
S           6.212000     20.499000     14.604000
C           7.610000     21.004000     16.728000
C           6.328000     20.832000     16.299000
C          10.252000     23.642000      1.252000
H          11.925000     24.252000      3.165000
H          12.090000     23.323000      5.509000
H           8.163000     21.536000      4.650000
H          11.147000     23.504000      7.509000
H          12.988000     22.458000     14.062000
H          10.777000     21.515000     15.182000
H           7.970000     21.273000     17.712000
H           5.406000     20.859000     16.864000
H          10.639000     24.667000      1.306000
C           8.854000     23.752000      0.522000
H          10.987000     23.149000      0.603000
H           8.182000     24.362000      1.140000
H           8.417000     22.751000      0.415000
C           9.093000     24.413000     -0.892000
H           9.408000     25.446000     -0.696000
C           7.871000     24.546000     -1.773000
H           9.972000     23.957000     -1.365000
H           7.402000     25.533000     -1.683000
H           7.191000     23.770000     -1.401000
C           8.119000     24.448000     -3.270000
H           8.519000     25.395000     -3.651000
C           6.782000     24.166000     -4.019000
H           8.851000     23.697000     -3.591000
H           7.014000     23.962000     -5.073000
H           6.123000     25.042000     -3.970000
H           6.264000     23.283000     -3.625000
C          19.441000     26.087000      8.026000
C          18.101000     26.110000      7.759000
N          19.960000     25.889000      9.231000
C          17.212000     25.745000      8.773000
C          19.114000     25.425000     10.233000
C          17.714000     25.505000     10.057000
C          16.706000     25.213000     11.144000
C          15.693000     26.104000     11.483000
C          16.760000     23.996000     11.913000
N          14.897000     25.874000     12.562000
N          17.588000     22.975000     11.724000
C          15.897000     23.702000     12.979000
C          14.982000     24.746000     13.267000
S          17.311000     21.749000     12.807000
N          16.096000     22.465000     13.585000
C          14.305000     24.635000     14.613000
S          14.678000     23.715000     16.052000
C          13.023000     25.116000     14.755000
C          13.075000     23.940000     16.702000
S          12.018000     25.896000     13.507000
C          12.323000     24.762000     15.920000
C          12.692000     23.317000     17.910000
C          10.755000     25.965000     14.712000
C          10.958000     25.104000     15.844000
N          11.411000     23.474000     18.348000
S          13.456000     21.880000     18.458000
C          11.201000     22.620000     19.368000
C          12.190000     21.678000     19.591000
C          20.460000     26.245000      6.812000
H          17.812000     26.298000      6.728000
H          16.169000     25.725000      8.472000
H          19.428000     25.319000     11.271000
H          15.543000     26.936000     10.797000
H           9.816000     26.338000     14.326000
H          10.140000     24.947000     16.538000
H          10.199000     22.690000     19.771000
H          12.271000     20.807000     20.229000
H          19.888000     26.606000      5.949000
C          21.142000     24.958000      6.494000
H          21.091000     27.074000      7.156000
H          20.493000     24.143000      6.148000
H          21.662000     24.613000      7.397000
C          22.287000     25.133000      5.519000
H          22.989000     25.912000      5.840000
C          21.820000     25.290000      4.048000
H          23.036000     24.331000      5.516000
H          21.102000     26.119000      4.008000
H          21.319000     24.362000      3.747000
C          22.947000     25.634000      3.115000
H          23.533000     26.446000      3.562000
C          22.409000     26.382000      1.872000
H          23.595000     24.798000      2.826000
H          22.086000     27.361000      2.246000
H          21.540000     25.856000      1.456000
H          23.252000     26.648000      1.222000
$end

--------------------------------------------------------------

             Standard Nuclear Orientation (Angstroms)
    I     Atom           X                Y                Z
 ----------------------------------------------------------------
    1      C       7.1436053039    -3.1444878687    -0.0774795315
    2      C       6.4139557230    -1.9565593924    -0.2795944098
    3      N       6.5778789285    -4.3074651107     0.2159784769
    4      C       5.0486632959    -1.9064621690     0.0789440914
    5      C       5.2342566215    -4.3167954665     0.4376675399
    6      C       4.4319540046    -3.1722846979     0.3940027768
    7      C       2.9130157989    -3.2874037231     0.5684256462
    8      C       2.0364979006    -2.2922715636     0.0907653495
    9      C       2.2649053498    -4.3208739673     1.3066384206
   10      N       0.7075736166    -2.3564294416     0.3272500512
   11      N       2.9635940470    -5.2657424455     1.9955481848
   12      C       0.8709163391    -4.4148376122     1.4238411136
   13      C       0.1447506881    -3.3938586656     0.9735695978
   14      S       1.9115424100    -6.3033054741     2.5695057744
   15      N       0.4472452491    -5.5265387216     2.0516822168
   16      C      -1.3265003430    -3.4459783508     0.8567708736
   17      S      -2.2963462077    -4.9690793547     1.0402683684
   18      C      -2.1334612802    -2.3110295399     0.7535757064
   19      C      -3.8022539210    -4.0695316287     0.7131340724
   20      S      -1.8407514913    -0.5815699284     0.7090849017
   21      C      -3.5000937226    -2.6902661304     0.6319312418
   22      C      -5.1137487130    -4.6569315540     0.4637834391
   23      C      -3.5895649641    -0.3998403865     0.4052711248
   24      C      -4.2985797983    -1.5681332061     0.5171632713
   25      N      -6.1201135614    -3.8550052224     0.2687399813
   26      S      -5.3106727475    -6.3327075557     0.1678008097
   27      C      -7.2392505023    -4.6121811399    -0.0351319285
   28      C      -6.9437189550    -5.9267616852    -0.2393085542
   29      C       8.6006852536    -3.1009859972    -0.5435692303
   30      H       6.9161535292    -1.1128629549    -0.7443617546
   31      H       4.5091088756    -0.9668944749     0.0102449233
   32      H       4.8283822478    -5.3218484745     0.5441167949
   33      H       2.4660409716    -1.5737735708    -0.6058567751
   34      H      -3.9773760717     0.6084730722     0.4643686191
   35      H      -5.3791720547    -1.6393645339     0.5842190192
   36      H      -8.1538424815    -4.0767198803    -0.2519723100
   37      H      -7.5801960801    -6.7258730728    -0.5947742481
   38      H       8.6906822349    -2.4189102367    -1.3979597735
   39      C       9.2145706043    -4.4748779149    -1.0283060402
   40      H       9.2541723126    -2.6292919039     0.2013699256
   41      H       8.6097941965    -4.8551899436    -1.8621023326
   42      H       9.1753174127    -5.2031327995    -0.2082310375
   43      C      10.7066855135    -4.2122001252    -1.4733133174
   44      H      10.6506674307    -3.5794540298    -2.3684246809
   45      C      11.4878245687    -5.4300239876    -1.9136096002
   46      H      11.2022818990    -3.5727573545    -0.7318261862
   47      H      11.4640288229    -5.5652818910    -3.0014372805
   48      H      10.9772668270    -6.2649823985    -1.4184982548
   49      C      12.9814724993    -5.3976899574    -1.6306124803
   50      H      13.4950707508    -4.7770694353    -2.3742636106
   51      C      13.5773859004    -6.8344692382    -1.7235991291
   52      H      13.2821436111    -4.9689252517    -0.6669612417
   53      H      14.6195031370    -6.7981794172    -1.3785908481
   54      H      13.5658484173    -7.1877811619    -2.7623943790
   55      H      13.0475710323    -7.5459162685    -1.0783175406
   56      C       2.9487454832     7.1145452450    -0.5072337114
   57      C       3.0997323284     5.8226806096    -0.9264075849
   58      N       1.7789026347     7.6848906255    -0.2488466822
   59      C       1.9793285772     4.9881881791    -0.9341417700
   60      C       0.6634802078     6.8597967346    -0.1485028683
   61      C       0.7252618268     5.5388750596    -0.6472261984
   62      C      -0.4699064149     4.6222519428    -0.7666914058
   63      C      -0.7976925896     3.9719539199    -1.9518663739
   64      C      -1.3574974439     4.3944464067     0.3449078039
   65      N      -1.9599420175     3.2737465566    -2.0633999800
   66      N      -1.2082360427     4.8477213872     1.5842660354
   67      C      -2.5195358618     3.6120053235     0.2741005518
   68      C      -2.7719108330     3.0947761736    -1.0216177356
   69      S      -2.4364323569     4.3402132725     2.5775753163
   70      N      -3.2352843775     3.4965590824     1.4621166408
   71      C      -4.1755451591     2.5759320897    -1.2289278781
   72      S      -5.6672681145     2.8170170183    -0.3497858637
   73      C      -4.3754848120     1.5245003749    -2.0947018004
   74      C      -6.4256030393     1.4431157191    -1.1114008333
   75      S      -3.1426413926     0.6651191240    -3.0525587672
   76      C      -5.6279148757     0.8895998968    -2.0653535722
   77      C      -7.7220649304     1.0318840073    -0.7317206467
   78      C      -4.4380036454    -0.3701344701    -3.6023238351
   79      C      -5.6340335751    -0.3075169869    -2.8088848279
   80      N      -8.2498628460    -0.0823220951    -1.3126062823
   81      S      -8.3529484701     1.3839715079     0.8261591148
   82      C      -9.3699422107    -0.4213236808    -0.6460358497
   83      C      -9.6063404123     0.2557059247     0.5375860509
   84      C       4.2562725773     7.9864435157    -0.2478357473
   85      H       4.1160619764     5.4870344571    -1.1167801327
   86      H       2.1850717147     3.9604532845    -1.2174803445
   87      H      -0.3488197369     7.2446784116    -0.0285407220
   88      H      -0.0419316809     4.0021917155    -2.7349571250
   89      H      -4.0968988139    -1.1905455452    -4.2191051268
   90      H      -6.4090276924    -1.0489147357    -2.9673856043
   91      H      -9.8482726113    -1.3018400826    -1.0549415771
   92      H     -10.3247145606     0.1428553999     1.3397389928
   93      H       5.1002875602     7.4546486349    -0.7029257530
   94      C       4.4921248162     8.2063229529     1.2077204194
   95      H       4.0591141159     8.8736634831    -0.8624146849
   96      H       4.6912093139     7.3060685189     1.8035805680
   97      H       3.6057098877     8.6983606335     1.6284358760
   98      C       5.5756590372     9.2301647923     1.4722510981
   99      H       5.4020578693    10.1668118178     0.9288902750
  100      C       7.0090613932     8.6659466219     1.2889629590
  101      H       5.5573635987     9.6963033639     2.4655255360
  102      H       7.0755258968     8.2323370619     0.2830155353
  103      H       7.1642532012     7.8767971946     2.0345799412
  104      C       8.0675757654     9.7286543599     1.3846373405
  105      H       7.7626829634    10.5800416936     0.7643720848
  106      C       9.3324361300     9.3020921068     0.6022244685
  107      H       8.3201630498    10.0559474260     2.4002159503
  108      H       9.0391245287     9.3353435556    -0.4539519589
  109      H       9.6128331578     8.2728834579     0.8610681739
  110      H      10.0777107206    10.1051510729     0.6619495190
 ----------------------------------------------------------------

   10   -5663.4661674896      9.66E-06 Convergence criterion met
 Total energy in the final basis set = -5663.4661674896

                    Orbital Energies (a.u.)
 --------------------------------------------------------------

 Alpha MOs
 -- Occupied --
-88.996 -88.988 -88.925 -88.925 -88.924 -88.920 -88.905 -88.902
-14.388 -14.385 -14.384 -14.374 -14.355 -14.346 -14.340 -14.336
-14.336 -14.330 -10.270 -10.262 -10.261 -10.256 -10.256 -10.256
-10.251 -10.246 -10.245 -10.239 -10.237 -10.237 -10.236 -10.235
-10.233 -10.230 -10.229 -10.229 -10.228 -10.227 -10.227 -10.226
-10.225 -10.225 -10.224 -10.224 -10.223 -10.221 -10.221 -10.220
-10.214 -10.212 -10.204 -10.202 -10.199 -10.198 -10.197 -10.188
-10.188 -10.180 -10.180 -10.177 -10.176 -10.174 -10.174 -10.174
-10.172 -10.171 -10.171 -10.170  -8.050  -8.043  -7.988  -7.986
 -7.984  -7.979  -7.964  -7.962  -6.016  -6.010  -6.008  -6.008
 -6.003  -6.001  -5.952  -5.950  -5.949  -5.948  -5.947  -5.945
 -5.945  -5.943  -5.943  -5.941  -5.939  -5.935  -5.929  -5.926
 -5.925  -5.923  -5.920  -5.918  -1.033  -1.032  -0.974  -0.970
 -0.960  -0.958  -0.940  -0.938  -0.914  -0.903  -0.896  -0.896
 -0.842  -0.833  -0.831  -0.828  -0.816  -0.813  -0.811  -0.811
 -0.804  -0.801  -0.798  -0.792  -0.787  -0.782  -0.773  -0.764
 -0.753  -0.746  -0.742  -0.738  -0.720  -0.715  -0.706  -0.706
 -0.693  -0.690  -0.675  -0.674  -0.656  -0.656  -0.644  -0.640
 -0.640  -0.635  -0.630  -0.623  -0.607  -0.606  -0.595  -0.593
 -0.590  -0.586  -0.581  -0.578  -0.578  -0.569  -0.569  -0.568
 -0.548  -0.547  -0.542  -0.535  -0.528  -0.522  -0.517  -0.512
 -0.512  -0.507  -0.500  -0.495  -0.492  -0.479  -0.474  -0.473
 -0.470  -0.470  -0.467  -0.467  -0.463  -0.461  -0.454  -0.449
 -0.446  -0.444  -0.438  -0.434  -0.431  -0.428  -0.428  -0.427
 -0.425  -0.423  -0.422  -0.420  -0.420  -0.417  -0.417  -0.413
 -0.410  -0.409  -0.409  -0.405  -0.405  -0.398  -0.397  -0.396
 -0.395  -0.392  -0.391  -0.387  -0.385  -0.384  -0.383  -0.381
 -0.377  -0.374  -0.372  -0.372  -0.370  -0.365  -0.356  -0.353
 -0.350  -0.349  -0.345  -0.345  -0.343  -0.342  -0.340  -0.340
 -0.335  -0.332  -0.331  -0.331  -0.328  -0.324  -0.323  -0.323
 -0.313  -0.309  -0.306  -0.303  -0.302  -0.299  -0.297  -0.296
 -0.295  -0.293  -0.290  -0.287  -0.287  -0.285  -0.281  -0.280
 -0.278  -0.270  -0.267  -0.266  -0.256  -0.253  -0.250  -0.247
 -0.244  -0.242  -0.232  -0.227  -0.189  -0.185

          Ground-State Mulliken Net Atomic Charges

     Atom                 Charge (a.u.)
  ----------------------------------------
      1 C                     0.292524
      2 C                    -0.121551
      3 N                    -0.485401
      4 C                    -0.085697
      5 C                     0.081431
      6 C                     0.042492
      7 C                     0.041949
      8 C                     0.058219
      9 C                     0.177694
     10 N                    -0.513414
     11 N                    -0.523919
     12 C                     0.272296
     13 C                     0.284264
     14 S                     0.595548
     15 N                    -0.608435
     16 C                    -0.217100
     17 S                     0.309622
     18 C                    -0.106465
     19 C                    -0.238762
     20 S                     0.265117
     21 C                     0.148442
     22 C                     0.092640
     23 C                    -0.310138
     24 C                    -0.053523
     25 N                    -0.441508
     26 S                     0.272528
     27 C                     0.126167
     28 C                    -0.314966
     29 C                    -0.254641
     30 H                     0.091799
     31 H                     0.103312
     32 H                     0.121086
     33 H                     0.110712
     34 H                     0.138009
     35 H                     0.133803
     36 H                     0.112589
     37 H                     0.128541
     38 H                     0.105975
     39 C                    -0.174739
     40 H                     0.113659
     41 H                     0.102211
     42 H                     0.114957
     43 C                    -0.183446
     44 H                     0.086952
     45 C                    -0.167769
     46 H                     0.088946
     47 H                     0.094901
     48 H                     0.094362
     49 C                    -0.184519
     50 H                     0.093199
     51 C                    -0.316709
     52 H                     0.091139
     53 H                     0.095040
     54 H                     0.101350
     55 H                     0.105022
     56 C                     0.260775
     57 C                    -0.097105
     58 N                    -0.477710
     59 C                    -0.072796
     60 C                     0.091050
     61 C                     0.018747
     62 C                     0.016195
     63 C                     0.074498
     64 C                     0.261628
     65 N                    -0.500622
     66 N                    -0.577030
     67 C                     0.189979
     68 C                     0.259809
     69 S                     0.621041
     70 N                    -0.558866
     71 C                    -0.198273
     72 S                     0.306552
     73 C                    -0.143050
     74 C                    -0.266680
     75 S                     0.287749
     76 C                     0.215637
     77 C                     0.055258
     78 C                    -0.289941
     79 C                    -0.081567
     80 N                    -0.428752
     81 S                     0.291289
     82 C                     0.131193
     83 C                    -0.324499
     84 C                    -0.207065
     85 H                     0.088658
     86 H                     0.100120
     87 H                     0.109790
     88 H                     0.120206
     89 H                     0.124457
     90 H                     0.128661
     91 H                     0.105741
     92 H                     0.139879
     93 H                     0.089597
     94 C                    -0.167800
     95 H                     0.117714
     96 H                     0.092691
     97 H                     0.115305
     98 C                    -0.187007
     99 H                     0.089064
    100 C                    -0.164153
    101 H                     0.084258
    102 H                     0.087632
    103 H                     0.090714
    104 C                    -0.175486
    105 H                     0.094133
    106 C                    -0.321309
    107 H                     0.094528
    108 H                     0.100106
    109 H                     0.101349
    110 H                     0.097919
  ----------------------------------------
  Sum of atomic charges =     0.000000

                    Cartesian Multipole Moments
 -----------------------------------------------------------------
    Charge (ESU x 10^10)
                 0.0000
    Dipole Moment (Debye)
         X      -0.5847      Y      -0.9025      Z       0.4723
       Tot       1.1744
    Quadrupole Moments (Debye-Ang)
        XX    -404.0917     XY      29.6329     YY    -448.2131
        XZ     -18.5625     YZ       8.9305     ZZ    -445.5300

 Total job time:  95.55s(wall), 1140.72s(cpu)
        *  Thank you very much for using Q-Chem.  Have a nice day.  *
