 Q-Chem 4.4, Q-Chem, Inc., Pleasanton, CA (2016)
 Q-Chem 4.4.2 for Intel X86 Linux

User input:
--------------------------------------------------------------
$comment
SP
$end

$rem
MEM_STATIC 5000
MEM_TOTAL 20000
JOBTYPE SP
EXCHANGE B3LYP
BASIS 6-31g(d,p)
$end

$molecule
0 1
C          -3.007000     -9.849000      0.738000
C          -2.560000     -9.543000     -0.515000
N          -3.744000     -8.994000      1.499000
C          -2.940000     -8.368000     -1.116000
C          -4.132000     -7.860000      0.912000
C          -3.762000     -7.496000     -0.449000
C          -4.409000     -6.350000     -1.154000
C          -5.838000     -6.132000     -1.156000
C          -3.692000     -5.240000     -1.661000
N          -6.451000     -5.107000     -1.712000
N          -2.356000     -5.254000     -1.821000
C          -4.388000     -4.197000     -2.310000
C          -5.784000     -4.152000     -2.365000
S          -2.113000     -3.829000     -2.605000
N          -3.663000     -3.365000     -3.019000
C          -6.478000     -3.107000     -3.154000
S          -5.759000     -1.826000     -4.153000
C          -7.828000     -2.909000     -3.133000
C          -7.300000     -1.063000     -4.466000
S          -9.046000     -3.805000     -2.209000
C          -8.257000     -1.763000     -3.793000
C          -7.491000      0.175000     -5.186000
C         -10.208000     -2.586000     -2.722000
C          -9.676000     -1.586000     -3.526000
N          -8.759000      0.507000     -5.442000
S          -6.232000      1.294000     -5.696000
C          -8.789000      1.789000     -6.015000
C          -7.541000      2.423000     -6.098000
C          -2.768000    -11.184000      1.413000
H          -1.960000    -10.235000     -1.098000
H          -2.792000     -8.266000     -2.186000
H          -4.879000     -7.334000      1.506000
H          -6.478000     -6.848000     -0.643000
H         -11.217000     -2.514000     -2.338000
H         -10.209000     -0.685000     -3.807000
H          -9.739000      2.157000     -6.379000
H          -7.310000      3.400000     -6.502000
H          -1.841000    -11.592000      0.993000
C          -3.910000    -12.251000      1.398000
H          -2.597000    -11.036000      2.488000
H          -3.851000    -12.751000      0.423000
H          -4.753000    -11.557000      1.502000
C          -3.876000    -13.291000      2.541000
H          -3.085000    -14.017000      2.315000
C          -5.268000    -14.109000      2.568000
H          -3.599000    -12.842000      3.503000
H          -5.013000    -14.981000      3.183000
H          -5.565000    -14.486000      1.580000
C          -6.205000    -13.212000      3.342000
H          -5.865000    -13.076000      4.375000
C          -7.617000    -13.709000      3.462000
H          -6.099000    -12.187000      2.965000
H          -8.291000    -12.935000      3.849000
H          -7.664000    -14.506000      4.215000
H          -8.048000    -14.143000      2.551000
C         -12.484000     -4.720000     -3.691000
C         -12.142000     -5.825000     -2.880000
N         -13.516000     -3.967000     -3.390000
C         -12.761000     -5.970000     -1.591000
C         -14.133000     -4.116000     -2.209000
C         -13.700000     -5.024000     -1.167000
C         -14.184000     -4.955000      0.215000
C         -13.264000     -5.184000      1.276000
C         -15.460000     -4.513000      0.572000
N         -13.560000     -5.104000      2.593000
N         -16.499000     -4.201000     -0.258000
C         -15.688000     -4.332000      1.912000
C         -14.726000     -4.631000      2.961000
S         -17.644000     -3.596000      0.750000
N         -16.854000     -3.768000      2.162000
C         -15.004000     -4.505000      4.353000
S         -16.166000     -3.264000      5.037000
C         -14.107000     -4.933000      5.360000
C         -15.484000     -3.514000      6.664000
S         -12.599000     -5.929000      5.314000
C         -14.336000     -4.292000      6.555000
C         -15.831000     -2.739000      7.810000
C         -12.396000     -5.625000      7.112000
C         -13.320000     -4.670000      7.507000
N         -15.400000     -3.121000      8.985000
S         -17.042000     -1.492000      7.744000
C         -15.745000     -2.200000      9.913000
C         -16.732000     -1.325000      9.437000
C         -11.844000     -4.473000     -5.112000
H         -11.282000     -6.422000     -3.171000
H         -12.504000     -6.847000     -1.004000
H         -14.858000     -3.350000     -1.938000
H         -12.271000     -5.607000      1.125000
H         -11.534000     -6.021000      7.633000
H         -13.287000     -4.339000      8.540000
H         -15.310000     -2.166000     10.902000
H         -17.346000     -0.588000      9.937000
H         -12.685000     -4.370000     -5.810000
C         -10.944000     -5.577000     -5.650000
H         -11.269000     -3.546000     -5.000000
H         -11.405000     -6.572000     -5.674000
H         -10.124000     -5.708000     -4.931000
C         -10.427000     -5.306000     -7.050000
H         -11.278000     -5.036000     -7.686000
C          -9.655000     -6.561000     -7.611000
H          -9.862000     -4.366000     -7.042000
H         -10.426000     -7.335000     -7.515000
H          -8.791000     -6.986000     -7.084000
C          -9.247000     -6.584000     -9.075000
H         -10.176000     -6.274000     -9.570000
C          -8.722000     -7.961000     -9.428000
H          -8.624000     -5.710000     -9.303000
H          -9.531000     -8.685000     -9.273000
H          -7.865000     -8.333000     -8.852000
H          -8.500000     -8.094000    -10.494000
$end

--------------------------------------------------------------

             Standard Nuclear Orientation (Angstroms)
    I     Atom           X                Y                Z
 ----------------------------------------------------------------
    1      C      -5.0690923191    -6.7985184191    -0.5817553971
    2      C      -6.1899394368    -6.0335649413    -0.4334249703
    3      N      -3.9201729591    -6.3400177390    -1.1501535238
    4      C      -6.1649239947    -4.7005612060    -0.7631237258
    5      C      -3.8847919985    -5.0409079865    -1.4536844755
    6      C      -5.0125681144    -4.1411297476    -1.2530924681
    7      C      -4.8606177352    -2.6605650019    -1.3705195347
    8      C      -3.7729052928    -1.9296517449    -0.7604240886
    9      C      -5.5978336694    -1.8701114996    -2.2842667246
   10      N      -3.5624296222    -0.6349566681    -0.8828767336
   11      N      -6.6990029567    -2.3251701436    -2.9095985016
   12      C      -5.3846354541    -0.4751663253    -2.3305320630
   13      C      -4.3765662624     0.1510229015    -1.5919187967
   14      S      -7.2287576717    -0.9600408731    -3.6580048195
   15      N      -6.2931472264     0.2330966651    -2.9578277637
   16      C      -4.2566842889     1.6280046297    -1.5736079565
   17      S      -5.2989223868     2.8246596845    -2.3721562814
   18      C      -3.2149820872     2.2995803384    -1.0026547269
   19      C      -4.2686284551     4.1667245326    -1.9337781824
   20      S      -1.8056587444     1.6196501800    -0.1710185713
   21      C      -3.1956871022     3.6661470873    -1.2577625950
   22      C      -4.4551613713     5.5373225277    -2.3511408629
   23      C      -1.1356265475     3.2476039594    -0.1569705342
   24      C      -1.9433219763     4.2075978494    -0.7531918231
   25      N      -3.6409679055     6.4316718217    -1.7847378786
   26      S      -5.5966813967     6.1175286343    -3.5584663805
   27      C      -3.8455149844     7.6830023576    -2.3889608362
   28      C      -4.7547774828     7.6765404917    -3.4564574185
   29      C      -4.9592181064    -8.2308285771    -0.1007291310
   30      H      -7.1007850299    -6.4252149245     0.0089816258
   31      H      -6.9667587879    -4.0657538745    -0.4007860155
   32      H      -2.8767206347    -4.7137443262    -1.7072136943
   33      H      -3.0429757497    -2.4761824824    -0.1655022323
   34      H      -0.1237459313     3.4816273298     0.1464296645
   35      H      -1.6260519068     5.2224854257    -0.9634153004
   36      H      -3.3348022428     8.5374979883    -1.9653693907
   37      H      -5.0781099449     8.5088887777    -4.0678152922
   38      H      -5.9730358956    -8.6483237198    -0.1087476171
   39      C      -4.2439254804    -8.5160638509     1.2593720776
   40      H      -4.3622756756    -8.8203870293    -0.8098487019
   41      H      -4.9874510606    -8.3260801362     2.0437074012
   42      H      -3.4669753832    -7.7465012565     1.1743840801
   43      C      -3.6392329469    -9.9295205596     1.4196595453
   44      H      -4.4614493090   -10.6297885843     1.6130967376
   45      C      -2.6811404612    -9.9625043519     2.7190778221
   46      H      -3.1602882238   -10.2833462574     0.4981426828
   47      H      -2.5684847904   -11.0391679741     2.8972298486
   48      H      -3.1538774600    -9.5346176747     3.6134573397
   49      C      -1.3699108097    -9.4013113804     2.2216914030
   50      H      -0.9277685302   -10.0430054205     1.4510267784
   51      C      -0.2982394961    -9.2534846898     3.2632387448
   52      H      -1.5768439569    -8.5003884186     1.6305006644
   53      H       0.5483836630    -8.6600742546     2.8968860707
   54      H       0.1386970153   -10.2357477110     3.4838579691
   55      H      -0.6272787516    -8.8566810354     4.2319069172
   56      C      -0.3284657769     3.2200658722     3.0085983158
   57      C      -0.1789212713     1.8296954200     3.2091387018
   58      N       0.7255911601     3.9928820012     2.8887934562
   59      C       1.1124377071     1.2268717098     3.0228524613
   60      C       1.9439748980     3.4492424228     2.7559473958
   61      C       2.2007319851     2.0270701708     2.6599323773
   62      C       3.4777980839     1.4669978899     2.2078679796
   63      C       3.4640032700     0.3174174573     1.3695145147
   64      C       4.7139076516     2.0857629085     2.4082475903
   65      N       4.5596937272    -0.2728135150     0.8407472489
   66      N       4.9778762103     3.2075811745     3.1414660966
   67      C       5.7859246862     1.5261345456     1.7617643554
   68      C       5.7247943646     0.3171456196     0.9556285972
   69      S       6.5636371628     3.5101158482     2.8465949848
   70      N       6.8840723064     2.2490347826     1.8696487915
   71      C       6.8617864014    -0.2914521229     0.3492608077
   72      S       8.3215182383     0.6558314489    -0.2252109485
   73      C       6.8063282783    -1.5409883097    -0.3121208631
   74      C       8.8545912737    -0.7419131017    -1.1931449908
   75      S       5.5372746653    -2.8256087825    -0.3984294260
   76      C       7.8375336447    -1.6908025080    -1.2096275196
   77      C       9.9570669579    -0.7209936620    -2.0978326401
   78      C       6.6040766709    -3.7383385240    -1.5796520552
   79      C       7.6631897656    -2.9209554616    -1.9429568608
   80      N      10.3642829284    -1.8480023656    -2.6235098562
   81      S      10.9607814486     0.6864966964    -2.2912599193
   82      C      11.3389906362    -1.5979164720    -3.5267550778
   83      C      11.8628812764    -0.3050834170    -3.3836072905
   84      C      -1.7103268285     3.9632869399     3.1757284409
   85      H      -1.0801482199     1.2305981564     3.3069265119
   86      H       1.2046078381     0.1621547270     3.2168354849
   87      H       2.7513396637     4.1250151462     2.4778909958
   88      H       2.5762006397    -0.2937268213     1.2079962179
   89      H       6.2588241254    -4.6684859357    -2.0120031538
   90      H       8.3566207979    -3.3011669656    -2.6861470220
   91      H      11.6695673037    -2.3243723473    -4.2557838344
   92      H      12.7348294050     0.1722831189    -3.8102132580
   93      H      -1.5313599426     4.7808654800     3.8861017122
   94      C      -2.8630367397     3.1334506661     3.7242643277
   95      H      -1.9562157805     4.3215920347     2.1689245462
   96      H      -2.6520771493     2.6299807031     4.6756507096
   97      H      -3.0158395135     2.2923308131     3.0345609820
   98      C      -4.1367390997     3.9309700983     3.9301163464
   99      H      -3.8900301354     4.8345319753     4.4995964788
  100      C      -5.2269676851     3.0593689197     4.6632213982
  101      H      -4.4420539275     4.3629807679     2.9693673484
  102      H      -4.6805361160     2.7671676312     5.5680771587
  103      H      -5.5731545706     2.1044321600     4.2471680060
  104      C      -6.4960131854     3.7302603875     5.1629384749
  105      H      -6.0938557590     4.6115024507     5.6785428101
  106      C      -7.2799016037     2.7509712523     6.0131588800
  107      H      -7.0074023614     4.2295297335     4.3303520044
  108      H      -6.6605439794     2.4750964882     6.8751166793
  109      H      -7.5824592051     1.8078086242     5.5403881589
  110      H      -8.1616621336     3.1875695659     6.4981426741
 ----------------------------------------------------------------

    9   -5663.5007321547      7.30E-06 Convergence criterion met
 Total energy in the final basis set = -5663.5007321547

                    Orbital Energies (a.u.)
 --------------------------------------------------------------

 Alpha MOs
 -- Occupied --
-88.985 -88.983 -88.931 -88.929 -88.927 -88.923 -88.908 -88.907
-14.392 -14.389 -14.381 -14.379 -14.348 -14.346 -14.345 -14.342
-14.332 -14.321 -10.273 -10.267 -10.262 -10.257 -10.256 -10.251
-10.249 -10.248 -10.243 -10.243 -10.242 -10.241 -10.238 -10.238
-10.237 -10.236 -10.236 -10.233 -10.233 -10.233 -10.227 -10.226
-10.225 -10.225 -10.224 -10.223 -10.221 -10.218 -10.216 -10.212
-10.209 -10.209 -10.207 -10.204 -10.196 -10.195 -10.195 -10.191
-10.182 -10.181 -10.180 -10.180 -10.177 -10.176 -10.173 -10.172
-10.172 -10.172 -10.171 -10.166  -8.041  -8.039  -7.992  -7.992
 -7.985  -7.982  -7.967  -7.965  -6.006  -6.003  -6.000  -5.998
 -5.998  -5.996  -5.956  -5.955  -5.952  -5.952  -5.949  -5.949
 -5.948  -5.946  -5.946  -5.942  -5.941  -5.938  -5.931  -5.930
 -5.928  -5.926  -5.923  -5.921  -1.044  -1.040  -0.983  -0.966
 -0.963  -0.960  -0.943  -0.939  -0.922  -0.911  -0.905  -0.899
 -0.840  -0.837  -0.834  -0.832  -0.815  -0.806  -0.805  -0.804
 -0.803  -0.802  -0.800  -0.794  -0.785  -0.778  -0.767  -0.762
 -0.748  -0.747  -0.736  -0.731  -0.724  -0.722  -0.707  -0.704
 -0.691  -0.689  -0.675  -0.671  -0.655  -0.652  -0.644  -0.643
 -0.635  -0.633  -0.630  -0.624  -0.613  -0.611  -0.599  -0.598
 -0.590  -0.589  -0.584  -0.578  -0.577  -0.573  -0.570  -0.568
 -0.554  -0.552  -0.540  -0.540  -0.523  -0.520  -0.511  -0.509
 -0.506  -0.500  -0.496  -0.496  -0.494  -0.481  -0.479  -0.477
 -0.475  -0.470  -0.467  -0.466  -0.458  -0.458  -0.453  -0.449
 -0.446  -0.444  -0.442  -0.436  -0.436  -0.431  -0.430  -0.429
 -0.425  -0.424  -0.420  -0.418  -0.416  -0.413  -0.412  -0.412
 -0.410  -0.408  -0.403  -0.403  -0.401  -0.400  -0.397  -0.396
 -0.394  -0.392  -0.388  -0.388  -0.387  -0.386  -0.382  -0.381
 -0.379  -0.377  -0.371  -0.368  -0.367  -0.363  -0.358  -0.352
 -0.352  -0.351  -0.351  -0.348  -0.344  -0.342  -0.341  -0.337
 -0.337  -0.334  -0.332  -0.330  -0.328  -0.325  -0.324  -0.320
 -0.315  -0.310  -0.307  -0.307  -0.303  -0.303  -0.302  -0.298
 -0.297  -0.294  -0.291  -0.291  -0.288  -0.286  -0.282  -0.281
 -0.273  -0.270  -0.262  -0.261  -0.253  -0.251  -0.249  -0.248
 -0.246  -0.241  -0.233  -0.229  -0.195  -0.191

          Ground-State Mulliken Net Atomic Charges

     Atom                 Charge (a.u.)
  ----------------------------------------
      1 C                     0.262941
      2 C                    -0.108745
      3 N                    -0.466809
      4 C                    -0.047410
      5 C                     0.072652
      6 C                     0.023341
      7 C                    -0.044772
      8 C                     0.071861
      9 C                     0.242888
     10 N                    -0.528100
     11 N                    -0.514955
     12 C                     0.214851
     13 C                     0.324810
     14 S                     0.575647
     15 N                    -0.563080
     16 C                    -0.218002
     17 S                     0.321636
     18 C                    -0.126725
     19 C                    -0.244830
     20 S                     0.286485
     21 C                     0.177596
     22 C                     0.065539
     23 C                    -0.311980
     24 C                    -0.065570
     25 N                    -0.433699
     26 S                     0.275309
     27 C                     0.119660
     28 C                    -0.308794
     29 C                    -0.230667
     30 H                     0.091350
     31 H                     0.104920
     32 H                     0.105672
     33 H                     0.111612
     34 H                     0.140560
     35 H                     0.122199
     36 H                     0.120647
     37 H                     0.135525
     38 H                     0.085552
     39 C                    -0.168251
     40 H                     0.113978
     41 H                     0.092404
     42 H                     0.115190
     43 C                    -0.195802
     44 H                     0.084621
     45 C                    -0.171095
     46 H                     0.097501
     47 H                     0.091417
     48 H                     0.096191
     49 C                    -0.165612
     50 H                     0.095834
     51 C                    -0.321786
     52 H                     0.101330
     53 H                     0.098573
     54 H                     0.100180
     55 H                     0.098724
     56 C                     0.250983
     57 C                    -0.114955
     58 N                    -0.473879
     59 C                    -0.111615
     60 C                     0.082830
     61 C                     0.040393
     62 C                     0.006865
     63 C                     0.050920
     64 C                     0.262279
     65 N                    -0.525425
     66 N                    -0.570572
     67 C                     0.193365
     68 C                     0.345274
     69 S                     0.594726
     70 N                    -0.557792
     71 C                    -0.236274
     72 S                     0.313747
     73 C                    -0.102087
     74 C                    -0.203915
     75 S                     0.261831
     76 C                     0.141894
     77 C                     0.060013
     78 C                    -0.301733
     79 C                    -0.058349
     80 N                    -0.416808
     81 S                     0.280153
     82 C                     0.126074
     83 C                    -0.314838
     84 C                    -0.216376
     85 H                     0.097581
     86 H                     0.103753
     87 H                     0.110955
     88 H                     0.114903
     89 H                     0.135570
     90 H                     0.119892
     91 H                     0.119093
     92 H                     0.132418
     93 H                     0.114800
     94 C                    -0.189405
     95 H                     0.130700
     96 H                     0.090275
     97 H                     0.107064
     98 C                    -0.187772
     99 H                     0.091257
    100 C                    -0.172126
    101 H                     0.096855
    102 H                     0.089169
    103 H                     0.088948
    104 C                    -0.174317
    105 H                     0.090560
    106 C                    -0.322777
    107 H                     0.092889
    108 H                     0.105530
    109 H                     0.105582
    110 H                     0.099361
  ----------------------------------------
  Sum of atomic charges =     0.000000

                    Cartesian Multipole Moments
 -----------------------------------------------------------------
    Charge (ESU x 10^10)
                 0.0000
    Dipole Moment (Debye)
         X      -0.1118      Y       0.5041      Z      -2.4072
       Tot       2.4620
    Quadrupole Moments (Debye-Ang)
        XX    -387.2117     XY       6.8349     YY    -420.7396
        XZ     -20.6784     YZ     -18.9484     ZZ    -436.2598

 Total job time:  82.32s(wall), 968.33s(cpu)
        *  Thank you very much for using Q-Chem.  Have a nice day.  *
