 Q-Chem 4.4, Q-Chem, Inc., Pleasanton, CA (2016)
 Q-Chem 4.4.2 for Intel X86 Linux

User input:
--------------------------------------------------------------
$comment
SP
$end

$rem
MEM_STATIC 5000
MEM_TOTAL 20000
JOBTYPE SP
EXCHANGE B3LYP
BASIS 6-31g(d,p)
$end

$molecule
0 1
C         -28.022000     -0.605000     -4.779000
C         -27.259000     -1.720000     -4.487000
N         -27.420000      0.479000     -5.192000
C         -25.875000     -1.812000     -4.879000
C         -26.063000      0.507000     -5.335000
C         -25.185000     -0.638000     -5.254000
C         -23.693000     -0.634000     -5.445000
C         -22.980000      0.552000     -5.063000
C         -22.833000     -1.770000     -5.778000
N         -21.647000      0.817000     -5.251000
N         -23.230000     -3.014000     -6.054000
C         -21.462000     -1.591000     -5.727000
C         -20.910000     -0.216000     -5.647000
S         -21.952000     -3.890000     -6.313000
N         -20.812000     -2.692000     -6.067000
C         -19.448000      0.068000     -5.712000
S         -18.233000     -1.247000     -5.842000
C         -18.911000      1.340000     -5.788000
C         -16.962000     -0.027000     -5.845000
S         -19.649000      2.940000     -5.789000
C         -17.512000      1.303000     -5.785000
C         -15.563000     -0.296000     -6.005000
C         -18.011000      3.516000     -6.033000
C         -16.963000      2.593000     -5.966000
N         -14.656000      0.648000     -6.038000
S         -15.022000     -1.963000     -5.974000
C         -13.407000      0.085000     -6.247000
C         -13.417000     -1.284000     -6.209000
C         -29.527000     -0.598000     -4.762000
H         -27.788000     -2.604000     -4.143000
H         -25.351000     -2.746000     -4.700000
H         -25.558000      1.426000     -5.630000
H         -23.501000      1.471000     -4.800000
H         -17.835000      4.584000     -6.059000
H         -15.922000      2.797000     -6.189000
H         -12.563000      0.752000     -6.365000
H         -12.546000     -1.910000     -6.351000
H         -29.951000      0.414000     -4.762000
C         -30.063000     -0.970000     -3.372000
H         -29.972000     -1.253000     -5.522000
H         -29.708000     -0.310000     -2.571000
H         -29.686000     -1.936000     -3.016000
C         -31.648000     -1.058000     -3.345000
H         -32.024000     -0.071000     -3.046000
C         -32.337000     -1.997000     -2.307000
H         -31.998000     -1.443000     -4.310000
H         -33.242000     -1.557000     -1.872000
H         -31.675000     -2.235000     -1.466000
C         -32.875000     -3.331000     -3.009000
H         -33.376000     -3.923000     -2.234000
C         -31.774000     -4.173000     -3.803000
H         -33.614000     -3.076000     -3.779000
H         -31.307000     -3.679000     -4.664000
H         -32.095000     -5.144000     -4.199000
H         -30.917000     -4.357000     -3.143000
C         -12.484000     -4.720000     -3.691000
C         -12.142000     -5.825000     -2.880000
N         -13.516000     -3.967000     -3.390000
C         -12.761000     -5.970000     -1.591000
C         -14.133000     -4.116000     -2.209000
C         -13.700000     -5.024000     -1.167000
C         -14.184000     -4.955000      0.215000
C         -13.264000     -5.184000      1.276000
C         -15.460000     -4.513000      0.572000
N         -13.560000     -5.104000      2.593000
N         -16.499000     -4.201000     -0.258000
C         -15.688000     -4.332000      1.912000
C         -14.726000     -4.631000      2.961000
S         -17.644000     -3.596000      0.750000
N         -16.854000     -3.768000      2.162000
C         -15.004000     -4.505000      4.353000
S         -16.166000     -3.264000      5.037000
C         -14.107000     -4.933000      5.360000
C         -15.484000     -3.514000      6.664000
S         -12.599000     -5.929000      5.314000
C         -14.336000     -4.292000      6.555000
C         -15.831000     -2.739000      7.810000
C         -12.396000     -5.625000      7.112000
C         -13.320000     -4.670000      7.507000
N         -15.400000     -3.121000      8.985000
S         -17.042000     -1.492000      7.744000
C         -15.745000     -2.200000      9.913000
C         -16.732000     -1.325000      9.437000
C         -11.844000     -4.473000     -5.112000
H         -11.282000     -6.422000     -3.171000
H         -12.504000     -6.847000     -1.004000
H         -14.858000     -3.350000     -1.938000
H         -12.271000     -5.607000      1.125000
H         -11.534000     -6.021000      7.633000
H         -13.287000     -4.339000      8.540000
H         -15.310000     -2.166000     10.902000
H         -17.346000     -0.588000      9.937000
H         -12.685000     -4.370000     -5.810000
C         -10.944000     -5.577000     -5.650000
H         -11.269000     -3.546000     -5.000000
H         -11.405000     -6.572000     -5.674000
H         -10.124000     -5.708000     -4.931000
C         -10.427000     -5.306000     -7.050000
H         -11.278000     -5.036000     -7.686000
C          -9.655000     -6.561000     -7.611000
H          -9.862000     -4.366000     -7.042000
H         -10.426000     -7.335000     -7.515000
H          -8.791000     -6.986000     -7.084000
C          -9.247000     -6.584000     -9.075000
H         -10.176000     -6.274000     -9.570000
C          -8.722000     -7.961000     -9.428000
H          -8.624000     -5.710000     -9.303000
H          -9.531000     -8.685000     -9.273000
H          -7.865000     -8.333000     -8.852000
H          -8.500000     -8.094000    -10.494000
$end

--------------------------------------------------------------

             Standard Nuclear Orientation (Angstroms)
    I     Atom           X                Y                Z
 ----------------------------------------------------------------
    1      C     -10.2544792138    -2.1191958853    -0.3516322845
    2      C      -9.2137590178    -2.0094234051    -1.2546879175
    3      N     -10.1709536967    -1.4805879627     0.7855714831
    4      C      -8.1839546651    -1.0124045550    -1.1028972472
    5      C      -9.0769691864    -0.7170250100     1.0734108627
    6      C      -8.0276176978    -0.3667248688     0.1435607326
    7      C      -6.8342854902     0.5028305270     0.4306019425
    8      C      -6.3131211091     0.4910008123     1.7681881063
    9      C      -5.9926178519     1.2100463024    -0.5350203613
   10      N      -5.3137784075     1.2810875929     2.2776339267
   11      N      -6.1805122201     1.2772450609    -1.8546797996
   12      C      -4.8314694870     1.8077145102    -0.0780628270
   13      C      -4.6299234864     1.9852898414     1.3812435875
   14      S      -5.0042131813     2.1134200475    -2.4750611041
   15      N      -4.1813351962     2.4221607874    -1.0527844161
   16      C      -3.4675100389     2.7272563307     1.9474641327
   17      S      -2.1872640812     3.4235224104     0.8993544848
   18      C      -3.3273343980     3.0363238781     3.2879703956
   19      C      -1.3711691280     4.0134296027     2.3449853270
   20      S      -4.3220585413     2.6774916306     4.6973703732
   21      C      -2.1155584909     3.6912700842     3.5354044637
   22      C      -0.1820538040     4.8141409888     2.3502789189
   23      C      -3.1563797786     3.6577864028     5.5660309410
   24      C      -2.0173607644     4.0985150722     4.8855047290
   25      N       0.3696235343     5.2617500323     3.4503572155
   26      S       0.6722643947     5.0544783827     0.8386872569
   27      C       1.4735205284     6.0376248786     3.1340019577
   28      C       1.7905383889     6.0104887013     1.8019102551
   29      C     -11.5413931780    -2.8413552409    -0.6477763612
   30      H      -9.3112777362    -2.5544484479    -2.1890704956
   31      H      -7.4412457181    -0.9166428513    -1.8891453735
   32      H      -8.9854397493    -0.2268130698     2.0418764614
   33      H      -6.8468209518     0.0066085469     2.5840922742
   34      H      -3.2574987443     3.7547637161     6.6396446310
   35      H      -1.2712628873     4.7828010637     5.2729536154
   36      H       1.9943679440     6.5329126928     3.9430488974
   37      H       2.6146054132     6.5501361530     1.3542774061
   38      H     -12.1335032742    -3.0487732181     0.2523921879
   39      C     -11.2796415377    -4.3171464260    -0.9814025845
   40      H     -12.1254606917    -2.3742504851    -1.4510996376
   41      H     -10.7551951897    -4.8627680472    -0.1873754600
   42      H     -10.5747232102    -4.4464315990    -1.8110992131
   43      C     -12.6093163860    -5.0849488384    -1.3853113036
   44      H     -13.0171951487    -5.5335450431    -0.4702471747
   45      C     -12.5131085921    -6.3173076410    -2.3371105691
   46      H     -13.2667089445    -4.3944429916    -1.9265937619
   47      H     -13.1899178731    -7.1300571401    -2.0486362220
   48      H     -11.5043672396    -6.7467150992    -2.3519132270
   49      C     -12.9976012198    -5.9395867947    -3.8150814267
   50      H     -12.9387870749    -6.8542771175    -4.4167229394
   51      C     -12.2268191288    -4.7145931961    -4.4910153375
   52      H     -14.0437127962    -5.6091673040    -3.7922882329
   53      H     -12.3322965274    -3.7391683358    -4.0002334509
   54      H     -12.4659902421    -4.5079755841    -5.5411602518
   55      H     -11.1458335532    -4.8930494579    -4.4316137550
   56      C       4.5223958630     4.2540285067    -1.1081947819
   57      C       5.4375561777     3.7077897306    -2.0354567717
   58      N       3.6044498612     3.4973556548    -0.5537082328
   59      C       5.5304956759     2.2803156944    -2.1746944311
   60      C       3.6503929543     2.1661873671    -0.7071071317
   61      C       4.7055217060     1.4571971145    -1.4011915207
   62      C       4.9090121137     0.0093214837    -1.2954143410
   63      C       6.2384782577    -0.4931406160    -1.2274907792
   64      C       3.8771433633    -0.9088996407    -1.0877948602
   65      N       6.5711677182    -1.7954004388    -1.0793621977
   66      N       2.5328670421    -0.6669288460    -1.0761198124
   67      C       4.2560925463    -2.2003327793    -0.8252249358
   68      C       5.6318902838    -2.6719014847    -0.8181863609
   69      S       1.8759374807    -2.0995742997    -0.6188621658
   70      N       3.2421223512    -2.9734111997    -0.4870442157
   71      C       6.0041467006    -4.0322814122    -0.6141873095
   72      S       5.0406049448    -5.1920723798     0.4272795389
   73      C       7.3338364288    -4.4962685106    -0.7501402404
   74      C       6.4303208640    -6.3058028900     0.4824793091
   75      S       8.8326229468    -3.7390779544    -1.4198397515
   76      C       7.5417703061    -5.6639088079    -0.0539171161
   77      C       6.4841919053    -7.4867170959     1.2805329096
   78      C       9.7646211608    -5.2332967596    -0.9049431683
   79      C       8.9371872559    -6.0238420294    -0.1225000014
   80      N       7.4803032708    -8.3183155807     1.1116657800
   81      S       5.1326467556    -8.0075393303     2.2438375908
   82      C       7.4028798339    -9.3070417770     2.0308372114
   83      C       6.1391838363    -9.3576893317     2.6365411416
   84      C       4.3638998967     5.8070604601    -0.8783670628
   85      H       6.1771932430     4.3735588960    -2.4717805391
   86      H       6.2183940307     1.8900207123    -2.9191490505
   87      H       2.9795237550     1.5801288827    -0.0807749753
   88      H       7.1175433239     0.1101239890    -1.4535337521
   89      H      10.8337660675    -5.2849861786    -1.0648130297
   90      H       9.3655967159    -6.9228712793     0.3087200613
   91      H       8.2233407621    -9.9759498578     2.2497158184
   92      H       5.6754200947   -10.0935038929     3.2797091784
   93      H       3.2974374310     6.0272344216    -1.0172023460
   94      C       5.1385568366     6.7137672740    -1.8249659108
   95      H       4.7007509923     5.9708291286     0.1522682571
   96      H       4.9553920857     6.5264317544    -2.8900847198
   97      H       6.2029254023     6.4654168943    -1.7155874611
   98      C       4.8786201766     8.1902781712    -1.5945781874
   99      H       3.7944575792     8.3496705291    -1.5666042922
  100      C       5.5667179908     9.0583740177    -2.7164788065
  101      H       5.1561750638     8.4410458297    -0.5635748576
  102      H       5.1225728969     8.6176717090    -3.6171727671
  103      H       6.6468654807     9.0025631992    -2.9036059097
  104      C       5.2499006139    10.5425522479    -2.8009224603
  105      H       4.1544894390    10.5405099085    -2.7358364650
  106      C       5.8487841739    11.1119838751    -4.0711386244
  107      H       5.4837287744    11.0294271810    -1.8457961906
  108      H       5.3878381159    10.6009419533    -4.9249810489
  109      H       6.9334976882    11.0092010711    -4.2032040894
  110      H       5.5797508183    12.1583436760    -4.2610891986
 ----------------------------------------------------------------

   10   -5663.4923214191      4.37E-06 Convergence criterion met
 Total energy in the final basis set = -5663.4923214191

                    Orbital Energies (a.u.)
 --------------------------------------------------------------

 Alpha MOs
 -- Occupied --
-88.988 -88.987 -88.931 -88.928 -88.924 -88.915 -88.913 -88.909
-14.383 -14.382 -14.381 -14.378 -14.350 -14.347 -14.344 -14.333
-14.328 -14.324 -10.269 -10.265 -10.258 -10.257 -10.257 -10.255
-10.252 -10.250 -10.245 -10.244 -10.241 -10.238 -10.238 -10.238
-10.237 -10.235 -10.234 -10.231 -10.231 -10.228 -10.228 -10.228
-10.226 -10.223 -10.221 -10.221 -10.220 -10.218 -10.218 -10.216
-10.214 -10.211 -10.208 -10.205 -10.202 -10.198 -10.195 -10.193
-10.191 -10.189 -10.187 -10.186 -10.184 -10.182 -10.182 -10.182
-10.180 -10.180 -10.178 -10.176  -8.044  -8.042  -7.993  -7.987
 -7.982  -7.976  -7.972  -7.967  -6.009  -6.008  -6.004  -6.002
 -6.001  -6.000  -5.957  -5.954  -5.951  -5.950  -5.948  -5.947
 -5.943  -5.943  -5.940  -5.939  -5.937  -5.937  -5.934  -5.933
 -5.932  -5.929  -5.928  -5.923  -1.048  -1.042  -0.985  -0.965
 -0.961  -0.955  -0.945  -0.938  -0.907  -0.906  -0.901  -0.901
 -0.840  -0.839  -0.834  -0.831  -0.817  -0.814  -0.807  -0.803
 -0.797  -0.796  -0.794  -0.787  -0.786  -0.774  -0.767  -0.756
 -0.753  -0.742  -0.734  -0.734  -0.726  -0.721  -0.711  -0.704
 -0.695  -0.691  -0.673  -0.669  -0.658  -0.653  -0.647  -0.643
 -0.637  -0.629  -0.629  -0.624  -0.615  -0.606  -0.600  -0.595
 -0.594  -0.586  -0.584  -0.582  -0.578  -0.577  -0.570  -0.561
 -0.556  -0.546  -0.542  -0.534  -0.525  -0.519  -0.513  -0.506
 -0.502  -0.501  -0.496  -0.493  -0.485  -0.484  -0.482  -0.479
 -0.474  -0.470  -0.468  -0.465  -0.463  -0.459  -0.456  -0.452
 -0.444  -0.442  -0.440  -0.438  -0.438  -0.430  -0.429  -0.426
 -0.424  -0.422  -0.421  -0.416  -0.415  -0.414  -0.413  -0.410
 -0.408  -0.407  -0.406  -0.403  -0.399  -0.399  -0.395  -0.395
 -0.393  -0.392  -0.391  -0.389  -0.387  -0.385  -0.383  -0.381
 -0.379  -0.377  -0.375  -0.375  -0.374  -0.361  -0.360  -0.359
 -0.354  -0.353  -0.348  -0.347  -0.347  -0.344  -0.342  -0.339
 -0.339  -0.337  -0.335  -0.331  -0.330  -0.327  -0.327  -0.319
 -0.319  -0.312  -0.310  -0.309  -0.308  -0.307  -0.305  -0.305
 -0.295  -0.293  -0.292  -0.286  -0.284  -0.284  -0.283  -0.276
 -0.273  -0.272  -0.264  -0.261  -0.252  -0.251  -0.248  -0.246
 -0.244  -0.240  -0.233  -0.227  -0.194  -0.185

          Ground-State Mulliken Net Atomic Charges

     Atom                 Charge (a.u.)
  ----------------------------------------
      1 C                     0.290021
      2 C                    -0.120187
      3 N                    -0.488531
      4 C                    -0.084345
      5 C                     0.065324
      6 C                     0.045452
      7 C                     0.044418
      8 C                     0.035249
      9 C                     0.204627
     10 N                    -0.495209
     11 N                    -0.540758
     12 C                     0.223471
     13 C                     0.300427
     14 S                     0.596794
     15 N                    -0.572754
     16 C                    -0.231596
     17 S                     0.339516
     18 C                    -0.103335
     19 C                    -0.226363
     20 S                     0.302427
     21 C                     0.129780
     22 C                     0.083514
     23 C                    -0.309220
     24 C                    -0.058523
     25 N                    -0.455368
     26 S                     0.280194
     27 C                     0.122503
     28 C                    -0.300186
     29 C                    -0.223120
     30 H                     0.083026
     31 H                     0.113557
     32 H                     0.097226
     33 H                     0.111937
     34 H                     0.118584
     35 H                     0.132794
     36 H                     0.111874
     37 H                     0.119117
     38 H                     0.127132
     39 C                    -0.204560
     40 H                     0.115859
     41 H                     0.103536
     42 H                     0.092631
     43 C                    -0.177979
     44 H                     0.097565
     45 C                    -0.185045
     46 H                     0.098455
     47 H                     0.094520
     48 H                     0.092774
     49 C                    -0.187569
     50 H                     0.093957
     51 C                    -0.328885
     52 H                     0.098754
     53 H                     0.102184
     54 H                     0.102943
     55 H                     0.100864
     56 C                     0.260601
     57 C                    -0.121544
     58 N                    -0.474549
     59 C                    -0.105900
     60 C                     0.092793
     61 C                     0.041641
     62 C                     0.006776
     63 C                     0.052669
     64 C                     0.262343
     65 N                    -0.525548
     66 N                    -0.570405
     67 C                     0.193758
     68 C                     0.345227
     69 S                     0.598631
     70 N                    -0.558012
     71 C                    -0.235646
     72 S                     0.316551
     73 C                    -0.102035
     74 C                    -0.205353
     75 S                     0.261316
     76 C                     0.140918
     77 C                     0.059078
     78 C                    -0.301483
     79 C                    -0.058147
     80 N                    -0.416755
     81 S                     0.282543
     82 C                     0.126402
     83 C                    -0.314798
     84 C                    -0.223363
     85 H                     0.089522
     86 H                     0.104224
     87 H                     0.117866
     88 H                     0.112450
     89 H                     0.135422
     90 H                     0.120318
     91 H                     0.119568
     92 H                     0.133402
     93 H                     0.121071
     94 C                    -0.183984
     95 H                     0.119170
     96 H                     0.099014
     97 H                     0.096795
     98 C                    -0.188209
     99 H                     0.093945
    100 C                    -0.173250
    101 H                     0.089494
    102 H                     0.091791
    103 H                     0.090827
    104 C                    -0.174367
    105 H                     0.091845
    106 C                    -0.323502
    107 H                     0.093210
    108 H                     0.106618
    109 H                     0.107296
    110 H                     0.102277
  ----------------------------------------
  Sum of atomic charges =     0.000000

                    Cartesian Multipole Moments
 -----------------------------------------------------------------
    Charge (ESU x 10^10)
                 0.0000
    Dipole Moment (Debye)
         X       4.0329      Y      -1.2904      Z      -1.3917
       Tot       4.4572
    Quadrupole Moments (Debye-Ang)
        XX    -437.0597     XY      11.4168     YY    -398.2972
        XZ      19.6613     YZ     -21.8561     ZZ    -433.0677

 Total job time:  86.99s(wall), 1014.88s(cpu)
        *  Thank you very much for using Q-Chem.  Have a nice day.  *
