 Q-Chem 4.4, Q-Chem, Inc., Pleasanton, CA (2016)
 Q-Chem 4.4.2 for Intel X86 Linux

User input:
--------------------------------------------------------------
$comment
SP
$end

$rem
MEM_STATIC 5000
MEM_TOTAL 20000
JOBTYPE SP
EXCHANGE B3LYP
BASIS 6-31g(d,p)
$end

$molecule
0 1
C          -3.929000    -13.240000    -12.815000
C          -4.224000    -11.854000    -12.645000
N          -2.697000    -13.662000    -12.294000
C          -3.394000    -10.916000    -12.051000
C          -1.863000    -12.790000    -11.742000
C          -2.127000    -11.395000    -11.643000
C          -1.208000    -10.450000    -10.977000
C          -1.661000     -9.423000    -10.126000
C           0.186000    -10.552000    -11.088000
N          -0.854000     -8.595000     -9.442000
N           0.768000    -11.245000    -12.114000
C           1.069000     -9.754000    -10.287000
C           0.486000     -8.786000     -9.435000
S           2.411000    -10.905000    -11.959000
N           2.357000     -9.906000    -10.668000
C           1.181000     -7.965000     -8.457000
S           0.264000     -6.829000     -7.487000
C           2.309000     -8.290000     -7.723000
C           1.647000     -6.522000     -6.369000
S           3.537000     -9.565000     -7.928000
C           2.519000     -7.566000     -6.553000
C           1.561000     -5.936000     -5.070000
C           4.313000     -9.056000     -6.414000
C           3.691000     -8.006000     -5.835000
N           2.640000     -5.239000     -4.785000
S           0.174000     -5.853000     -4.038000
C           2.407000     -4.672000     -3.560000
C           1.165000     -4.972000     -2.994000
C          -4.857000    -14.333000    -13.374000
H          -5.194000    -11.538000    -13.017000
H          -3.717000     -9.888000    -11.919000
H          -0.915000    -13.148000    -11.343000
H          -2.719000     -9.267000     -9.922000
H           5.237000     -9.546000     -6.139000
H           4.057000     -7.496000     -4.952000
H           3.235000     -4.155000     -3.095000
H           0.789000     -4.809000     -1.994000
H          -4.254000    -15.248000    -13.421000
C          -5.366000    -13.944000    -14.720000
H          -5.576000    -14.546000    -12.574000
H          -4.556000    -14.037000    -15.454000
H          -5.743000    -12.917000    -14.812000
C          -6.382000    -14.963000    -15.199000
H          -5.920000    -15.944000    -15.369000
C          -7.320000    -14.646000    -16.289000
H          -7.103000    -15.037000    -14.376000
H          -7.654000    -13.640000    -16.008000
H          -8.245000    -15.234000    -16.225000
C          -6.638000    -14.429000    -17.673000
H          -5.787000    -13.740000    -17.617000
C          -7.700000    -14.153000    -18.699000
H          -6.216000    -15.393000    -17.984000
H          -8.357000    -13.307000    -18.462000
H          -8.382000    -14.995000    -18.870000
H          -7.136000    -13.947000    -19.616000
C           5.964000    -14.236000    -17.412000
C           6.841000    -13.705000    -16.485000
N           4.913000    -14.991000    -17.006000
C           6.583000    -13.783000    -15.149000
C           4.749000    -15.179000    -15.690000
C           5.436000    -14.476000    -14.713000
C           4.943000    -14.327000    -13.331000
C           5.803000    -14.307000    -12.204000
C           3.567000    -14.335000    -12.961000
N           5.376000    -14.194000    -10.921000
N           2.587000    -14.275000    -13.867000
C           3.135000    -14.305000    -11.659000
C           4.064000    -14.192000    -10.607000
S           1.165000    -14.430000    -13.063000
N           1.785000    -14.295000    -11.595000
C           3.595000    -14.142000     -9.140000
S           1.926000    -14.083000     -8.594000
C           4.393000    -13.923000     -8.031000
C           2.383000    -14.101000     -6.858000
S           6.101000    -13.568000     -7.972000
C           3.712000    -13.712000     -6.847000
C           1.544000    -14.286000     -5.720000
C           5.916000    -13.269000     -6.165000
C           4.569000    -13.341000     -5.773000
N           0.269000    -14.313000     -6.012000
S           2.114000    -14.749000     -4.085000
C          -0.458000    -14.609000     -4.946000
C           0.383000    -14.824000     -3.844000
C           6.174000    -14.070000    -18.923000
H           7.725000    -13.185000    -16.845000
H           7.284000    -13.425000    -14.400000
H           4.013000    -15.900000    -15.336000
H           6.881000    -14.246000    -12.345000
H           6.828000    -13.079000     -5.616000
H           4.285000    -13.256000     -4.730000
H          -1.536000    -14.703000     -4.962000
H           0.067000    -15.017000     -2.827000
H           5.346000    -13.529000    -19.398000
C           6.592000    -15.284000    -19.692000
H           6.935000    -13.295000    -19.078000
H           5.806000    -16.037000    -19.828000
H           7.338000    -15.833000    -19.104000
C           7.138000    -14.779000    -20.999000
H           6.379000    -14.250000    -21.589000
C           7.524000    -16.010000    -21.872000
H           7.978000    -14.087000    -20.860000
H           6.583000    -16.496000    -22.155000
H           8.085000    -16.767000    -21.311000
C           8.188000    -15.506000    -23.188000
H           7.532000    -14.806000    -23.721000
C           8.509000    -16.745000    -24.083000
H           9.097000    -14.938000    -22.955000
H           7.600000    -16.969000    -24.655000
H           8.803000    -17.603000    -23.465000
H           9.270000    -16.455000    -24.820000
$end

--------------------------------------------------------------

             Standard Nuclear Orientation (Angstroms)
    I     Atom           X                Y                Z
 ----------------------------------------------------------------
    1      C       1.0980082468     5.9537510728    -0.6834381994
    2      C       0.3196522839     6.2177877130     0.4833384063
    3      N       1.0076586663     4.6469345318    -1.1848526802
    4      C      -0.4687773703     5.2975974867     1.1565461216
    5      C       0.2849844404     3.7301405820    -0.5540794905
    6      C      -0.4286269513     3.9764515685     0.6524078404
    7      C      -1.2699587372     2.9558066821     1.3093605343
    8      C      -2.5329358104     3.2519313627     1.8583032326
    9      C      -0.9025728681     1.6040507534     1.3705531186
   10      N      -3.3596401796     2.3378705515     2.3928513776
   11      N       0.3983205164     1.2134748457     1.2069198012
   12      C      -1.8090739207     0.5941319731     1.8357561911
   13      C      -3.0693484970     1.0177809899     2.3205721386
   14      S       0.3836235091    -0.4295932382     1.5799952221
   15      N      -1.1965398550    -0.6050441466     1.9540255972
   16      C      -4.1741379042     0.1611137411     2.7194600807
   17      S      -5.6641012829     0.8926857944     3.2825732674
   18      C      -4.5122675148    -1.0813163361     2.2107353322
   19      C      -6.5681745072    -0.6675421565     3.2104459737
   20      S      -3.5979943968    -2.2565698586     1.2316960973
   21      C      -5.8267161804    -1.4956237697     2.4050290682
   22      C      -7.9882530135    -0.8142414597     3.2034209939
   23      C      -5.0387011163    -3.2900962868     1.1335112178
   24      C      -6.0954105786    -2.7788275948     1.8017884334
   25      N      -8.3594853164    -1.9246842792     3.8037361795
   26      S      -9.1701036707     0.3652730300     2.7477274646
   27      C      -9.7292481680    -1.9135495912     3.7983743571
   28      C     -10.3110633318    -0.7942439711     3.1970707365
   29      C       1.9039935962     6.9635827516    -1.5194654699
   30      H       0.3634146822     7.2397862689     0.8476786378
   31      H      -1.0682304590     5.5948786816     2.0114244086
   32      H       0.2310536740     2.7248074187    -0.9693693930
   33      H      -2.9516576049     4.2566226472     1.8341478660
   34      H      -4.9305319206    -4.2499776858     0.6472724647
   35      H      -7.0386528640    -3.2957620640     1.9314716841
   36      H     -10.2268980406    -2.8099380334     4.1417842651
   37      H     -11.3341172126    -0.6033149298     2.9057773137
   38      H       2.4255724003     6.3759478302    -2.2847652480
   39      C       2.8627912581     7.7071053042    -0.6534404949
   40      H       1.1612449975     7.5266584874    -2.0970468364
   41      H       3.6889950101     7.0417044271    -0.3739158393
   42      H       2.4553121566     8.0977084865     0.2882133352
   43      C       3.5521116850     8.7893813815    -1.4618796340
   44      H       4.1884123915     8.3623250085    -2.2476590339
   45      C       4.2426473710     9.9087652336    -0.7996309965
   46      H       2.7304450251     9.3507318515    -1.9227435507
   47      H       3.5173677128    10.1900572521    -0.0267162420
   48      H       4.2812277782    10.8054141115    -1.4320844272
   49      C       5.4999339478     9.4869139367     0.0182571053
   50      H       5.2999153506     8.6418424051     0.6875139077
   51      C       6.1302958191    10.7166690566     0.6073600303
   52      H       6.2487433665     9.1245669387    -0.6973476093
   53      H       5.4588932472    11.3231108167     1.2278283842
   54      H       6.5243614200    11.4156461082    -0.1406188354
   55      H       6.9555052542    10.3270523253     1.2145249098
   56      C       7.2250039382    -2.9566393784     1.0660588158
   57      C       6.3163317909    -3.9841051633     1.2364935234
   58      N       7.0071094783    -1.9979399491     0.1317786605
   59      C       5.1125404866    -3.9703172570     0.5975566021
   60      C       5.8823327676    -2.0733801281    -0.5916037628
   61      C       4.8264047897    -2.9223672265    -0.3001522018
   62      C       3.4486923224    -2.6849414688    -0.7699514855
   63      C       2.5717638999    -3.7331778217    -1.1472127880
   64      C       2.8985510836    -1.3977213165    -1.0359381331
   65      N       1.3082820033    -3.5430248299    -1.6039866235
   66      N       3.5250543261    -0.2708473858    -0.6859598031
   67      C       1.6519211340    -1.2063193662    -1.5763149111
   68      C       0.8143947768    -2.3086833172    -1.8329417228
   69      S       2.6407693699     0.9832736901    -1.2671185104
   70      N       1.3720878554     0.1102985109    -1.6984079159
   71      C      -0.5941090904    -2.1104329524    -2.4257010744
   72      S      -1.3770024111    -0.5663494973    -2.7257716196
   73      C      -1.5480510437    -3.0938228463    -2.6195697575
   74      C      -2.8478215632    -1.3275501798    -3.4186883122
   75      S      -1.4726528489    -4.7835587111    -2.1884342576
   76      C      -2.8050200076    -2.6357206798    -2.9664262536
   77      C      -3.9239045453    -0.7069981174    -4.1187958422
   78      C      -3.2431729743    -4.9249372701    -2.6723201829
   79      C      -3.7815754918    -3.6703948666    -3.0032326895
   80      N      -3.8578322169     0.5996148909    -4.1226551225
   81      S      -5.1003541658    -1.5626295576    -5.1658656245
   82      C      -4.8050739384     1.1225607525    -4.8853881995
   83      C      -5.5646164980     0.0967670086    -5.4674125076
   84      C       8.5407707825    -2.8915234708     1.8530115017
   85      H       6.5641795434    -4.7875085036     1.9253843452
   86      H       4.4067759553    -4.7932368485     0.6701222434
   87      H       5.7477084504    -1.4151252924    -1.4491758382
   88      H       2.8467977148    -4.7681718361    -0.9501600266
   89      H      -3.6658284317    -5.9200608217    -2.6539767541
   90      H      -4.7956301063    -3.5779330919    -3.3758907888
   91      H      -4.9259467003     2.1856288999    -5.0480285679
   92      H      -6.4445432109     0.2245051101    -6.0845072794
   93      H       8.6056771886    -1.9900283404     2.4750916319
   94      C       9.8028302023    -3.1685188904     1.0977893103
   95      H       8.4789570869    -3.6099185570     2.6799689172
   96      H      10.1116175740    -2.3732340261     0.4082435586
   97      H       9.6269548017    -4.0096515059     0.4157154384
   98      C      10.8490289369    -3.4694970940     2.1352238040
   99      H      11.0329386937    -2.6152792877     2.7989339371
  100      C      12.2060012788    -3.6964001756     1.4047259909
  101      H      10.5717621090    -4.3186342508     2.7723063693
  102      H      12.5096872771    -2.7214143580     1.0060488408
  103      H      12.1111693232    -4.3513429325     0.5303417016
  104      C      13.2797575577    -4.1118496529     2.4541149490
  105      H      13.3579775579    -3.3686536200     3.2578352288
  106      C      14.6492243000    -4.2708850956     1.7203196304
  107      H      12.9813696652    -5.0461248264     2.9453262740
  108      H      15.1071250820    -3.2746913456     1.6807483479
  109      H      14.5023884309    -4.6737107357     0.7100252519
  110      H      15.3102905986    -4.8863444849     2.3452925011
 ----------------------------------------------------------------

   10   -5663.4720646358      4.17E-06 Convergence criterion met
 Total energy in the final basis set = -5663.4720646358

                    Orbital Energies (a.u.)
 --------------------------------------------------------------

 Alpha MOs
 -- Occupied --
-88.985 -88.982 -88.937 -88.932 -88.915 -88.913 -88.906 -88.899
-14.383 -14.378 -14.372 -14.366 -14.348 -14.344 -14.343 -14.340
-14.327 -14.325 -10.266 -10.265 -10.261 -10.260 -10.255 -10.250
-10.245 -10.244 -10.239 -10.238 -10.235 -10.234 -10.234 -10.233
-10.233 -10.231 -10.231 -10.230 -10.229 -10.227 -10.226 -10.225
-10.223 -10.222 -10.222 -10.219 -10.218 -10.216 -10.211 -10.209
-10.208 -10.207 -10.205 -10.204 -10.202 -10.198 -10.192 -10.191
-10.190 -10.183 -10.180 -10.177 -10.177 -10.175 -10.174 -10.174
-10.172 -10.171 -10.169 -10.169  -8.039  -8.037  -7.997  -7.994
 -7.973  -7.972  -7.965  -7.959  -6.004  -6.002  -5.999  -5.997
 -5.997  -5.995  -5.960  -5.958  -5.957  -5.954  -5.954  -5.951
 -5.937  -5.936  -5.934  -5.933  -5.930  -5.929  -5.929  -5.926
 -5.924  -5.921  -5.920  -5.915  -1.037  -1.020  -0.983  -0.979
 -0.953  -0.950  -0.937  -0.926  -0.909  -0.907  -0.893  -0.892
 -0.838  -0.832  -0.829  -0.826  -0.824  -0.819  -0.813  -0.811
 -0.807  -0.804  -0.794  -0.794  -0.786  -0.783  -0.767  -0.767
 -0.748  -0.748  -0.739  -0.733  -0.720  -0.715  -0.714  -0.706
 -0.692  -0.689  -0.671  -0.669  -0.652  -0.650  -0.641  -0.639
 -0.629  -0.629  -0.621  -0.619  -0.609  -0.607  -0.600  -0.600
 -0.591  -0.591  -0.585  -0.584  -0.578  -0.574  -0.572  -0.562
 -0.545  -0.540  -0.538  -0.537  -0.525  -0.522  -0.518  -0.513
 -0.508  -0.506  -0.499  -0.497  -0.486  -0.482  -0.474  -0.472
 -0.471  -0.470  -0.469  -0.464  -0.463  -0.457  -0.450  -0.449
 -0.443  -0.440  -0.439  -0.438  -0.433  -0.432  -0.432  -0.431
 -0.429  -0.426  -0.422  -0.421  -0.419  -0.415  -0.414  -0.414
 -0.407  -0.406  -0.404  -0.403  -0.400  -0.398  -0.396  -0.394
 -0.392  -0.389  -0.388  -0.388  -0.386  -0.384  -0.384  -0.383
 -0.380  -0.378  -0.374  -0.374  -0.368  -0.363  -0.358  -0.354
 -0.351  -0.348  -0.347  -0.344  -0.342  -0.341  -0.339  -0.338
 -0.336  -0.333  -0.331  -0.330  -0.322  -0.321  -0.320  -0.317
 -0.317  -0.305  -0.305  -0.302  -0.301  -0.297  -0.296  -0.294
 -0.291  -0.290  -0.289  -0.288  -0.286  -0.285  -0.282  -0.280
 -0.272  -0.272  -0.265  -0.262  -0.251  -0.245  -0.245  -0.243
 -0.238  -0.236  -0.228  -0.228  -0.191  -0.188

          Ground-State Mulliken Net Atomic Charges

     Atom                 Charge (a.u.)
  ----------------------------------------
      1 C                     0.242488
      2 C                    -0.125888
      3 N                    -0.500628
      4 C                    -0.066638
      5 C                     0.107413
      6 C                     0.030173
      7 C                     0.046191
      8 C                     0.061677
      9 C                     0.180191
     10 N                    -0.517528
     11 N                    -0.560430
     12 C                     0.239497
     13 C                     0.302493
     14 S                     0.608873
     15 N                    -0.548630
     16 C                    -0.221814
     17 S                     0.302051
     18 C                    -0.121991
     19 C                    -0.209020
     20 S                     0.280237
     21 C                     0.127960
     22 C                     0.013215
     23 C                    -0.315558
     24 C                    -0.032740
     25 N                    -0.391674
     26 S                     0.305976
     27 C                     0.106359
     28 C                    -0.311315
     29 C                    -0.218258
     30 H                     0.075964
     31 H                     0.107509
     32 H                     0.124528
     33 H                     0.109337
     34 H                     0.133877
     35 H                     0.110689
     36 H                     0.110233
     37 H                     0.135630
     38 H                     0.130738
     39 C                    -0.182702
     40 H                     0.120341
     41 H                     0.110232
     42 H                     0.096671
     43 C                    -0.172210
     44 H                     0.089419
     45 C                    -0.178154
     46 H                     0.082159
     47 H                     0.084406
     48 H                     0.092293
     49 C                    -0.176524
     50 H                     0.098853
     51 C                    -0.310876
     52 H                     0.092760
     53 H                     0.098246
     54 H                     0.105031
     55 H                     0.095226
     56 C                     0.260874
     57 C                    -0.114073
     58 N                    -0.489270
     59 C                    -0.068753
     60 C                     0.105076
     61 C                     0.033318
     62 C                     0.054854
     63 C                     0.048782
     64 C                     0.200511
     65 N                    -0.534685
     66 N                    -0.567841
     67 C                     0.219158
     68 C                     0.319364
     69 S                     0.650931
     70 N                    -0.580706
     71 C                    -0.217590
     72 S                     0.350879
     73 C                    -0.108819
     74 C                    -0.210249
     75 S                     0.264586
     76 C                     0.109603
     77 C                     0.066258
     78 C                    -0.315325
     79 C                    -0.076226
     80 N                    -0.414108
     81 S                     0.279233
     82 C                     0.140325
     83 C                    -0.315057
     84 C                    -0.224364
     85 H                     0.084956
     86 H                     0.096149
     87 H                     0.103898
     88 H                     0.108240
     89 H                     0.131015
     90 H                     0.110379
     91 H                     0.123383
     92 H                     0.117920
     93 H                     0.114842
     94 C                    -0.157422
     95 H                     0.089314
     96 H                     0.112431
     97 H                     0.093362
     98 C                    -0.178032
     99 H                     0.096570
    100 C                    -0.181625
    101 H                     0.092210
    102 H                     0.095382
    103 H                     0.092030
    104 C                    -0.180976
    105 H                     0.092974
    106 C                    -0.318981
    107 H                     0.091603
    108 H                     0.104723
    109 H                     0.105554
    110 H                     0.097058
  ----------------------------------------
  Sum of atomic charges =     0.000000

                    Cartesian Multipole Moments
 -----------------------------------------------------------------
    Charge (ESU x 10^10)
                 0.0000
    Dipole Moment (Debye)
         X      -3.6746      Y       0.0545      Z      -1.5063
       Tot       3.9718
    Quadrupole Moments (Debye-Ang)
        XX    -389.0506     XY       0.7120     YY    -404.7865
        XZ      26.8614     YZ      -0.0026     ZZ    -447.8303

 Total job time:  93.18s(wall), 1096.09s(cpu)
        *  Thank you very much for using Q-Chem.  Have a nice day.  *
