 Q-Chem 4.4, Q-Chem, Inc., Pleasanton, CA (2016)
 Q-Chem 4.4.2 for Intel X86 Linux

User input:
--------------------------------------------------------------
$comment
SP
$end

$rem
MEM_STATIC 5000
MEM_TOTAL 20000
JOBTYPE SP
EXCHANGE B3LYP
BASIS 6-31g(d,p)
$end

$molecule
0 1
C          10.259000     -2.606000      3.818000
C          11.579000     -2.937000      4.006000
N           9.780000     -1.310000      3.648000
C          12.498000     -1.897000      3.968000
C          10.673000     -0.337000      3.667000
C          12.101000     -0.566000      3.784000
C          13.124000      0.484000      3.651000
C          14.274000      0.470000      4.478000
C          13.047000      1.604000      2.812000
N          15.246000      1.389000      4.517000
N          11.998000      1.870000      2.010000
C          14.069000      2.534000      2.714000
C          15.167000      2.447000      3.602000
S          12.345000      3.133000      1.025000
N          13.762000      3.504000      1.763000
C          16.147000      3.503000      3.761000
S          16.378000      4.816000      2.557000
C          16.786000      3.858000      4.971000
C          17.449000      5.718000      3.582000
S          16.583000      3.210000      6.593000
C          17.546000      5.040000      4.747000
C          18.057000      6.981000      3.299000
C          17.821000      4.535000      7.067000
C          18.234000      5.303000      5.994000
N          17.853000      7.444000      2.073000
S          18.900000      7.962000      4.425000
C          18.514000      8.700000      1.944000
C          19.254000      9.013000      3.014000
C           9.206000     -3.648000      3.878000
H          11.879000     -3.964000      4.189000
H          13.568000     -2.062000      4.044000
H          10.391000      0.714000      3.635000
H          14.346000     -0.337000      5.207000
H          18.073000      4.680000      8.108000
H          18.983000      6.075000      6.128000
H          18.528000      9.348000      1.079000
H          19.852000      9.884000      3.250000
H           8.570000     -3.580000      2.987000
C           8.423000     -3.562000      5.190000
H           9.665000     -4.645000      3.865000
H           7.954000     -2.576000      5.294000
H           8.996000     -3.843000      6.082000
C           7.265000     -4.609000      5.056000
H           6.587000     -4.159000      4.320000
C           6.616000     -4.847000      6.453000
H           7.659000     -5.550000      4.654000
H           5.623000     -5.259000      6.236000
H           6.342000     -3.945000      7.014000
C           7.268000     -5.971000      7.338000
H           6.821000     -6.906000      6.977000
C           7.059000     -5.756000      8.825000
H           8.344000     -6.058000      7.147000
H           5.981000     -5.669000      9.009000
H           7.470000     -4.893000      9.363000
H           7.482000     -6.619000      9.354000
C           5.424000    -10.508000      7.455000
C           6.620000    -10.170000      8.104000
N           5.389000    -10.714000      6.116000
C           7.788000    -10.117000      7.344000
C           6.587000    -10.580000      5.364000
C           7.861000    -10.315000      5.952000
C           9.147000    -10.008000      5.207000
C           9.880000     -8.895000      5.532000
C           9.587000    -10.834000      4.148000
N          11.042000     -8.611000      4.972000
N           8.973000    -11.904000      3.736000
C          10.732000    -10.442000      3.509000
C          11.512000     -9.325000      3.957000
S           9.896000    -12.398000      2.486000
N          11.092000    -11.285000      2.516000
C          12.761000     -8.843000      3.251000
S          13.601000     -9.696000      1.972000
C          13.382000     -7.641000      3.582000
C          14.500000     -8.129000      1.627000
S          13.163000     -6.419000      4.826000
C          14.311000     -7.295000      2.635000
C          15.445000     -7.879000      0.587000
C          14.411000     -5.464000      4.049000
C          14.929000     -6.044000      2.934000
N          15.160000     -8.290000     -0.576000
S          17.192000     -7.573000      0.865000
C          16.260000     -8.183000     -1.411000
C          17.424000     -7.734000     -0.802000
C           4.070000    -10.654000      8.182000
H           6.597000     -9.996000      9.175000
H           8.724000    -10.000000      7.881000
H           6.408000    -10.703000      4.297000
H           9.581000     -8.167000      6.286000
H          14.643000     -4.495000      4.470000
H          15.599000     -5.507000      2.270000
H          16.070000     -8.253000     -2.474000
H          18.367000     -7.482000     -1.268000
H           3.356000     -9.866000      7.912000
C           4.071000    -10.564000      9.724000
H           3.623000    -11.598000      7.847000
H           4.739000     -9.741000     10.007000
H           4.483000    -11.508000     10.101000
C           2.695000    -10.196000     10.368000
H           2.877000     -9.862000     11.398000
C           1.596000    -11.238000     10.227000
H           2.341000     -9.275000      9.889000
H           1.860000    -12.179000     10.724000
H           1.375000    -11.344000      9.158000
C           0.344000    -10.744000     10.950000
H           0.468000    -10.491000     12.010000
C          -0.729000    -11.859000     10.960000
H          -0.160000     -9.908000     10.451000
H          -0.213000    -12.807000     11.161000
H          -1.217000    -11.895000      9.979000
H          -1.554000    -11.628000     11.644000
$end

--------------------------------------------------------------

             Standard Nuclear Orientation (Angstroms)
    I     Atom           X                Y                Z
 ----------------------------------------------------------------
    1      C       0.1236685135    -1.3581193370     1.6384158858
    2      C       0.5521614363    -0.4722807015     0.6797768886
    3      N       0.9440899117    -2.2556380749     2.3161517079
    4      C       1.9149660679    -0.4442014374     0.4159965042
    5      C       2.2281309170    -2.2401034321     2.0070621229
    6      C       2.8116934317    -1.3019612130     1.0664995422
    7      C       4.2564742211    -1.1606757587     0.8228504278
    8      C       4.7398356689    -0.9166742637    -0.4861377238
    9      C       5.2704861030    -1.3320150270     1.7750440838
   10      N       6.0201541241    -0.8346885160    -0.8668331275
   11      N       5.0441451153    -1.6639207102     3.0607226497
   12      C       6.6109054221    -1.1466520482     1.4785569591
   13      C       6.9955389486    -0.9303002245     0.1343226273
   14      S       6.4343676256    -1.5670435322     3.9231026033
   15      N       7.3945498345    -1.3149378838     2.6174736868
   16      C       8.3714023336    -0.9859906454    -0.3181323681
   17      S       9.7756942559    -0.8623064753     0.7952464637
   18      C       8.8071529310    -1.4758200607    -1.5705837886
   19      C      10.9280678658    -1.2745914528    -0.4349267600
   20      S       7.8888142022    -2.1802953063    -2.8943532577
   21      C      10.2295689216    -1.5160057694    -1.5663578682
   22      C      12.3424955290    -1.4185308291    -0.2813108699
   23      C       9.5727704121    -2.4021816330    -3.6868196238
   24      C      10.6111089030    -1.9471394017    -2.8952946740
   25      N      12.8169785732    -1.0922637343     0.9134596619
   26      S      13.4157881581    -2.0720225985    -1.4483059169
   27      C      14.2286548918    -1.2878833604     0.9124935936
   28      C      14.7100428531    -1.6125408605    -0.2930486655
   29      C      -1.3186906054    -1.4804433172     1.9590558957
   30      H      -0.1502806914     0.1621716931     0.1484923921
   31      H       2.3595990151     0.2618742905    -0.2780205047
   32      H       2.9342348381    -2.9628493585     2.4122837640
   33      H       3.9970270290    -0.8542890357    -1.2812587258
   34      H       9.6521247607    -2.9208795482    -4.6317351544
   35      H      11.6319255836    -1.9779204315    -3.2585120095
   36      H      14.9127465522    -1.1335307596     1.7350012682
   37      H      15.7105217117    -1.8483533131    -0.6327184179
   38      H      -1.4626243790    -1.3996049384     3.0433756020
   39      C      -1.9066169364    -2.7614545037     1.3630844455
   40      H      -1.8751184952    -0.6517885693     1.5023521492
   41      H      -1.3802751630    -3.6424533411     1.7500965720
   42      H      -1.9713379369    -2.7668547100     0.2682164033
   43      C      -3.3779322049    -2.8348246496     1.8969170057
   44      H      -3.2602832488    -3.0747383372     2.9610975100
   45      C      -4.1703569608    -3.9069932090     1.0894694308
   46      H      -3.8580599733    -1.8537759851     1.8002637913
   47      H      -5.0185482488    -4.1735306617     1.7316620228
   48      H      -3.6828423755    -4.8839588475     0.9833154367
   49      C      -4.8773000132    -3.4048496096    -0.2219375717
   50      H      -5.8249728323    -2.9697175327     0.1200146230
   51      C      -5.0723951351    -4.5012842758    -1.2519103462
   52      H      -4.3200380033    -2.5842694939    -0.6887708676
   53      H      -5.6295650450    -5.3190910846    -0.7783465015
   54      H      -4.2336482951    -5.0211465434    -1.7308476710
   55      H      -5.6323503871    -4.0774787852    -2.0947496084
   56      C      -9.6159836343    -2.1627372847    -0.2426380736
   57      C      -8.7897593478    -1.9783078815    -1.3603143342
   58      N      -9.5739316798    -1.3065362345     0.8069968128
   59      C      -7.9700140717    -0.8506582391    -1.3928253526
   60      C      -8.6729303154    -0.2086424249     0.7683998667
   61      C      -7.8525960240     0.0982491563    -0.3593918728
   62      C      -6.7630794505     1.1531366696    -0.4162774613
   63      C      -5.5058769523     0.8191601247    -0.8516905365
   64      C      -7.0114863853     2.4767292882     0.0123874134
   65      N      -4.5354156548     1.7039752005    -0.9924284192
   66      N      -8.1528831175     2.9107897421     0.4600982823
   67      C      -5.9488702528     3.3380211499    -0.0327045347
   68      C      -4.6834638317     2.9604759946    -0.5921678894
   69      S      -7.8306649680     4.4628315663     0.8419446389
   70      N      -6.2667105034     4.5836052836     0.3841836291
   71      C      -3.4784581700     3.8757851795    -0.6226875769
   72      S      -3.4898311525     5.5868561836    -0.2469793467
   73      C      -2.2117196358     3.4212164160    -0.9815005160
   74      C      -1.6559495001     5.4940743310    -0.1421718435
   75      S      -1.5499110849     1.9145090668    -1.5984473579
   76      C      -1.2533821139     4.3503261367    -0.6685942666
   77      C      -0.7510799383     6.5380995962     0.2160841012
   78      C       0.0522498194     2.6146897434    -1.4716189020
   79      C       0.0571174555     3.8857942443    -0.9897281948
   80      N      -1.0446213240     7.2497749092     1.2211048491
   81      S       0.4175290792     7.2923859258    -0.9189639581
   82      C      -0.2056460376     8.3492561866     1.2981463291
   83      C       0.7001977074     8.4769530261     0.2538673305
   84      C     -10.6088156975    -3.3361521485    -0.0993095986
   85      H      -8.8440912717    -2.6996028573    -2.1694049347
   86      H      -7.4486323994    -0.6433947742    -2.3219954167
   87      H      -8.6895005329     0.3581420531     1.6979910583
   88      H      -5.2070827461    -0.1898810997    -1.1353431935
   89      H       0.8983780394     1.9941279240    -1.7342899199
   90      H       0.9793394025     4.3899304743    -0.7185855348
   91      H      -0.1857878310     8.8783680141     2.2418705079
   92      H       1.5072800758     9.1900055805     0.1534526641
   93      H     -10.3153943905    -4.0474488896     0.6827395576
   94      C     -10.7990048710    -4.2669994600    -1.3171833034
   95      H     -11.5682776241    -2.9110519367     0.2198966377
   96      H      -9.8069628975    -4.4606134214    -1.7438076780
   97      H     -11.4050382291    -3.7192571427    -2.0491060606
   98      C     -11.3708283029    -5.6837543995    -0.9864879688
   99      H     -11.1742720097    -6.3413272843    -1.8435431157
  100      C     -12.8042182079    -5.7193892523    -0.4789748779
  101      H     -10.7339752203    -6.1248791453    -0.2100698406
  102      H     -13.5102628973    -5.3333445825    -1.2237274606
  103      H     -12.8298319717    -5.1865597644     0.4792916153
  104      C     -13.2182457916    -7.1727962938    -0.2543460022
  105      H     -13.1249492925    -7.8396574902    -1.1201270993
  106      C     -14.7226125894    -7.2394582362     0.1021518564
  107      H     -12.7302625646    -7.6492202813     0.6040277825
  108      H     -15.2442082667    -6.5245785852    -0.5476527558
  109      H     -14.8539995930    -6.9596141567     1.1539245250
  110      H     -15.1080312532    -8.2650421070     0.0637828910
 ----------------------------------------------------------------

    9   -5663.4906745070      7.10E-06 Convergence criterion met
 Total energy in the final basis set = -5663.4906745070

                    Orbital Energies (a.u.)
 --------------------------------------------------------------

 Alpha MOs
 -- Occupied --
-88.993 -88.988 -88.927 -88.927 -88.925 -88.918 -88.916 -88.916
-14.392 -14.384 -14.379 -14.369 -14.353 -14.347 -14.345 -14.345
-14.330 -14.328 -10.269 -10.268 -10.263 -10.262 -10.253 -10.253
-10.251 -10.248 -10.246 -10.240 -10.237 -10.236 -10.235 -10.235
-10.234 -10.234 -10.233 -10.233 -10.232 -10.232 -10.231 -10.230
-10.229 -10.229 -10.224 -10.222 -10.221 -10.220 -10.219 -10.210
-10.209 -10.208 -10.208 -10.205 -10.204 -10.202 -10.198 -10.190
-10.186 -10.184 -10.181 -10.180 -10.180 -10.176 -10.175 -10.175
-10.173 -10.173 -10.172 -10.169  -8.047  -8.045  -7.989  -7.987
 -7.985  -7.977  -7.976  -7.974  -6.012  -6.010  -6.007  -6.005
 -6.004  -6.002  -5.953  -5.951  -5.950  -5.950  -5.948  -5.946
 -5.945  -5.944  -5.942  -5.941  -5.940  -5.939  -5.937  -5.937
 -5.936  -5.933  -5.932  -5.930  -1.054  -1.025  -0.985  -0.970
 -0.965  -0.949  -0.932  -0.923  -0.920  -0.916  -0.907  -0.884
 -0.849  -0.836  -0.834  -0.829  -0.819  -0.812  -0.810  -0.808
 -0.804  -0.803  -0.798  -0.797  -0.783  -0.781  -0.769  -0.767
 -0.751  -0.749  -0.743  -0.739  -0.732  -0.718  -0.713  -0.710
 -0.696  -0.693  -0.680  -0.678  -0.657  -0.652  -0.645  -0.640
 -0.639  -0.633  -0.625  -0.619  -0.614  -0.606  -0.604  -0.597
 -0.595  -0.590  -0.585  -0.580  -0.579  -0.573  -0.566  -0.565
 -0.549  -0.545  -0.545  -0.539  -0.526  -0.521  -0.521  -0.515
 -0.506  -0.504  -0.502  -0.498  -0.489  -0.487  -0.482  -0.478
 -0.475  -0.470  -0.467  -0.464  -0.463  -0.458  -0.456  -0.452
 -0.449  -0.447  -0.446  -0.442  -0.439  -0.436  -0.434  -0.433
 -0.432  -0.425  -0.423  -0.421  -0.421  -0.417  -0.414  -0.412
 -0.411  -0.408  -0.406  -0.403  -0.402  -0.401  -0.399  -0.396
 -0.395  -0.392  -0.391  -0.389  -0.387  -0.386  -0.385  -0.377
 -0.376  -0.374  -0.372  -0.371  -0.365  -0.362  -0.359  -0.357
 -0.356  -0.353  -0.352  -0.351  -0.343  -0.342  -0.339  -0.338
 -0.336  -0.335  -0.331  -0.331  -0.328  -0.327  -0.326  -0.324
 -0.322  -0.319  -0.306  -0.303  -0.302  -0.301  -0.300  -0.297
 -0.295  -0.294  -0.288  -0.287  -0.285  -0.285  -0.283  -0.280
 -0.278  -0.274  -0.267  -0.262  -0.259  -0.255  -0.252  -0.251
 -0.249  -0.240  -0.239  -0.228  -0.202  -0.196

          Ground-State Mulliken Net Atomic Charges

     Atom                 Charge (a.u.)
  ----------------------------------------
      1 C                     0.255092
      2 C                    -0.103422
      3 N                    -0.493468
      4 C                    -0.090877
      5 C                     0.125344
      6 C                     0.029279
      7 C                     0.048520
      8 C                     0.058745
      9 C                     0.222274
     10 N                    -0.513150
     11 N                    -0.578100
     12 C                     0.236103
     13 C                     0.254334
     14 S                     0.624077
     15 N                    -0.573478
     16 C                    -0.228819
     17 S                     0.357182
     18 C                    -0.110710
     19 C                    -0.186283
     20 S                     0.271950
     21 C                     0.117866
     22 C                     0.077215
     23 C                    -0.298529
     24 C                    -0.083412
     25 N                    -0.454327
     26 S                     0.261374
     27 C                     0.123283
     28 C                    -0.291226
     29 C                    -0.227342
     30 H                     0.101521
     31 H                     0.084632
     32 H                     0.111619
     33 H                     0.105704
     34 H                     0.127420
     35 H                     0.115349
     36 H                     0.123631
     37 H                     0.128248
     38 H                     0.114261
     39 C                    -0.168643
     40 H                     0.100626
     41 H                     0.119179
     42 H                     0.096076
     43 C                    -0.184802
     44 H                     0.097382
     45 C                    -0.191100
     46 H                     0.090966
     47 H                     0.089724
     48 H                     0.092483
     49 C                    -0.184130
     50 H                     0.111407
     51 C                    -0.319946
     52 H                     0.091416
     53 H                     0.101197
     54 H                     0.107271
     55 H                     0.093452
     56 C                     0.268805
     57 C                    -0.102981
     58 N                    -0.495194
     59 C                    -0.106886
     60 C                     0.065551
     61 C                     0.055367
     62 C                     0.004571
     63 C                     0.057517
     64 C                     0.279079
     65 N                    -0.528032
     66 N                    -0.550453
     67 C                     0.175608
     68 C                     0.330147
     69 S                     0.595558
     70 N                    -0.547810
     71 C                    -0.236681
     72 S                     0.335868
     73 C                    -0.093603
     74 C                    -0.217079
     75 S                     0.276598
     76 C                     0.171073
     77 C                     0.010261
     78 C                    -0.322439
     79 C                    -0.054820
     80 N                    -0.384912
     81 S                     0.264239
     82 C                     0.093506
     83 C                    -0.292322
     84 C                    -0.216502
     85 H                     0.093950
     86 H                     0.095830
     87 H                     0.114267
     88 H                     0.119814
     89 H                     0.132878
     90 H                     0.114288
     91 H                     0.114319
     92 H                     0.143849
     93 H                     0.117580
     94 C                    -0.195645
     95 H                     0.123445
     96 H                     0.092046
     97 H                     0.097267
     98 C                    -0.188041
     99 H                     0.091321
    100 C                    -0.159746
    101 H                     0.092037
    102 H                     0.093894
    103 H                     0.104247
    104 C                    -0.180557
    105 H                     0.095834
    106 C                    -0.320679
    107 H                     0.094373
    108 H                     0.098486
    109 H                     0.100332
    110 H                     0.096145
  ----------------------------------------
  Sum of atomic charges =     0.000000

                    Cartesian Multipole Moments
 -----------------------------------------------------------------
    Charge (ESU x 10^10)
                 0.0000
    Dipole Moment (Debye)
         X       3.1126      Y       0.5914      Z      -2.9361
       Tot       4.3196
    Quadrupole Moments (Debye-Ang)
        XX    -392.2036     XY       1.2800     YY    -417.3243
        XZ      -0.2209     YZ      11.8936     ZZ    -439.6718

 Total job time:  82.49s(wall), 975.06s(cpu)
        *  Thank you very much for using Q-Chem.  Have a nice day.  *
