 Q-Chem 4.4, Q-Chem, Inc., Pleasanton, CA (2016)
 Q-Chem 4.4.2 for Intel X86 Linux

User input:
--------------------------------------------------------------
$comment
SP
$end

$rem
MEM_STATIC 5000
MEM_TOTAL 20000
JOBTYPE SP
EXCHANGE B3LYP
BASIS 6-31g(d,p)
$end

$molecule
0 1
C         -17.709000     14.644000      3.611000
C         -17.307000     13.713000      2.658000
N         -17.040000     15.790000      3.799000
C         -16.233000     13.948000      1.854000
C         -16.079000     16.113000      2.892000
C         -15.548000     15.209000      1.942000
C         -14.411000     15.573000      0.982000
C         -13.150000     15.951000      1.444000
C         -14.483000     15.256000     -0.440000
N         -12.110000     16.121000      0.618000
N         -15.620000     14.918000     -1.049000
C         -13.401000     15.504000     -1.286000
C         -12.209000     16.027000     -0.748000
S         -15.292000     14.912000     -2.626000
N         -13.701000     15.309000     -2.586000
C         -11.073000     16.409000     -1.549000
S         -11.123000     16.819000     -3.310000
C          -9.801000     16.582000     -1.043000
C          -9.445000     17.348000     -3.201000
S          -9.206000     16.441000      0.557000
C          -8.931000     17.118000     -1.979000
C          -8.629000     17.813000     -4.318000
C          -7.680000     17.196000      0.010000
C          -7.665000     17.459000     -1.388000
N          -7.335000     17.966000     -4.278000
S          -9.340000     18.360000     -5.740000
C          -6.809000     18.570000     -5.366000
C          -7.758000     18.863000     -6.347000
C         -18.883000     14.439000      4.519000
H         -17.868000     12.795000      2.510000
H         -16.046000     13.185000      1.104000
H         -15.682000     17.122000      2.997000
H         -12.970000     16.089000      2.510000
H          -6.962000     17.375000      0.799000
H          -6.762000     17.707000     -1.934000
H          -5.773000     18.881000     -5.389000
H          -7.602000     19.312000     -7.319000
H         -19.436000     15.386000      4.490000
C         -18.534000     14.004000      5.910000
H         -19.507000     13.621000      4.140000
H         -17.674000     14.542000      6.327000
H         -18.244000     12.948000      5.848000
C         -19.793000     14.158000      6.852000
H         -19.861000     15.239000      7.029000
C         -19.645000     13.282000      8.057000
H         -20.707000     13.909000      6.299000
H         -18.788000     13.592000      8.668000
H         -19.410000     12.240000      7.811000
C         -20.869000     13.074000      8.979000
H         -21.663000     12.471000      8.524000
C         -21.328000     14.292000      9.745000
H         -20.541000     12.390000      9.773000
H         -21.735000     15.055000      9.071000
H         -20.491000     14.789000     10.252000
H         -22.058000     13.973000     10.498000
C          -4.141000      1.721000      1.905000
C          -3.214000      2.459000      1.196000
N          -5.350000      2.196000      2.198000
C          -3.660000      3.679000      0.642000
C          -5.777000      3.388000      1.752000
C          -4.973000      4.237000      0.871000
C          -5.397000      5.600000      0.412000
C          -6.730000      5.892000      0.285000
C          -4.476000      6.615000      0.084000
N          -7.254000      7.094000     -0.090000
N          -3.150000      6.645000      0.171000
C          -4.947000      7.819000     -0.262000
C          -6.363000      8.066000     -0.361000
S          -2.620000      8.147000     -0.271000
N          -4.070000      8.789000     -0.600000
C          -7.037000      9.278000     -0.887000
S          -8.558000      9.149000     -1.785000
C          -6.708000     10.567000     -0.696000
C          -8.770000     10.927000     -1.773000
S          -5.564000     11.171000      0.544000
C          -7.763000     11.470000     -1.003000
C          -9.911000     11.580000     -2.305000
C          -6.299000     12.755000      0.219000
C          -7.418000     12.740000     -0.563000
N         -10.776000     10.720000     -2.789000
S         -10.263000     13.242000     -2.569000
C         -11.820000     11.309000     -3.362000
C         -11.758000     12.738000     -3.417000
C          -3.812000      0.367000      2.509000
H          -2.171000      2.169000      1.110000
H          -2.911000      4.162000      0.022000
H          -6.804000      3.651000      2.003000
H          -7.525000      5.174000      0.479000
H          -5.836000     13.534000      0.809000
H          -7.965000     13.663000     -0.717000
H         -12.584000     10.629000     -3.716000
H         -12.441000     13.402000     -3.930000
H          -3.574000      0.422000      3.578000
C          -2.680000     -0.424000      1.798000
H          -4.751000     -0.198000      2.539000
H          -1.614000     -0.169000      1.852000
H          -2.784000     -0.178000      0.734000
C          -2.661000     -1.943000      2.135000
H          -2.619000     -2.030000      3.228000
C          -1.576000     -2.791000      1.395000
H          -3.705000     -2.227000      1.954000
H          -0.636000     -2.244000      1.539000
H          -1.877000     -2.990000      0.359000
C          -1.318000     -4.180000      2.062000
H          -0.989000     -4.084000      3.105000
C          -0.258000     -4.964000      1.319000
H          -2.277000     -4.700000      1.952000
H          -0.182000     -6.008000      1.648000
H           0.763000     -4.579000      1.426000
H          -0.510000     -4.956000      0.252000
$end

--------------------------------------------------------------

             Standard Nuclear Orientation (Angstroms)
    I     Atom           X                Y                Z
 ----------------------------------------------------------------
    1      C      -7.7632152443    -5.4192607544    -0.3156887779
    2      C      -6.7874393157    -4.9627964338    -1.1966403437
    3      N      -8.2281140924    -4.6489987765     0.6776825256
    4      C      -6.2901467922    -3.6983260146    -1.1021326456
    5      C      -7.8704121404    -3.3365415816     0.6755789321
    6      C      -6.8339890925    -2.7974461450    -0.1224689211
    7      C      -6.3967495737    -1.3309617863    -0.0509830570
    8      C      -5.8924312509    -0.7694549651     1.1223975799
    9      C      -6.1962062028    -0.5355843079    -1.2571812262
   10      N      -5.3662718844     0.4613594397     1.1544634805
   11      N      -6.6530597877    -0.9078377025    -2.4532607437
   12      C      -5.7039126552     0.7682977568    -1.1831364809
   13      C      -5.3555839050     1.3050897984     0.0715979077
   14      S      -6.4404876681     0.3611813339    -3.4222565019
   15      N      -5.7420902051     1.4075377519    -2.3697028310
   16      C      -4.9329754010     2.6695754613     0.2655100738
   17      S      -5.2816353955     4.0440669252    -0.8574015096
   18      C      -4.2628972107     3.1130188072     1.3872507827
   19      C      -4.6305159337     5.1520599531     0.3491642352
   20      S      -3.7779853129     2.2783817543     2.8022233765
   21      C      -4.1277414685     4.4919963140     1.4083685732
   22      C      -4.4744372398     6.5930999200     0.1794195592
   23      C      -3.3978420679     3.8571588956     3.5511318165
   24      C      -3.5916401859     4.9503762099     2.6616846888
   25      N      -3.7747969339     7.3611757724     0.9668253805
   26      S      -5.3472951784     7.4258306626    -0.9916878353
   27      C      -3.9097803829     8.6832503572     0.7236500102
   28      C      -4.7364915469     8.9619952224    -0.3661485728
   29      C      -8.3470140153    -6.7978081112    -0.3752805562
   30      H      -6.4309045348    -5.5956783046    -2.0039150724
   31      H      -5.5805368181    -3.4255190776    -1.8778052955
   32      H      -8.4011288568    -2.7242860859     1.4037258780
   33      H      -5.8858904402    -1.3406699381     2.0505520242
   34      H      -3.0827980589     3.7974794948     4.5842202162
   35      H      -3.2126282403     5.9469397938     2.8572351130
   36      H      -3.4956576805     9.4224689128     1.3964087444
   37      H      -4.9853795498     9.9255935941    -0.7907118072
   38      H      -9.4303308564    -6.6542163576    -0.2790255305
   39      C      -7.7898054148    -7.7608533440     0.6286962637
   40      H      -8.1077087504    -7.2608739384    -1.3398758236
   41      H      -7.6629781430    -7.3198909841     1.6248890364
   42      H      -6.7883055229    -8.0390637549     0.2784435925
   43      C      -8.7054883281    -9.0461138127     0.7047970518
   44      H      -9.5860261324    -8.7112986299     1.2678831630
   45      C      -7.9336524017   -10.1955181642     1.2743968583
   46      H      -9.0903103092    -9.2911936616    -0.2927268379
   47      H      -7.6321491597    -9.9944752154     2.3100355635
   48      H      -6.9777128173   -10.3712316889     0.7676333354
   49      C      -8.5467463625   -11.6131340027     1.1969040857
   50      H      -8.5814720820   -12.0206409259     0.1801434295
   51      C      -9.7808472300   -11.8411332298     2.0371257239
   52      H      -7.8097071197   -12.2901630203     1.6488784920
   53      H     -10.6290816853   -11.2550030891     1.6642399949
   54      H      -9.6368291439   -11.4939275178     3.0683065928
   55      H      -9.9955364670   -12.9159948883     2.0529670190
   56      C      10.8281381467    -2.5523443095     0.0681838416
   57      C      10.8427627929    -1.2054872573     0.3721841718
   58      N       9.6956006065    -3.2148739614    -0.1589024423
   59      C       9.6157772349    -0.5147212987     0.2645699034
   60      C       8.5022846290    -2.6007767947    -0.1903769991
   61      C       8.3532002607    -1.1534101279    -0.0282610442
   62      C       7.0293068612    -0.4503537160     0.0070086089
   63      C       5.9602819797    -0.9764968418    -0.6702219381
   64      C       6.8254093448     0.7571702962     0.7044048828
   65      N       4.6978623410    -0.4611893834    -0.6977878421
   66      N       7.6405588733     1.4544407034     1.4893190343
   67      C       5.5949420097     1.2831083482     0.7270389865
   68      C       4.5082901689     0.6705008667     0.0060911031
   69      S       6.8121800665     2.7443746448     2.1074832351
   70      N       5.3980897767     2.4522500869     1.3740550553
   71      C       3.1433301652     1.2104387760    -0.2066228887
   72      S       2.2818550345     0.9179286585    -1.7260913584
   73      C       2.3526643640     1.8534652530     0.6695092593
   74      C       0.7703364213     1.6050075799    -1.0555646715
   75      S       2.6076533459     1.9161833561     2.4421341656
   76      C       0.9861181497     1.8871832876     0.2769566663
   77      C      -0.4568288738     1.6312232868    -1.7659815034
   78      C       0.9158564630     2.4536197576     2.5045154244
   79      C       0.2202049578     2.3587159651     1.3336301809
   80      N      -0.3373322421     1.0862152362    -2.9537389618
   81      S      -1.9669069122     2.3770656825    -1.4206882386
   82      C      -1.4535686149     1.1657968361    -3.6698877794
   83      C      -2.5214358461     1.8929129052    -3.0535503729
   84      C      12.0849422560    -3.4045734159     0.0910307465
   85      H      11.7269449997    -0.6941126787     0.7410511743
   86      H       9.7153796295     0.5541524437     0.4266756891
   87      H       7.6490811801    -3.2293640666    -0.4430050189
   88      H       6.0137990482    -1.8849205255    -1.2677897872
   89      H       0.6048953105     2.6629942478     3.5188011260
   90      H      -0.8406824889     2.5809086268     1.3321313346
   91      H      -1.4097054415     0.6701784958    -4.6310591911
   92      H      -3.4675392994     2.1678801081    -3.5005797824
   93      H      12.1924575776    -3.9833445278     1.0161763867
   94      C      13.4137485355    -2.6415892191    -0.1634392658
   95      H      11.9289308330    -4.2105477614    -0.6355446386
   96      H      13.8901989090    -1.9643095095     0.5566886648
   97      H      13.1577653394    -1.8532847183    -0.8821023422
   98      C      14.6024620767    -3.5590291627    -0.5715508522
   99      H      14.6960513873    -4.3292905021     0.2042845104
  100      C      15.9457199144    -2.8284983256    -0.8969922103
  101      H      14.1624321080    -4.1496461780    -1.3845072889
  102      H      16.1162501018    -2.1502346427    -0.0517568397
  103      H      15.9099199966    -2.3737627964    -1.8947055781
  104      C      17.1847254928    -3.7800269943    -0.8817485442
  105      H      17.3180243613    -4.2710592355     0.0910950968
  106      C      18.4625943476    -3.0321365203    -1.1948236612
  107      H      16.9812525875    -4.4800339757    -1.7007540404
  108      H      19.3193549521    -3.6945694727    -1.3711666512
  109      H      18.8098588745    -2.3571171751    -0.4037034226
  110      H      18.2974183115    -2.4337446304    -2.0985387841
 ----------------------------------------------------------------

   10   -5663.5053010252      6.09E-06 Convergence criterion met
 Total energy in the final basis set = -5663.5053010252

                    Orbital Energies (a.u.)
 --------------------------------------------------------------

 Alpha MOs
 -- Occupied --
-88.994 -88.991 -88.936 -88.928 -88.926 -88.915 -88.910 -88.901
-14.391 -14.386 -14.385 -14.377 -14.350 -14.345 -14.341 -14.327
-14.326 -14.323 -10.270 -10.266 -10.259 -10.259 -10.257 -10.254
-10.251 -10.250 -10.246 -10.245 -10.242 -10.237 -10.237 -10.234
-10.233 -10.231 -10.231 -10.229 -10.228 -10.228 -10.227 -10.227
-10.224 -10.224 -10.224 -10.223 -10.222 -10.221 -10.220 -10.219
-10.210 -10.208 -10.207 -10.206 -10.201 -10.194 -10.193 -10.191
-10.185 -10.183 -10.180 -10.179 -10.179 -10.178 -10.178 -10.178
-10.174 -10.173 -10.170 -10.167  -8.050  -8.046  -7.994  -7.990
 -7.985  -7.974  -7.968  -7.961  -6.015  -6.011  -6.009  -6.007
 -6.006  -6.004  -5.959  -5.955  -5.954  -5.951  -5.951  -5.949
 -5.948  -5.946  -5.942  -5.939  -5.935  -5.933  -5.931  -5.929
 -5.925  -5.925  -5.922  -5.917  -1.049  -1.045  -0.984  -0.971
 -0.957  -0.956  -0.937  -0.935  -0.921  -0.912  -0.909  -0.901
 -0.848  -0.837  -0.829  -0.827  -0.815  -0.809  -0.808  -0.808
 -0.802  -0.800  -0.797  -0.789  -0.787  -0.784  -0.774  -0.766
 -0.755  -0.746  -0.744  -0.740  -0.732  -0.715  -0.713  -0.707
 -0.697  -0.691  -0.679  -0.671  -0.657  -0.654  -0.644  -0.644
 -0.641  -0.634  -0.624  -0.619  -0.614  -0.609  -0.605  -0.600
 -0.598  -0.591  -0.589  -0.581  -0.580  -0.571  -0.571  -0.562
 -0.557  -0.546  -0.544  -0.532  -0.527  -0.518  -0.514  -0.513
 -0.506  -0.504  -0.503  -0.499  -0.492  -0.483  -0.478  -0.478
 -0.477  -0.475  -0.465  -0.465  -0.464  -0.464  -0.451  -0.446
 -0.445  -0.444  -0.442  -0.442  -0.440  -0.437  -0.433  -0.431
 -0.430  -0.427  -0.424  -0.423  -0.420  -0.418  -0.415  -0.410
 -0.409  -0.408  -0.407  -0.405  -0.404  -0.403  -0.401  -0.399
 -0.396  -0.391  -0.390  -0.388  -0.385  -0.379  -0.378  -0.378
 -0.377  -0.376  -0.372  -0.368  -0.366  -0.363  -0.360  -0.358
 -0.355  -0.354  -0.352  -0.350  -0.349  -0.348  -0.342  -0.342
 -0.340  -0.340  -0.332  -0.332  -0.329  -0.323  -0.321  -0.320
 -0.318  -0.309  -0.308  -0.307  -0.305  -0.300  -0.299  -0.299
 -0.297  -0.294  -0.294  -0.286  -0.285  -0.278  -0.278  -0.277
 -0.274  -0.271  -0.268  -0.268  -0.257  -0.254  -0.249  -0.247
 -0.244  -0.235  -0.235  -0.227  -0.199  -0.186

          Ground-State Mulliken Net Atomic Charges

     Atom                 Charge (a.u.)
  ----------------------------------------
      1 C                     0.267202
      2 C                    -0.114171
      3 N                    -0.476548
      4 C                    -0.048037
      5 C                     0.057698
      6 C                     0.016694
      7 C                     0.008412
      8 C                     0.084270
      9 C                     0.209932
     10 N                    -0.535485
     11 N                    -0.527146
     12 C                     0.227329
     13 C                     0.315005
     14 S                     0.601370
     15 N                    -0.593211
     16 C                    -0.221914
     17 S                     0.311870
     18 C                    -0.094854
     19 C                    -0.223571
     20 S                     0.294236
     21 C                     0.152651
     22 C                     0.082885
     23 C                    -0.321937
     24 C                    -0.055836
     25 N                    -0.442909
     26 S                     0.260483
     27 C                     0.128190
     28 C                    -0.320168
     29 C                    -0.216688
     30 H                     0.086917
     31 H                     0.105893
     32 H                     0.101257
     33 H                     0.122398
     34 H                     0.134002
     35 H                     0.136050
     36 H                     0.120256
     37 H                     0.136831
     38 H                     0.115578
     39 C                    -0.174437
     40 H                     0.093341
     41 H                     0.112353
     42 H                     0.090406
     43 C                    -0.171833
     44 H                     0.103083
     45 C                    -0.171280
     46 H                     0.089737
     47 H                     0.091262
     48 H                     0.089309
     49 C                    -0.187312
     50 H                     0.090490
     51 C                    -0.308568
     52 H                     0.088019
     53 H                     0.101205
     54 H                     0.100747
     55 H                     0.098679
     56 C                     0.271699
     57 C                    -0.106207
     58 N                    -0.486001
     59 C                    -0.092434
     60 C                     0.071145
     61 C                     0.021347
     62 C                     0.078806
     63 C                     0.031774
     64 C                     0.311943
     65 N                    -0.505396
     66 N                    -0.589928
     67 C                     0.169957
     68 C                     0.263189
     69 S                     0.605810
     70 N                    -0.532998
     71 C                    -0.199436
     72 S                     0.345090
     73 C                    -0.120070
     74 C                    -0.227633
     75 S                     0.244074
     76 C                     0.119761
     77 C                     0.052040
     78 C                    -0.299472
     79 C                    -0.063835
     80 N                    -0.417898
     81 S                     0.300387
     82 C                     0.122044
     83 C                    -0.341954
     84 C                    -0.224335
     85 H                     0.099586
     86 H                     0.111855
     87 H                     0.102465
     88 H                     0.117122
     89 H                     0.125752
     90 H                     0.124179
     91 H                     0.109369
     92 H                     0.146326
     93 H                     0.120154
     94 C                    -0.195770
     95 H                     0.122258
     96 H                     0.088687
     97 H                     0.092776
     98 C                    -0.187026
     99 H                     0.092736
    100 C                    -0.172829
    101 H                     0.091215
    102 H                     0.092743
    103 H                     0.099197
    104 C                    -0.176033
    105 H                     0.094109
    106 C                    -0.315524
    107 H                     0.097659
    108 H                     0.099052
    109 H                     0.100257
    110 H                     0.098080
  ----------------------------------------
  Sum of atomic charges =     0.000000

                    Cartesian Multipole Moments
 -----------------------------------------------------------------
    Charge (ESU x 10^10)
                 0.0000
    Dipole Moment (Debye)
         X      -1.0175      Y       3.9687      Z       0.2600
       Tot       4.1053
    Quadrupole Moments (Debye-Ang)
        XX    -428.7135     XY      -5.0571     YY    -407.6857
        XZ      25.5374     YZ      11.1213     ZZ    -429.3516

 Total job time:  91.15s(wall), 1071.94s(cpu)
        *  Thank you very much for using Q-Chem.  Have a nice day.  *
