 Q-Chem 4.4, Q-Chem, Inc., Pleasanton, CA (2016)
 Q-Chem 4.4.2 for Intel X86 Linux

User input:
--------------------------------------------------------------
$comment
SP
$end

$rem
MEM_STATIC 5000
MEM_TOTAL 20000
JOBTYPE SP
EXCHANGE B3LYP
BASIS 6-31g(d,p)
$end

$molecule
0 1
C         -13.564000     12.048000     -7.613000
C         -13.698000     12.763000     -6.415000
N         -13.138000     12.616000     -8.700000
C         -13.538000     14.188000     -6.422000
C         -12.759000     13.964000     -8.657000
C         -13.007000     14.811000     -7.575000
C         -12.682000     16.268000     -7.625000
C         -11.680000     16.707000     -8.538000
C         -13.287000     17.288000     -6.823000
N         -11.275000     17.941000     -8.678000
N         -14.275000     17.065000     -5.960000
C         -12.825000     18.609000     -6.984000
C         -11.817000     18.889000     -7.861000
S         -14.700000     18.545000     -5.491000
N         -13.580000     19.507000     -6.193000
C         -11.260000     20.259000     -7.952000
S         -11.800000     21.699000     -7.039000
C         -10.211000     20.670000     -8.817000
C         -10.443000     22.698000     -7.620000
S          -9.302000     19.807000     -9.991000
C          -9.719000     21.967000     -8.511000
C         -10.125000     23.986000     -7.178000
C          -8.239000     21.279000    -10.126000
C          -8.607000     22.328000     -9.313000
N         -10.650000     24.351000     -6.050000
S          -9.408000     25.270000     -8.168000
C         -10.407000     25.691000     -5.768000
C          -9.735000     26.293000     -6.813000
C         -13.774000     10.516000     -7.646000
H         -13.851000     12.217000     -5.488000
H         -13.793000     14.715000     -5.508000
H         -12.319000     14.308000     -9.592000
H         -11.267000     16.145000     -9.375000
H          -7.422000     21.285000    -10.836000
H          -8.052000     23.259000     -9.340000
H         -10.614000     26.134000     -4.803000
H          -9.411000     27.324000     -6.855000
H         -14.810000     10.217000     -7.441000
C         -12.873000      9.672000     -6.747000
H         -13.619000     10.214000     -8.688000
H         -12.950000      9.702000     -5.654000
H         -11.852000     10.002000     -6.972000
C         -12.933000      8.201000     -7.018000
H         -13.845000      7.819000     -6.543000
C         -11.660000      7.517000     -6.473000
H         -13.096000      8.099000     -8.098000
H         -11.571000      7.749000     -5.404000
H         -10.753000      7.898000     -6.959000
C         -11.689000      6.092000     -6.693000
H         -12.647000      5.580000     -6.539000
C         -10.605000      5.343000     -5.914000
H         -11.560000      5.800000     -7.744000
H          -9.658000      5.610000     -6.401000
H         -10.667000      4.257000     -6.056000
H         -10.683000      5.604000     -4.852000
C          -4.141000      1.721000      1.905000
C          -3.214000      2.459000      1.196000
N          -5.350000      2.196000      2.198000
C          -3.660000      3.679000      0.642000
C          -5.777000      3.388000      1.752000
C          -4.973000      4.237000      0.871000
C          -5.397000      5.600000      0.412000
C          -6.730000      5.892000      0.285000
C          -4.476000      6.615000      0.084000
N          -7.254000      7.094000     -0.090000
N          -3.150000      6.645000      0.171000
C          -4.947000      7.819000     -0.262000
C          -6.363000      8.066000     -0.361000
S          -2.620000      8.147000     -0.271000
N          -4.070000      8.789000     -0.600000
C          -7.037000      9.278000     -0.887000
S          -8.558000      9.149000     -1.785000
C          -6.708000     10.567000     -0.696000
C          -8.770000     10.927000     -1.773000
S          -5.564000     11.171000      0.544000
C          -7.763000     11.470000     -1.003000
C          -9.911000     11.580000     -2.305000
C          -6.299000     12.755000      0.219000
C          -7.418000     12.740000     -0.563000
N         -10.776000     10.720000     -2.789000
S         -10.263000     13.242000     -2.569000
C         -11.820000     11.309000     -3.362000
C         -11.758000     12.738000     -3.417000
C          -3.812000      0.367000      2.509000
H          -2.171000      2.169000      1.110000
H          -2.911000      4.162000      0.022000
H          -6.804000      3.651000      2.003000
H          -7.525000      5.174000      0.479000
H          -5.836000     13.534000      0.809000
H          -7.965000     13.663000     -0.717000
H         -12.584000     10.629000     -3.716000
H         -12.441000     13.402000     -3.930000
H          -3.574000      0.422000      3.578000
C          -2.680000     -0.424000      1.798000
H          -4.751000     -0.198000      2.539000
H          -1.614000     -0.169000      1.852000
H          -2.784000     -0.178000      0.734000
C          -2.661000     -1.943000      2.135000
H          -2.619000     -2.030000      3.228000
C          -1.576000     -2.791000      1.395000
H          -3.705000     -2.227000      1.954000
H          -0.636000     -2.244000      1.539000
H          -1.877000     -2.990000      0.359000
C          -1.318000     -4.180000      2.062000
H          -0.989000     -4.084000      3.105000
C          -0.258000     -4.964000      1.319000
H          -2.277000     -4.700000      1.952000
H          -0.182000     -6.008000      1.648000
H           0.763000     -4.579000      1.426000
H          -0.510000     -4.956000      0.252000
$end

--------------------------------------------------------------

             Standard Nuclear Orientation (Angstroms)
    I     Atom           X                Y                Z
 ----------------------------------------------------------------
    1      C       3.1521108885     5.2843538238    -0.2825802972
    2      C       3.3412133891     4.4898810169     0.8564711518
    3      N       3.9197768256     5.1740055834    -1.3238205552
    4      C       4.5102508101     3.6653847860     0.9556249395
    5      C       4.9294415323     4.2028372470    -1.3220198947
    6      C       5.3153948699     3.4794081324    -0.1918308232
    7      C       6.4729794949     2.5358678741    -0.2183566001
    8      C       6.8678180302     1.9840864583    -1.4713265919
    9      C       7.2369964388     2.1170893137     0.9176590805
   10      N       7.8426367635     1.1325513289    -1.6473872648
   11      N       7.0419522782     2.5734890117     2.1522841617
   12      C       8.2752964248     1.1894094667     0.7037683595
   13      C       8.5178779028     0.6961015050    -0.5457893548
   14      S       8.2693509485     1.9418992823     2.9802774697
   15      N       8.9897477240     0.9475769694     1.9009259867
   16      C       9.5387192112    -0.3579004318    -0.7516848142
   17      S      10.5970701660    -1.0837233713     0.4940452195
   18      C       9.8749566966    -0.9521945461    -1.9971991092
   19      C      11.2218846993    -2.3266853249    -0.6202542829
   20      S       9.2882641895    -0.6699873251    -3.5863740482
   21      C      10.6999980137    -2.1000015451    -1.8566469193
   22      C      12.0447503397    -3.4019927909    -0.2709149188
   23      C      10.2429411167    -2.1304561626    -4.1065670311
   24      C      10.9475323368    -2.7444759473    -3.0949717975
   25      N      12.0934180200    -3.7007470654     0.9898829795
   26      S      13.2894522649    -4.1280593664    -1.3035762598
   27      C      13.0486725932    -4.6743860675     1.2613397789
   28      C      13.7460378684    -5.0030686856     0.1160614679
   29      C       1.9239532671     6.2171546696    -0.3997316485
   30      H       2.5628384029     4.4585790144     1.6141033617
   31      H       4.6902214909     3.1818193719     1.9105726052
   32      H       5.4411363622     4.1252478817    -2.2803044513
   33      H       6.5744646126     2.3332223542    -2.4607859890
   34      H      10.2500326525    -2.4207441976    -5.1493074431
   35      H      11.5680937712    -3.6073527620    -3.3091262014
   36      H      13.1205770099    -5.1746951736     2.2178143228
   37      H      14.5360322153    -5.7375345869     0.0375135738
   38      H       1.9372829985     7.0425955153     0.3235882866
   39      C       0.5457395975     5.5645308227    -0.3163818123
   40      H       2.0204412217     6.7205001903    -1.3684041222
   41      H       0.1700725253     5.1157054600     0.6103911074
   42      H       0.5718365125     4.7437844700    -1.0427841633
   43      C      -0.5877362716     6.4625975593    -0.7031512406
   44      H      -0.7928807269     7.1160114181     0.1537379481
   45      C      -1.8160358004     5.6133619624    -1.0974723896
   46      H      -0.1978372533     7.1194997723    -1.4904448568
   47      H      -2.0653441586     4.9516430069    -0.2581396985
   48      H      -1.6057600663     4.9690978306    -1.9604404331
   49      C      -2.9405185918     6.4426279683    -1.4548550182
   50      H      -3.1159646317     7.3390621691    -0.8471968819
   51      C      -4.2522035484     5.6608544754    -1.5607359915
   52      H      -2.8231766368     6.9643360547    -2.4143119157
   53      H      -4.1526544924     5.0440691759    -2.4634723205
   54      H      -5.1057503859     6.3109211635    -1.7893734709
   55      H      -4.4175990170     5.1117804309    -0.6262783774
   56      C     -12.5917071778    -0.8468277645     0.4743787667
   57      C     -11.9952790991    -1.5833487746    -0.5298444898
   58      N     -11.8916112979    -0.3175916080     1.4758426200
   59      C     -10.5834761276    -1.6104173626    -0.5474984152
   60      C     -10.5524212512    -0.3933503026     1.5300610584
   61      C      -9.7521944325    -1.0165432964     0.4742933135
   62      C      -8.2625001047    -1.1737568779     0.5400253419
   63      C      -7.5130696565    -0.2727751601     1.2505659442
   64      C      -7.5758035816    -2.2147952870    -0.1162801633
   65      N      -6.1603496869    -0.3134245447     1.4193892583
   66      N      -8.0314926499    -3.2528005350    -0.8102813003
   67      C      -6.2505902845    -2.3087982923     0.0454175549
   68      C      -5.5226398778    -1.3364167989     0.8202907295
   69      S      -6.7512734062    -4.1947434997    -1.2642087606
   70      N      -5.5836745397    -3.2903060901    -0.5996706812
   71      C      -4.0517125151    -1.2028910698     0.9560831194
   72      S      -3.2979314929     0.3934195562     1.0978313325
   73      C      -3.1335670481    -2.1740946609     1.0975592162
   74      C      -1.7085304403    -0.3391699825     1.4766305692
   75      S      -3.4871091821    -3.8805916475     1.5147258430
   76      C      -1.8843301450    -1.7025039301     1.5871430626
   77      C      -0.5563940640     0.4216928295     1.8006422234
   78      C      -1.7556300042    -3.9771628423     1.8988610548
   79      C      -1.0852058636    -2.7879943441     1.9167427346
   80      N      -0.8117799827     1.7088644843     1.7937022326
   81      S       1.0888138839    -0.0253024547     2.0227458564
   82      C       0.2688549931     2.4480040966     2.0197258654
   83      C       1.4931476822     1.7158060487     2.1376386715
   84      C     -14.0983348080    -0.6887367747     0.5813994327
   85      H     -12.5618793791    -2.1744305314    -1.2432388263
   86      H     -10.1801574715    -2.1279753080    -1.4124595905
   87      H     -10.0788509812     0.1251622928     2.3629925609
   88      H      -7.9355530091     0.5872107768     1.7673995782
   89      H      -1.4754244495    -4.9733448767     2.2125746208
   90      H      -0.0500498121    -2.7720655148     2.2377602130
   91      H       0.0827078783     3.5122757638     2.0836560625
   92      H       2.4927557252     2.1227889837     2.2131545706
   93      H     -14.5494843922    -1.3729714234     1.3099026915
   94      C     -14.8796277903    -0.8158387475    -0.7550332683
   95      H     -14.2770960784     0.2756725873     1.0710983103
   96      H     -15.0420202012    -1.7580111114    -1.2937696987
   97      H     -14.2178842030    -0.3830302256    -1.5154280395
   98      C     -16.3185734349    -0.2256670978    -0.7058005960
   99      H     -16.8345801047    -0.7045946005     0.1358332697
  100      C     -17.1214825914    -0.2765065328    -2.0462039824
  101      H     -16.1387833622     0.7716624600    -0.2858454997
  102      H     -17.0265023809    -1.3108745439    -2.3992005506
  103      H     -16.7852929321     0.5112905267    -2.7316602582
  104      C     -18.6587595482    -0.0766195921    -1.8522999620
  105      H     -19.0953354222    -0.8370992402    -1.1917106711
  106      C     -19.3972556959    -0.1393980026    -3.1717647440
  107      H     -18.7375015828     0.9431411129    -1.4572445272
  108      H     -20.4455437325     0.1757664235    -3.0961566972
  109      H     -19.4538638169    -1.1366599948    -3.6238477447
  110      H     -18.8882154818     0.5229859948    -3.8818228405
 ----------------------------------------------------------------

   10   -5663.4832702769      5.12E-06 Convergence criterion met
 Total energy in the final basis set = -5663.4832702769

                    Orbital Energies (a.u.)
 --------------------------------------------------------------

 Alpha MOs
 -- Occupied --
-88.996 -88.994 -88.933 -88.931 -88.920 -88.915 -88.915 -88.905
-14.397 -14.389 -14.388 -14.380 -14.350 -14.349 -14.343 -14.332
-14.329 -14.325 -10.265 -10.262 -10.261 -10.261 -10.261 -10.257
-10.254 -10.253 -10.243 -10.239 -10.236 -10.235 -10.234 -10.233
-10.233 -10.233 -10.233 -10.233 -10.232 -10.230 -10.230 -10.230
-10.229 -10.228 -10.227 -10.226 -10.226 -10.224 -10.224 -10.221
-10.215 -10.209 -10.208 -10.206 -10.206 -10.201 -10.201 -10.195
-10.186 -10.184 -10.184 -10.181 -10.180 -10.179 -10.174 -10.172
-10.171 -10.170 -10.164 -10.163  -8.051  -8.049  -7.993  -7.993
 -7.978  -7.974  -7.973  -7.966  -6.016  -6.014  -6.011  -6.009
 -6.009  -6.007  -5.957  -5.957  -5.953  -5.953  -5.950  -5.949
 -5.942  -5.939  -5.938  -5.938  -5.935  -5.934  -5.934  -5.930
 -5.930  -5.930  -5.927  -5.922  -1.048  -1.046  -0.977  -0.976
 -0.968  -0.959  -0.939  -0.937  -0.913  -0.912  -0.907  -0.905
 -0.842  -0.841  -0.835  -0.832  -0.817  -0.814  -0.811  -0.811
 -0.804  -0.802  -0.798  -0.793  -0.786  -0.783  -0.771  -0.769
 -0.753  -0.750  -0.747  -0.744  -0.719  -0.718  -0.711  -0.710
 -0.694  -0.693  -0.681  -0.676  -0.659  -0.657  -0.650  -0.647
 -0.637  -0.635  -0.630  -0.621  -0.615  -0.609  -0.602  -0.600
 -0.594  -0.592  -0.583  -0.581  -0.577  -0.575  -0.572  -0.571
 -0.550  -0.546  -0.544  -0.537  -0.525  -0.522  -0.521  -0.519
 -0.510  -0.505  -0.504  -0.503  -0.486  -0.481  -0.481  -0.480
 -0.479  -0.478  -0.471  -0.470  -0.467  -0.465  -0.455  -0.449
 -0.446  -0.446  -0.444  -0.442  -0.436  -0.436  -0.433  -0.431
 -0.430  -0.428  -0.424  -0.422  -0.420  -0.415  -0.414  -0.412
 -0.411  -0.409  -0.407  -0.403  -0.401  -0.398  -0.397  -0.395
 -0.395  -0.394  -0.392  -0.392  -0.389  -0.386  -0.385  -0.384
 -0.380  -0.373  -0.373  -0.372  -0.365  -0.365  -0.362  -0.357
 -0.356  -0.354  -0.352  -0.351  -0.349  -0.345  -0.342  -0.341
 -0.337  -0.336  -0.333  -0.332  -0.327  -0.326  -0.322  -0.320
 -0.319  -0.309  -0.309  -0.307  -0.304  -0.304  -0.302  -0.302
 -0.300  -0.296  -0.296  -0.293  -0.288  -0.282  -0.282  -0.280
 -0.279  -0.276  -0.271  -0.266  -0.258  -0.252  -0.251  -0.246
 -0.243  -0.239  -0.234  -0.230  -0.195  -0.191

          Ground-State Mulliken Net Atomic Charges

     Atom                 Charge (a.u.)
  ----------------------------------------
      1 C                     0.288199
      2 C                    -0.112184
      3 N                    -0.490553
      4 C                    -0.092386
      5 C                     0.044908
      6 C                     0.067541
      7 C                     0.031409
      8 C                     0.058931
      9 C                     0.226113
     10 N                    -0.517113
     11 N                    -0.556493
     12 C                     0.207298
     13 C                     0.295910
     14 S                     0.621980
     15 N                    -0.544303
     16 C                    -0.233282
     17 S                     0.353987
     18 C                    -0.121443
     19 C                    -0.219270
     20 S                     0.286458
     21 C                     0.132009
     22 C                     0.064595
     23 C                    -0.315334
     24 C                    -0.062280
     25 N                    -0.428506
     26 S                     0.270199
     27 C                     0.120015
     28 C                    -0.305334
     29 C                    -0.240978
     30 H                     0.087302
     31 H                     0.118107
     32 H                     0.105557
     33 H                     0.115111
     34 H                     0.124017
     35 H                     0.119553
     36 H                     0.124065
     37 H                     0.129913
     38 H                     0.101732
     39 C                    -0.180503
     40 H                     0.119906
     41 H                     0.089640
     42 H                     0.104675
     43 C                    -0.180847
     44 H                     0.091603
     45 C                    -0.155954
     46 H                     0.090786
     47 H                     0.097930
     48 H                     0.098477
     49 C                    -0.180193
     50 H                     0.086163
     51 C                    -0.317148
     52 H                     0.088201
     53 H                     0.100904
     54 H                     0.093978
     55 H                     0.106450
     56 C                     0.272074
     57 C                    -0.105919
     58 N                    -0.485395
     59 C                    -0.092255
     60 C                     0.071432
     61 C                     0.020903
     62 C                     0.079314
     63 C                     0.032182
     64 C                     0.312667
     65 N                    -0.504943
     66 N                    -0.589322
     67 C                     0.170057
     68 C                     0.263509
     69 S                     0.608748
     70 N                    -0.533823
     71 C                    -0.199234
     72 S                     0.347682
     73 C                    -0.121052
     74 C                    -0.226276
     75 S                     0.250127
     76 C                     0.122429
     77 C                     0.069974
     78 C                    -0.296536
     79 C                    -0.063362
     80 N                    -0.423152
     81 S                     0.276112
     82 C                     0.137812
     83 C                    -0.333496
     84 C                    -0.224436
     85 H                     0.100243
     86 H                     0.112196
     87 H                     0.102852
     88 H                     0.118123
     89 H                     0.129839
     90 H                     0.109598
     91 H                     0.109594
     92 H                     0.128823
     93 H                     0.120606
     94 C                    -0.195789
     95 H                     0.122651
     96 H                     0.088870
     97 H                     0.092818
     98 C                    -0.187425
     99 H                     0.093001
    100 C                    -0.172889
    101 H                     0.091420
    102 H                     0.092827
    103 H                     0.099353
    104 C                    -0.176546
    105 H                     0.094243
    106 C                    -0.315206
    107 H                     0.097869
    108 H                     0.099191
    109 H                     0.100286
    110 H                     0.098114
  ----------------------------------------
  Sum of atomic charges =     0.000000

                    Cartesian Multipole Moments
 -----------------------------------------------------------------
    Charge (ESU x 10^10)
                 0.0000
    Dipole Moment (Debye)
         X       2.7829      Y      -4.5038      Z      -0.9374
       Tot       5.3765
    Quadrupole Moments (Debye-Ang)
        XX    -390.4808     XY     -20.3176     YY    -422.0390
        XZ      19.0726     YZ      11.7394     ZZ    -437.6146

 Total job time:  87.99s(wall), 1031.52s(cpu)
        *  Thank you very much for using Q-Chem.  Have a nice day.  *
