 Q-Chem 4.4, Q-Chem, Inc., Pleasanton, CA (2016)
 Q-Chem 4.4.2 for Intel X86 Linux

User input:
--------------------------------------------------------------
$comment
SP
$end

$rem
MEM_STATIC 5000
MEM_TOTAL 20000
JOBTYPE SP
EXCHANGE B3LYP
BASIS 6-31g(d,p)
$end

$molecule
0 1
C           1.814000     11.158000     -2.459000
C           3.060000     11.032000     -1.745000
N           0.982000     10.064000     -2.636000
C           3.540000      9.740000     -1.334000
C           1.439000      8.889000     -2.181000
C           2.701000      8.629000     -1.605000
C           3.150000      7.289000     -1.063000
C           4.513000      6.986000     -0.983000
C           2.230000      6.357000     -0.553000
N           4.993000      5.855000     -0.553000
N           0.915000      6.511000     -0.563000
C           2.715000      5.153000     -0.081000
C           4.138000      4.944000     -0.094000
S           0.318000      5.155000      0.096000
N           1.747000      4.285000      0.267000
C           4.682000      3.600000      0.308000
S           3.772000      2.112000      0.597000
C           6.013000      3.341000      0.434000
C           5.166000      1.313000      1.250000
S           7.310000      4.479000      0.520000
C           6.224000      2.132000      1.125000
C           4.996000      0.085000      2.014000
C           8.222000      3.202000      1.333000
C           7.538000      2.027000      1.645000
N           3.776000     -0.325000      2.325000
S           6.242000     -0.956000      2.670000
C           3.729000     -1.369000      3.249000
C           4.974000     -1.657000      3.644000
C           1.403000     12.415000     -3.158000
H           3.749000     11.848000     -1.547000
H           4.534000      9.635000     -0.908000
H           0.605000      8.196000     -2.278000
H           5.254000      7.583000     -1.514000
H           9.258000      3.397000      1.579000
H           8.086000      1.174000      2.030000
H           2.832000     -1.769000      3.704000
H           5.285000     -2.421000      4.344000
H           0.411000     12.459000     -3.626000
C           2.415000     12.869000     -4.258000
H           1.398000     13.245000     -2.442000
H           3.427000     13.102000     -3.901000
H           2.048000     13.840000     -4.612000
C           2.576000     11.826000     -5.406000
H           3.175000     11.022000     -4.963000
C           3.234000     12.533000     -6.647000
H           1.598000     11.415000     -5.688000
H           4.050000     13.178000     -6.300000
H           2.489000     13.254000     -7.004000
C           3.576000     11.601000     -7.813000
H           4.023000     10.627000     -7.577000
C           4.278000     12.433000     -8.875000
H           2.616000     11.329000     -8.268000
H           4.365000     11.850000     -9.800000
H           5.279000     12.794000     -8.606000
H           3.692000     13.326000     -9.122000
C          -4.141000      1.721000      1.905000
C          -3.214000      2.459000      1.196000
N          -5.350000      2.196000      2.198000
C          -3.660000      3.679000      0.642000
C          -5.777000      3.388000      1.752000
C          -4.973000      4.237000      0.871000
C          -5.397000      5.600000      0.412000
C          -6.730000      5.892000      0.285000
C          -4.476000      6.615000      0.084000
N          -7.254000      7.094000     -0.090000
N          -3.150000      6.645000      0.171000
C          -4.947000      7.819000     -0.262000
C          -6.363000      8.066000     -0.361000
S          -2.620000      8.147000     -0.271000
N          -4.070000      8.789000     -0.600000
C          -7.037000      9.278000     -0.887000
S          -8.558000      9.149000     -1.785000
C          -6.708000     10.567000     -0.696000
C          -8.770000     10.927000     -1.773000
S          -5.564000     11.171000      0.544000
C          -7.763000     11.470000     -1.003000
C          -9.911000     11.580000     -2.305000
C          -6.299000     12.755000      0.219000
C          -7.418000     12.740000     -0.563000
N         -10.776000     10.720000     -2.789000
S         -10.263000     13.242000     -2.569000
C         -11.820000     11.309000     -3.362000
C         -11.758000     12.738000     -3.417000
C          -3.812000      0.367000      2.509000
H          -2.171000      2.169000      1.110000
H          -2.911000      4.162000      0.022000
H          -6.804000      3.651000      2.003000
H          -7.525000      5.174000      0.479000
H          -5.836000     13.534000      0.809000
H          -7.965000     13.663000     -0.717000
H         -12.584000     10.629000     -3.716000
H         -12.441000     13.402000     -3.930000
H          -3.574000      0.422000      3.578000
C          -2.680000     -0.424000      1.798000
H          -4.751000     -0.198000      2.539000
H          -1.614000     -0.169000      1.852000
H          -2.784000     -0.178000      0.734000
C          -2.661000     -1.943000      2.135000
H          -2.619000     -2.030000      3.228000
C          -1.576000     -2.791000      1.395000
H          -3.705000     -2.227000      1.954000
H          -0.636000     -2.244000      1.539000
H          -1.877000     -2.990000      0.359000
C          -1.318000     -4.180000      2.062000
H          -0.989000     -4.084000      3.105000
C          -0.258000     -4.964000      1.319000
H          -2.277000     -4.700000      1.952000
H          -0.182000     -6.008000      1.648000
H           0.763000     -4.579000      1.426000
H          -0.510000     -4.956000      0.252000
$end

--------------------------------------------------------------

             Standard Nuclear Orientation (Angstroms)
    I     Atom           X                Y                Z
 ----------------------------------------------------------------
    1      C       1.5593981048    -5.8065604516     0.6444210376
    2      C       0.4082657552    -6.2812480817     1.3708878073
    3      N       1.5084901560    -4.6225097982    -0.0737860572
    4      C      -0.8617830080    -5.6185749969     1.2427257156
    5      C       0.3210799457    -4.0021508386    -0.1151473172
    6      C      -0.8984276365    -4.4552861280     0.4321091733
    7      C      -2.2043055359    -3.6907875199     0.3976158376
    8      C      -3.4202536644    -4.3752058943     0.4925876114
    9      C      -2.2326752328    -2.2863193667     0.3553267504
   10      N      -4.5910683552    -3.8078879071     0.4501110158
   11      N      -1.1625851441    -1.5118539355     0.2650411043
   12      C      -3.4629435196    -1.6595686449     0.3199929817
   13      C      -4.6430166742    -2.4798196402     0.3782566456
   14      S      -1.7327155426     0.0052318191     0.2118608278
   15      N      -3.3803974303    -0.3264330064     0.1541993977
   16      C      -5.9916755720    -1.8301142587     0.2270015811
   17      S      -6.3370357440    -0.1629672931    -0.2495614751
   18      C      -7.1656059068    -2.5035162190     0.3784458583
   19      C      -8.0159783948    -0.3306034460     0.1518058077
   20      S      -7.4098134204    -4.0607003598     1.0856864410
   21      C      -8.2437574601    -1.6064325418     0.5069491812
   22      C      -8.8410550255     0.8607309481     0.2951617107
   23      C      -9.0742021171    -3.5404404736     1.3730571371
   24      C      -9.3902396277    -2.2146971945     1.0758197744
   25      N      -8.2711068469     2.0554527381     0.2632255508
   26      S     -10.5667967498     0.9472538640     0.5795246582
   27      C      -9.1028621528     3.1091795663     0.6423876307
   28      C     -10.2892732259     2.6153946033     1.0133312597
   29      C       2.8174464793    -6.6040306049     0.5068469047
   30      H       0.3817646366    -7.1845662056     1.9734615022
   31      H      -1.7524113201    -6.0498062126     1.6914548637
   32      H       0.5118508365    -3.0416577540    -0.5908294607
   33      H      -3.4703846079    -5.4547959829     0.3532207253
   34      H      -9.7650246620    -4.2604629598     1.7927818457
   35      H     -10.4232604238    -1.8873791792     1.1190511486
   36      H      -8.7952073588     4.1377829617     0.7800741681
   37      H     -11.1575826795     3.1654709607     1.3507800615
   38      H       3.6764107642    -6.1514324787    -0.0053632997
   39      C       2.5969736958    -7.9926086182    -0.1739635334
   40      H       3.2011491287    -6.8538017132     1.5028226425
   41      H       1.9245876508    -8.6780398251     0.3589183176
   42      H       3.5656909506    -8.5038759293    -0.1188398815
   43      C       2.0536194473    -7.8776608236    -1.6310933028
   44      H       1.0020973067    -7.5932108394    -1.5092105957
   45      C       2.2863585250    -9.2460413772    -2.3701881426
   46      H       2.5707983523    -7.0724249327    -2.1687271375
   47      H       2.0248462569   -10.0674575423    -1.6925622743
   48      H       3.3739352460    -9.3470501470    -2.4665681427
   49      C       1.6846408011    -9.3294851994    -3.7759323972
   50      H       0.6801561846    -8.9151614652    -3.9293191588
   51      C       1.9270334357   -10.7378522471    -4.2961439595
   52      H       2.3145452171    -8.6916554315    -4.4075989342
   53      H       1.6858305919   -10.7809216368    -5.3652787573
   54      H       1.3635963930   -11.5315453099    -3.7889230796
   55      H       2.9843445056   -11.0121044315    -4.2026932201
   56      C      -1.0342928758     5.8657191530    -0.1263875831
   57      C      -1.0931693493     4.5035335046    -0.3446484826
   58      N       0.0990908987     6.4817071219     0.2039986182
   59      C       0.1360741167     3.8089413193    -0.3717445590
   60      C       1.2733800837     5.8339809662     0.2640380815
   61      C       1.4129737312     4.4166205811    -0.0750506272
   62      C       2.6975124760     3.6528141757     0.0465470215
   63      C       3.8942985953     4.3061159141    -0.0919514381
   64      C       2.7396465046     2.2649675552     0.2877035716
   65      N       5.1313794536     3.7440652474     0.0252449701
   66      N       1.7630911795     1.3955248739     0.5267728525
   67      C       3.9327754739     1.6775026473     0.4377077198
   68      C       5.1559068278     2.4256352117     0.2958861514
   69      S       2.4300658794    -0.0862889274     0.8294948501
   70      N       3.9806001052     0.3438279105     0.6457882354
   71      C       6.5420973599     1.8989284545     0.2650348875
   72      S       7.7714980929     2.6485665082    -0.7660337942
   73      C       7.0858320726     0.9311951782     1.0227207512
   74      C       9.0657448178     1.6604960069    -0.0210411099
   75      S       6.3661891170     0.2618618891     2.5211395727
   76      C       8.5079894379     0.9400371310     1.0141622248
   77      C      10.4388098562     1.7992966504    -0.3477531875
   78      C       7.9931825513    -0.3838896488     2.8224754586
   79      C       8.9747401314     0.0698350771     1.9890556423
   80      N      10.6276799244     2.7376404506    -1.2454836648
   81      S      11.8205776993     0.8720355481     0.0843908579
   82      C      11.8969273049     2.8367826746    -1.6254414341
   83      C      12.7796171921     1.8628117707    -1.0587411240
   84      C      -2.2739075447     6.7430590476    -0.1246038141
   85      H      -2.0295980063     3.9600754878    -0.4289085216
   86      H       0.0258632457     2.7623870446    -0.6387046946
   87      H       2.1455736179     6.4476607270     0.4866916018
   88      H       3.9783448838     5.3688417773    -0.3127114009
   89      H       8.0260682625    -0.9617075979     3.7359057776
   90      H      10.0027555624    -0.2136630147     2.1831357946
   91      H      12.0991530591     3.6431590853    -2.3184593477
   92      H      13.8181417086     1.6966366282    -1.3125257780
   93      H      -2.6415891799     6.9618151724     0.8850426453
   94      C      -3.4642714039     6.2186554140    -0.9735211905
   95      H      -1.9506745474     7.7409073443    -0.4434536318
   96      H      -4.0978451908     5.3662831197    -0.6972193113
   97      H      -3.0033280184     5.7205287084    -1.8353964602
   98      C      -4.5244209823     7.3048474819    -1.3163923954
   99      H      -4.8438470576     7.7540808883    -0.3676361944
  100      C      -5.7105365204     6.8369378333    -2.2208919760
  101      H      -3.8986304766     8.1120477183    -1.7166011175
  102      H      -6.0830918928     5.9170423739    -1.7534095290
  103      H      -5.3958209309     6.7647528665    -3.2693391269
  104      C      -6.9336856180     7.8082365837    -2.1854092694
  105      H      -7.3366002572     7.9301522109    -1.1714554374
  106      C      -8.0596823922     7.3150143110    -3.0681142338
  107      H      -6.5370444259     8.7366953731    -2.6129850418
  108      H      -8.8554351044     8.0571681138    -3.2093174708
  109      H      -8.5879798550     6.4301737937    -2.6938495552
  110      H      -7.6416949578     7.0661803241    -4.0506747417
 ----------------------------------------------------------------

   10   -5663.4849229169      3.48E-06 Convergence criterion met
 Total energy in the final basis set = -5663.4849229169

                    Orbital Energies (a.u.)
 --------------------------------------------------------------

 Alpha MOs
 -- Occupied --
-88.991 -88.990 -88.931 -88.925 -88.916 -88.913 -88.913 -88.904
-14.391 -14.386 -14.386 -14.379 -14.353 -14.347 -14.339 -14.332
-14.331 -14.324 -10.271 -10.267 -10.260 -10.260 -10.255 -10.253
-10.252 -10.251 -10.239 -10.237 -10.237 -10.234 -10.233 -10.233
-10.232 -10.231 -10.231 -10.230 -10.228 -10.226 -10.226 -10.226
-10.225 -10.225 -10.225 -10.224 -10.223 -10.223 -10.222 -10.220
-10.219 -10.209 -10.209 -10.208 -10.205 -10.204 -10.200 -10.194
-10.189 -10.184 -10.184 -10.182 -10.179 -10.178 -10.178 -10.178
-10.177 -10.176 -10.170 -10.170  -8.046  -8.045  -7.992  -7.986
 -7.975  -7.973  -7.971  -7.964  -6.012  -6.011  -6.006  -6.005
 -6.004  -6.003  -5.955  -5.952  -5.950  -5.949  -5.947  -5.943
 -5.939  -5.937  -5.936  -5.935  -5.934  -5.932  -5.931  -5.929
 -5.929  -5.928  -5.925  -5.920  -1.046  -1.043  -0.977  -0.976
 -0.966  -0.957  -0.936  -0.932  -0.921  -0.911  -0.909  -0.903
 -0.847  -0.840  -0.837  -0.831  -0.811  -0.809  -0.805  -0.803
 -0.801  -0.799  -0.798  -0.792  -0.785  -0.784  -0.767  -0.767
 -0.754  -0.748  -0.743  -0.742  -0.721  -0.716  -0.711  -0.708
 -0.697  -0.692  -0.683  -0.674  -0.657  -0.656  -0.645  -0.645
 -0.635  -0.635  -0.622  -0.620  -0.613  -0.613  -0.601  -0.600
 -0.593  -0.593  -0.582  -0.581  -0.580  -0.574  -0.572  -0.570
 -0.550  -0.549  -0.547  -0.535  -0.526  -0.521  -0.519  -0.517
 -0.506  -0.504  -0.502  -0.499  -0.489  -0.480  -0.479  -0.478
 -0.477  -0.476  -0.470  -0.468  -0.466  -0.462  -0.455  -0.448
 -0.444  -0.442  -0.442  -0.439  -0.435  -0.434  -0.431  -0.429
 -0.427  -0.424  -0.421  -0.420  -0.419  -0.417  -0.415  -0.412
 -0.410  -0.408  -0.405  -0.404  -0.402  -0.401  -0.399  -0.396
 -0.393  -0.392  -0.391  -0.390  -0.388  -0.383  -0.383  -0.380
 -0.378  -0.372  -0.372  -0.371  -0.367  -0.364  -0.363  -0.360
 -0.356  -0.355  -0.351  -0.350  -0.348  -0.344  -0.343  -0.340
 -0.338  -0.335  -0.332  -0.332  -0.328  -0.326  -0.322  -0.321
 -0.314  -0.314  -0.308  -0.308  -0.307  -0.303  -0.300  -0.300
 -0.297  -0.294  -0.292  -0.287  -0.286  -0.281  -0.280  -0.279
 -0.275  -0.271  -0.270  -0.266  -0.258  -0.256  -0.251  -0.245
 -0.241  -0.238  -0.232  -0.229  -0.196  -0.190

          Ground-State Mulliken Net Atomic Charges

     Atom                 Charge (a.u.)
  ----------------------------------------
      1 C                     0.272230
      2 C                    -0.127423
      3 N                    -0.481649
      4 C                    -0.078819
      5 C                     0.071114
      6 C                     0.038231
      7 C                     0.029659
      8 C                     0.044014
      9 C                     0.256977
     10 N                    -0.509658
     11 N                    -0.568555
     12 C                     0.233698
     13 C                     0.300687
     14 S                     0.611860
     15 N                    -0.579341
     16 C                    -0.204486
     17 S                     0.350563
     18 C                    -0.132509
     19 C                    -0.239370
     20 S                     0.294453
     21 C                     0.135992
     22 C                     0.080092
     23 C                    -0.308079
     24 C                    -0.069581
     25 N                    -0.445993
     26 S                     0.249828
     27 C                     0.130237
     28 C                    -0.297437
     29 C                    -0.234519
     30 H                     0.091788
     31 H                     0.108246
     32 H                     0.122078
     33 H                     0.112143
     34 H                     0.121022
     35 H                     0.118972
     36 H                     0.125969
     37 H                     0.123761
     38 H                     0.123060
     39 C                    -0.193043
     40 H                     0.103885
     41 H                     0.092260
     42 H                     0.090215
     43 C                    -0.175241
     44 H                     0.099533
     45 C                    -0.170916
     46 H                     0.100336
     47 H                     0.086855
     48 H                     0.094792
     49 C                    -0.175774
     50 H                     0.096202
     51 C                    -0.316615
     52 H                     0.098304
     53 H                     0.094114
     54 H                     0.101579
     55 H                     0.101464
     56 C                     0.270807
     57 C                    -0.108016
     58 N                    -0.484865
     59 C                    -0.097138
     60 C                     0.071179
     61 C                     0.022951
     62 C                     0.080905
     63 C                     0.031468
     64 C                     0.318929
     65 N                    -0.504778
     66 N                    -0.607823
     67 C                     0.167226
     68 C                     0.262491
     69 S                     0.627274
     70 N                    -0.533601
     71 C                    -0.199363
     72 S                     0.350222
     73 C                    -0.120240
     74 C                    -0.226667
     75 S                     0.251687
     76 C                     0.122328
     77 C                     0.068555
     78 C                    -0.296418
     79 C                    -0.063710
     80 N                    -0.414943
     81 S                     0.274220
     82 C                     0.129712
     83 C                    -0.335633
     84 C                    -0.224093
     85 H                     0.103849
     86 H                     0.112203
     87 H                     0.102945
     88 H                     0.117937
     89 H                     0.129236
     90 H                     0.108453
     91 H                     0.114773
     92 H                     0.135900
     93 H                     0.120371
     94 C                    -0.198010
     95 H                     0.122068
     96 H                     0.095125
     97 H                     0.093124
     98 C                    -0.187566
     99 H                     0.091427
    100 C                    -0.173561
    101 H                     0.090579
    102 H                     0.097152
    103 H                     0.099686
    104 C                    -0.176273
    105 H                     0.090749
    106 C                    -0.315075
    107 H                     0.097684
    108 H                     0.097712
    109 H                     0.100091
    110 H                     0.099552
  ----------------------------------------
  Sum of atomic charges =     0.000000

                    Cartesian Multipole Moments
 -----------------------------------------------------------------
    Charge (ESU x 10^10)
                 0.0000
    Dipole Moment (Debye)
         X      -1.8367      Y      -3.8148      Z       2.3086
       Tot       4.8224
    Quadrupole Moments (Debye-Ang)
        XX    -370.0225     XY     -21.1348     YY    -435.1461
        XZ      -5.5436     YZ     -12.9980     ZZ    -443.3748

 Total job time:  88.34s(wall), 1027.69s(cpu)
        *  Thank you very much for using Q-Chem.  Have a nice day.  *
