 Q-Chem 4.4, Q-Chem, Inc., Pleasanton, CA (2016)
 Q-Chem 4.4.2 for Intel X86 Linux

User input:
--------------------------------------------------------------
$comment
SP
$end

$rem
MEM_STATIC 5000
MEM_TOTAL 20000
JOBTYPE SP
EXCHANGE B3LYP
BASIS 6-31g(d,p)
$end

$molecule
0 1
C          12.756000    -20.191000     14.753000
C          12.664000    -18.991000     14.007000
N          13.927000    -20.817000     14.924000
C          13.843000    -18.427000     13.507000
C          15.068000    -20.264000     14.481000
C          15.087000    -19.073000     13.752000
C          16.410000    -18.504000     13.325000
C          16.507000    -17.075000     13.380000
C          17.550000    -19.183000     12.889000
N          17.595000    -16.435000     12.866000
N          17.723000    -20.520000     12.911000
C          18.685000    -18.503000     12.542000
C          18.628000    -17.074000     12.380000
S          19.191000    -20.791000     12.368000
N          19.741000    -19.234000     12.189000
C          19.764000    -16.339000     11.938000
S          21.378000    -16.965000     11.394000
C          19.807000    -14.979000     11.776000
C          22.044000    -15.375000     11.089000
S          18.578000    -13.753000     12.120000
C          21.038000    -14.499000     11.333000
C          23.307000    -15.101000     10.420000
C          19.698000    -12.505000     11.385000
C          20.920000    -13.051000     11.050000
N          23.953000    -14.019000     10.816000
S          24.292000    -16.398000      9.726000
C          25.220000    -14.077000     10.285000
C          25.490000    -15.186000      9.521000
C          11.392000    -20.929000     15.141000
H          11.660000    -18.634000     13.797000
H          13.806000    -17.569000     12.844000
H          16.017000    -20.733000     14.734000
H          15.607000    -16.496000     13.580000
H          19.429000    -11.463000     11.271000
H          21.818000    -12.545000     10.715000
H          25.925000    -13.274000     10.453000
H          26.317000    -15.234000      8.826000
H          10.721000    -20.338000     15.776000
C          11.714000    -22.211000     15.882000
H          10.863000    -21.246000     14.233000
H          12.382000    -21.915000     16.699000
H          12.205000    -23.023000     15.332000
C          10.504000    -22.842000     16.611000
H          10.153000    -22.035000     17.265000
C          10.782000    -24.150000     17.362000
H           9.677000    -23.022000     15.913000
H          11.536000    -23.954000     18.135000
H          11.096000    -24.994000     16.736000
C           9.480000    -24.727000     18.055000
H           8.711000    -24.946000     17.303000
C           8.713000    -23.879000     19.029000
H           9.797000    -25.683000     18.489000
H           9.291000    -23.810000     19.959000
H           7.827000    -24.472000     19.288000
H           8.365000    -22.888000     18.713000
C          29.147000     -0.330000      9.010000
C          27.766000     -0.141000      9.295000
N          29.689000     -1.526000      8.698000
C          26.909000     -1.264000      9.271000
C          28.885000     -2.554000      8.670000
C          27.477000     -2.520000      9.042000
C          26.743000     -3.767000      9.191000
C          25.867000     -3.904000     10.280000
C          26.773000     -4.865000      8.304000
N          25.153000     -4.994000     10.528000
N          27.719000     -4.887000      7.288000
C          26.040000     -5.969000      8.524000
C          25.188000     -6.044000      9.649000
S          27.604000     -6.441000      6.801000
N          26.277000     -6.969000      7.610000
C          24.184000     -7.079000      9.910000
S          23.390000     -6.964000     11.493000
C          23.496000     -8.003000      9.158000
C          22.310000     -8.356000     11.148000
S          23.638000     -8.390000      7.462000
C          22.485000     -8.638000      9.821000
C          21.195000     -8.757000     11.911000
C          22.346000     -9.626000      7.738000
C          21.903000     -9.627000      9.059000
N          20.028000     -8.681000     11.380000
S          21.175000     -8.839000     13.627000
C          18.983000     -8.535000     12.257000
C          19.471000     -8.334000     13.575000
C          30.123000      0.891000      9.153000
H          27.311000      0.830000      9.465000
H          25.842000     -1.122000      9.410000
H          29.308000     -3.547000      8.521000
H          25.876000     -3.198000     11.108000
H          22.026000    -10.389000      7.040000
H          21.189000    -10.364000      9.408000
H          17.964000     -8.438000     11.906000
H          18.915000     -8.087000     14.469000
H          29.762000      1.620000      9.889000
C          30.331000      1.662000      7.876000
H          31.086000      0.574000      9.571000
H          29.371000      1.957000      7.433000
H          30.877000      1.070000      7.130000
C          31.352000      2.837000      8.049000
H          30.932000      3.624000      8.686000
C          31.722000      3.522000      6.714000
H          32.259000      2.478000      8.550000
H          32.316000      4.399000      6.997000
H          30.884000      3.912000      6.122000
C          32.639000      2.575000      5.871000
H          33.407000      2.144000      6.524000
C          33.419000      3.362000      4.800000
H          32.112000      1.743000      5.389000
H          33.943000      4.267000      5.129000
H          32.745000      3.540000      3.954000
H          34.171000      2.716000      4.332000
$end

--------------------------------------------------------------

             Standard Nuclear Orientation (Angstroms)
    I     Atom           X                Y                Z
 ----------------------------------------------------------------
    1      C     -12.9736943670     1.7487784591    -0.7326239487
    2      C     -11.9036767991     2.2290764132    -1.5259437328
    3      N     -12.8224325941     0.6917521159     0.0749484540
    4      C     -10.6522259290     1.6167537906    -1.3952964005
    5      C     -11.6167510331     0.1221197537     0.2355409363
    6      C     -10.4938709919     0.5343898290    -0.4851925776
    7      C      -9.1746641109    -0.1326958533    -0.2185300612
    8      C      -8.0335518323     0.7339815993    -0.2532857904
    9      C      -8.9194700075    -1.4771182590     0.0610077083
   10      N      -6.7726169990     0.2207672579    -0.1885217112
   11      N      -9.8539118089    -2.4212342718     0.2921904806
   12      C      -7.6452688400    -1.9194603824     0.2885573307
   13      C      -6.5352674079    -1.0534253841    -0.0104647461
   14      S      -9.0659468193    -3.7628632761     0.6122792025
   15      N      -7.5010274489    -3.2063814951     0.6002213658
   16      C      -5.1927021244    -1.5044375219     0.1316320912
   17      S      -4.5930107630    -3.1629329960     0.5589154083
   18      C      -4.0778287702    -0.7450696084    -0.1094296769
   19      C      -2.9016848639    -2.7155108903     0.4963761222
   20      S      -3.9390368144     0.9597140497    -0.5636349963
   21      C      -2.8761500971    -1.4175907058     0.1043312646
   22      C      -1.7794029640    -3.6402076653     0.5531670666
   23      C      -2.1324607762     0.7109915687    -0.7265740819
   24      C      -1.7544584039    -0.5555908105    -0.3309628040
   25      N      -0.6784595669    -3.1854105614     1.1240779448
   26      S      -2.0204655403    -5.3936632520     0.5899412377
   27      C       0.1536786648    -4.2602718545     1.3310396897
   28      C      -0.3384257029    -5.4755613832     0.9219166609
   29      C     -14.4362619630     2.3173489866    -1.0380868474
   30      H     -12.1546767783     2.9932229439    -2.2557684310
   31      H      -9.8357425637     1.8836287651    -2.0580442124
   32      H     -11.4953427907    -0.6587508610     0.9839206005
   33      H      -8.1633217512     1.7575423670    -0.6007395612
   34      H      -1.4560149014     1.4877732430    -1.0584659452
   35      H      -0.7547513274    -0.9530312839    -0.1994643964
   36      H       1.1352386881    -4.1217111737     1.7639355877
   37      H       0.2903038000    -6.3405122502     0.7612393137
   38      H     -14.5406387335     3.4000475569    -0.8980286611
   39      C     -15.4347128990     1.6379355506    -0.1227824656
   40      H     -14.7434861181     2.0415643049    -2.0551168999
   41      H     -15.0386835330     1.7717978890     0.8904157458
   42      H     -15.6275205625     0.5673775084    -0.2629811935
   43      C     -16.8170665655     2.3306297706    -0.0682383720
   44      H     -16.5748251881     3.3565930252     0.2332322159
   45      C     -17.8637106858     1.6670375782     0.8352717207
   46      H     -17.2478960921     2.4239522087    -1.0728327387
   47      H     -17.4829868507     1.6636489022     1.8645913398
   48      H     -18.1633763685     0.6536386184     0.5419612591
   49      C     -19.2481928350     2.4356566651     0.8067081483
   50      H     -19.6609388435     2.4434299805    -0.2103495236
   51      C     -19.3013133376     3.8940265577     1.1622422095
   52      H     -19.9164019805     1.8271126964     1.4279583201
   53      H     -19.1624188471     3.9920958801     2.2461406035
   54      H     -20.3406420367     4.1946813911     0.9802297748
   55      H     -18.6557674901     4.5973968816     0.6222591115
   56      C      13.3501995838     1.3764527783     1.0052574788
   57      C      12.6187154477     2.4951691651     0.5179058557
   58      N      12.8276771394     0.1382788925     1.1294336594
   59      C      11.2642078823     2.3151069884     0.1586832678
   60      C      11.5780676931    -0.0169719101     0.7854025273
   61      C      10.6883413121     1.0600106543     0.3724866484
   62      C       9.2633485271     0.8019552856     0.2354866872
   63      C       8.3582575098     1.7583895900     0.7234515135
   64      C       8.6735519507    -0.3104452549    -0.4032448965
   65      N       7.0391371088     1.6315386474     0.6666166124
   66      N       9.4773037490    -1.3786181922    -0.7782723922
   67      C       7.3401490411    -0.4467757768    -0.4924394564
   68      C       6.4870310890     0.5499230426     0.0328559113
   69      S       8.3453522349    -2.5075539457    -1.1091799835
   70      N       6.9529939795    -1.6399457759    -1.0563732393
   71      C       5.0386425432     0.6465657732    -0.1676255168
   72      S       4.2426004348     1.9330884215     0.7601279186
   73      C       4.1303486100     0.1577275010    -1.0779349556
   74      C       2.6378607792     1.5790477347     0.0372483782
   75      S       4.3694205348    -0.9404308052    -2.4133157812
   76      C       2.8779620509     0.6926679764    -0.9765367584
   77      C       1.4784504306     2.3725007443     0.1485810560
   78      C       2.5953935757    -0.7824362848    -2.7311240249
   79      C       1.9837763036     0.0914017795    -1.8346741658
   80      N       1.0027649974     2.9172481240    -0.9128329353
   81      S       0.9438405317     3.1063444721     1.6071576358
   82      C       0.2742981318     4.0635962847    -0.7186888642
   83      C       0.3586058610     4.4766326054     0.6370257829
   84      C      14.8172065031     1.5970124407     1.5182001013
   85      H      13.0565894082     3.4723178175     0.3384263141
   86      H      10.7177064586     3.1403344900    -0.2866365775
   87      H      11.0990865307    -0.9783834443     0.9682792834
   88      H       8.6848281014     2.5718885686     1.3681778590
   89      H       2.0098389292    -1.3772699697    -3.4203784360
   90      H       0.9092219016     0.2331326990    -1.8380183621
   91      H      -0.1476782740     4.6093726101    -1.5523765249
   92      H      -0.0132343696     5.3860945387     1.0886836565
   93      H      14.9716522333     2.6169297547     1.8915272889
   94      C      15.8733263744     1.3778004715     0.4670146133
   95      H      15.0194724189     0.9777029377     2.4003147416
   96      H      15.6625707772     1.9700525956    -0.4328150927
   97      H      15.9342236889     0.3232921743     0.1680166731
   98      C      17.3229810369     1.5544270466     1.0329646222
   99      H      17.5143907582     2.6036053651     1.2861941121
  100      C      18.4223762664     1.1525775183     0.0239070985
  101      H      17.4382203009     0.9812811061     1.9607332587
  102      H      19.3657135037     1.4597089882     0.4906394811
  103      H      18.3953790407     1.6608063250    -0.9486064642
  104      C      18.4511572301    -0.4039341391    -0.1335416759
  105      H      18.3896781805    -0.8664496844     0.8585740920
  106      C      19.7959538502    -0.8809464109    -0.7155995280
  107      H      17.6346215750    -0.8145276962    -0.7393134603
  108      H      20.7079309933    -0.4912539200    -0.2483956613
  109      H      19.7689648479    -0.7245406198    -1.8002583786
  110      H      19.8602029336    -1.9742499566    -0.6665749197
 ----------------------------------------------------------------

   10   -5663.4816631083      6.20E-06 Convergence criterion met
 Total energy in the final basis set = -5663.4816631083

                    Orbital Energies (a.u.)
 --------------------------------------------------------------

 Alpha MOs
 -- Occupied --
-88.994 -88.987 -88.932 -88.923 -88.919 -88.917 -88.910 -88.906
-14.392 -14.390 -14.386 -14.382 -14.352 -14.349 -14.345 -14.340
-14.331 -14.328 -10.274 -10.265 -10.261 -10.256 -10.256 -10.255
-10.252 -10.248 -10.242 -10.239 -10.239 -10.239 -10.238 -10.235
-10.235 -10.235 -10.235 -10.233 -10.232 -10.231 -10.228 -10.225
-10.225 -10.224 -10.223 -10.223 -10.220 -10.220 -10.216 -10.215
-10.213 -10.212 -10.203 -10.203 -10.202 -10.197 -10.195 -10.192
-10.192 -10.184 -10.178 -10.178 -10.178 -10.177 -10.175 -10.174
-10.170 -10.169 -10.167 -10.166  -8.049  -8.043  -7.994  -7.984
 -7.978  -7.975  -7.969  -7.964  -6.014  -6.008  -6.008  -6.007
 -6.003  -6.001  -5.957  -5.954  -5.951  -5.948  -5.945  -5.943
 -5.941  -5.940  -5.939  -5.936  -5.935  -5.934  -5.932  -5.930
 -5.929  -5.925  -5.925  -5.920  -1.048  -1.041  -0.980  -0.978
 -0.962  -0.960  -0.945  -0.938  -0.917  -0.912  -0.905  -0.904
 -0.842  -0.836  -0.834  -0.830  -0.816  -0.814  -0.808  -0.804
 -0.802  -0.800  -0.799  -0.797  -0.782  -0.780  -0.767  -0.766
 -0.750  -0.750  -0.740  -0.734  -0.718  -0.716  -0.711  -0.708
 -0.694  -0.693  -0.675  -0.673  -0.655  -0.654  -0.648  -0.646
 -0.638  -0.632  -0.627  -0.626  -0.614  -0.611  -0.601  -0.597
 -0.594  -0.589  -0.587  -0.578  -0.576  -0.572  -0.563  -0.556
 -0.556  -0.555  -0.546  -0.541  -0.526  -0.523  -0.513  -0.510
 -0.507  -0.507  -0.502  -0.491  -0.485  -0.484  -0.481  -0.478
 -0.474  -0.473  -0.471  -0.468  -0.463  -0.460  -0.452  -0.449
 -0.448  -0.447  -0.445  -0.442  -0.434  -0.432  -0.429  -0.428
 -0.428  -0.425  -0.423  -0.422  -0.421  -0.419  -0.414  -0.413
 -0.413  -0.412  -0.403  -0.403  -0.399  -0.399  -0.398  -0.396
 -0.395  -0.393  -0.391  -0.391  -0.387  -0.387  -0.386  -0.385
 -0.379  -0.376  -0.376  -0.374  -0.367  -0.363  -0.362  -0.354
 -0.353  -0.349  -0.347  -0.347  -0.346  -0.344  -0.342  -0.338
 -0.335  -0.333  -0.332  -0.328  -0.327  -0.321  -0.320  -0.318
 -0.314  -0.311  -0.307  -0.305  -0.305  -0.303  -0.300  -0.299
 -0.297  -0.294  -0.292  -0.290  -0.290  -0.286  -0.285  -0.278
 -0.276  -0.271  -0.267  -0.263  -0.251  -0.251  -0.247  -0.245
 -0.243  -0.241  -0.232  -0.231  -0.195  -0.192

          Ground-State Mulliken Net Atomic Charges

     Atom                 Charge (a.u.)
  ----------------------------------------
      1 C                     0.267089
      2 C                    -0.115666
      3 N                    -0.484577
      4 C                    -0.088935
      5 C                     0.091013
      6 C                     0.042318
      7 C                    -0.002108
      8 C                     0.058180
      9 C                     0.232999
     10 N                    -0.527591
     11 N                    -0.530545
     12 C                     0.193154
     13 C                     0.340318
     14 S                     0.598115
     15 N                    -0.566374
     16 C                    -0.230751
     17 S                     0.312950
     18 C                    -0.099178
     19 C                    -0.215622
     20 S                     0.267893
     21 C                     0.134799
     22 C                     0.025469
     23 C                    -0.328915
     24 C                    -0.051036
     25 N                    -0.395570
     26 S                     0.287191
     27 C                     0.113475
     28 C                    -0.298918
     29 C                    -0.239593
     30 H                     0.093125
     31 H                     0.104106
     32 H                     0.120669
     33 H                     0.114899
     34 H                     0.136091
     35 H                     0.120136
     36 H                     0.119313
     37 H                     0.139085
     38 H                     0.108405
     39 C                    -0.162060
     40 H                     0.118260
     41 H                     0.106034
     42 H                     0.102848
     43 C                    -0.180163
     44 H                     0.085403
     45 C                    -0.171849
     46 H                     0.078316
     47 H                     0.090756
     48 H                     0.092866
     49 C                    -0.180866
     50 H                     0.088911
     51 C                    -0.311543
     52 H                     0.088237
     53 H                     0.097624
     54 H                     0.098513
     55 H                     0.105748
     56 C                     0.252727
     57 C                    -0.120758
     58 N                    -0.465668
     59 C                    -0.075615
     60 C                     0.110594
     61 C                     0.019845
     62 C                     0.006220
     63 C                     0.060028
     64 C                     0.212143
     65 N                    -0.512522
     66 N                    -0.529512
     67 C                     0.228935
     68 C                     0.291869
     69 S                     0.616813
     70 N                    -0.555951
     71 C                    -0.246510
     72 S                     0.323724
     73 C                    -0.101047
     74 C                    -0.198871
     75 S                     0.272184
     76 C                     0.167283
     77 C                     0.021387
     78 C                    -0.316708
     79 C                    -0.057580
     80 N                    -0.394201
     81 S                     0.260038
     82 C                     0.099359
     83 C                    -0.305449
     84 C                    -0.218485
     85 H                     0.094701
     86 H                     0.103469
     87 H                     0.108824
     88 H                     0.115233
     89 H                     0.124322
     90 H                     0.117946
     91 H                     0.124634
     92 H                     0.137291
     93 H                     0.096033
     94 C                    -0.169722
     95 H                     0.110720
     96 H                     0.090180
     97 H                     0.111385
     98 C                    -0.184720
     99 H                     0.080705
    100 C                    -0.171496
    101 H                     0.095106
    102 H                     0.089653
    103 H                     0.092871
    104 C                    -0.175325
    105 H                     0.094833
    106 C                    -0.325423
    107 H                     0.102557
    108 H                     0.103284
    109 H                     0.100837
    110 H                     0.095386
  ----------------------------------------
  Sum of atomic charges =     0.000000

                    Cartesian Multipole Moments
 -----------------------------------------------------------------
    Charge (ESU x 10^10)
                 0.0000
    Dipole Moment (Debye)
         X       0.8691      Y       0.4284      Z      -1.5577
       Tot       1.8345
    Quadrupole Moments (Debye-Ang)
        XX    -448.8865     XY       0.2318     YY    -403.0045
        XZ      13.6192     YZ      -3.1601     ZZ    -447.2914

 Total job time:  89.46s(wall), 1058.02s(cpu)
        *  Thank you very much for using Q-Chem.  Have a nice day.  *
