 Q-Chem 4.4, Q-Chem, Inc., Pleasanton, CA (2016)
 Q-Chem 4.4.2 for Intel X86 Linux

User input:
--------------------------------------------------------------
$comment
SP
$end

$rem
MEM_STATIC 5000
MEM_TOTAL 20000
JOBTYPE SP
EXCHANGE B3LYP
BASIS 6-31g(d,p)
$end

$molecule
0 1
C          17.645000      2.851000     12.196000
C          17.693000      2.015000     13.344000
N          18.649000      3.096000     11.335000
C          18.910000      1.290000     13.564000
C          19.861000      2.507000     11.670000
C          20.099000      1.614000     12.771000
C          21.347000      0.840000     12.903000
C          21.396000     -0.394000     13.613000
C          22.657000      1.322000     12.526000
N          22.480000     -1.187000     13.717000
N          22.801000      2.534000     11.934000
C          23.814000      0.532000     12.733000
C          23.684000     -0.758000     13.292000
S          24.387000      2.537000     11.589000
N          24.934000      1.056000     12.134000
C          24.816000     -1.705000     13.429000
S          26.496000     -1.328000     12.998000
C          24.737000     -3.018000     13.910000
C          26.967000     -3.009000     13.422000
S          23.298000     -3.914000     14.306000
C          25.884000     -3.749000     13.851000
C          28.341000     -3.416000     13.328000
C          24.352000     -5.312000     14.627000
C          25.733000     -5.105000     14.339000
N          28.806000     -4.638000     13.668000
S          29.629000     -2.303000     12.941000
C          30.169000     -4.783000     13.594000
C          30.810000     -3.545000     13.333000
C          16.426000      3.699000     11.835000
H          16.820000      1.741000     13.931000
H          19.059000      0.522000     14.316000
H          20.625000      2.794000     10.948000
H          20.488000     -0.830000     14.026000
H          23.883000     -6.240000     14.925000
H          26.573000     -5.783000     14.446000
H          30.649000     -5.734000     13.783000
H          31.872000     -3.339000     13.347000
H          16.210000      3.674000     10.760000
C          16.552000      5.199000     12.217000
H          15.533000      3.404000     12.401000
H          17.388000      5.390000     12.901000
H          15.557000      5.507000     12.559000
C          16.812000      6.173000     10.977000
H          16.979000      7.193000     11.344000
C          15.689000      6.221000      9.910000
H          17.771000      5.837000     10.564000
H          14.750000      6.136000     10.470000
H          15.628000      5.269000      9.368000
C          15.765000      7.451000      8.972000
H          15.959000      8.313000      9.623000
C          14.741000      7.562000      7.872000
H          16.741000      7.424000      8.472000
H          13.772000      7.798000      8.328000
H          14.595000      6.588000      7.386000
H          14.934000      8.394000      7.183000
C          29.147000     -0.330000      9.010000
C          27.766000     -0.141000      9.295000
N          29.689000     -1.526000      8.698000
C          26.909000     -1.264000      9.271000
C          28.885000     -2.554000      8.670000
C          27.477000     -2.520000      9.042000
C          26.743000     -3.767000      9.191000
C          25.867000     -3.904000     10.280000
C          26.773000     -4.865000      8.304000
N          25.153000     -4.994000     10.528000
N          27.719000     -4.887000      7.288000
C          26.040000     -5.969000      8.524000
C          25.188000     -6.044000      9.649000
S          27.604000     -6.441000      6.801000
N          26.277000     -6.969000      7.610000
C          24.184000     -7.079000      9.910000
S          23.390000     -6.964000     11.493000
C          23.496000     -8.003000      9.158000
C          22.310000     -8.356000     11.148000
S          23.638000     -8.390000      7.462000
C          22.485000     -8.638000      9.821000
C          21.195000     -8.757000     11.911000
C          22.346000     -9.626000      7.738000
C          21.903000     -9.627000      9.059000
N          20.028000     -8.681000     11.380000
S          21.175000     -8.839000     13.627000
C          18.983000     -8.535000     12.257000
C          19.471000     -8.334000     13.575000
C          30.123000      0.891000      9.153000
H          27.311000      0.830000      9.465000
H          25.842000     -1.122000      9.410000
H          29.308000     -3.547000      8.521000
H          25.876000     -3.198000     11.108000
H          22.026000    -10.389000      7.040000
H          21.189000    -10.364000      9.408000
H          17.964000     -8.438000     11.906000
H          18.915000     -8.087000     14.469000
H          29.762000      1.620000      9.889000
C          30.331000      1.662000      7.876000
H          31.086000      0.574000      9.571000
H          29.371000      1.957000      7.433000
H          30.877000      1.070000      7.130000
C          31.352000      2.837000      8.049000
H          30.932000      3.624000      8.686000
C          31.722000      3.522000      6.714000
H          32.259000      2.478000      8.550000
H          32.316000      4.399000      6.997000
H          30.884000      3.912000      6.122000
C          32.639000      2.575000      5.871000
H          33.407000      2.144000      6.524000
C          33.419000      3.362000      4.800000
H          32.112000      1.743000      5.389000
H          33.943000      4.267000      5.129000
H          32.745000      3.540000      3.954000
H          34.171000      2.716000      4.332000
$end

--------------------------------------------------------------

             Standard Nuclear Orientation (Angstroms)
    I     Atom           X                Y                Z
 ----------------------------------------------------------------
    1      C      -8.2592349250     1.7727744317    -0.0547107244
    2      C      -7.7115550579     2.5834774005    -1.0852016072
    3      N      -7.7014612421     0.6770763259     0.4909046892
    4      C      -6.3911264328     2.2518878933    -1.5342346182
    5      C      -6.4970564044     0.2896395417    -0.0812768599
    6      C      -5.7775220340     0.9907137080    -1.1094107535
    7      C      -4.3916848136     0.6464836112    -1.4767863635
    8      C      -3.5037396944     1.6040608233    -2.0458701431
    9      C      -3.8565603036    -0.6965365930    -1.4989559397
   10      N      -2.2086641629     1.3814243574    -2.3424057592
   11      N      -4.6126063577    -1.7461431655    -1.0904655394
   12      C      -2.5256329829    -0.9463086865    -1.9134970935
   13      C      -1.6988787566     0.1359499323    -2.2858876564
   14      S      -3.5409008324    -2.9628182287    -1.1651586273
   15      N      -2.1254895859    -2.2394294498    -1.6779106902
   16      C      -0.2601947473    -0.0112858791    -2.6107136670
   17      S       0.6015256612    -1.5620222336    -2.6649787250
   18      C       0.6246853219     1.0296849853    -2.9188336479
   19      C       2.1282591318    -0.6849115057    -3.0215452418
   20      S       0.3128943739     2.7404942544    -2.8396436910
   21      C       1.9302572874     0.6795568237    -3.0811392658
   22      C       3.3437030715    -1.4175261247    -3.2413925738
   23      C       2.0203458372     2.9917721537    -3.2753384439
   24      C       2.7993883647     1.8016140016    -3.3731664217
   25      N       4.5310097229    -0.8587032878    -3.5625295421
   26      S       3.3931247309    -3.1610715912    -3.3127277396
   27      C       5.5412558782    -1.7500524288    -3.8255303306
   28      C       5.0604257032    -3.0837997205    -3.8651094244
   29      C      -9.6595809503     1.9887092321     0.5178180272
   30      H      -8.1355126847     3.5343652620    -1.3980053882
   31      H      -5.7902814118     2.8439492882    -2.2168601125
   32      H      -6.1415038073    -0.6273265689     0.3878761031
   33      H      -3.8128469190     2.6409651927    -2.1659161863
   34      H       2.3785579380     4.0098572481    -3.3470031592
   35      H       3.8479538954     1.6775365908    -3.6218592526
   36      H       6.5500001077    -1.4185319642    -4.0330183085
   37      H       5.6020294031    -3.9688322959    -4.1714732159
   38      H      -9.6801585604     1.8803948813     1.6090332045
   39      C     -10.7358367506     1.0149886208    -0.0347592285
   40      H     -10.0789488244     2.9621228345     0.2324646591
   41      H     -10.3952364882     0.4734206196    -0.9257859181
   42      H     -11.6520617114     1.6076615786    -0.1402276419
   43      C     -11.1758461985    -0.1285188484     0.9912321719
   44      H     -11.8645462586    -0.8206261467     0.4915745742
   45      C     -11.8471750884     0.3610394232     2.2995028702
   46      H     -10.2555281388    -0.6956534297     1.1770251634
   47      H     -12.4533211493     1.2279130821     2.0102572785
   48      H     -11.1230992476     0.8881049153     2.9333050032
   49      C     -12.6283374851    -0.7415798788     3.0561639468
   50      H     -13.2081518666    -1.2758567927     2.2927214392
   51      C     -13.2786827030    -0.3720994264     4.3643811661
   52      H     -11.9198088584    -1.5457913253     3.2896936762
   53      H     -14.1348286219     0.2787899647     4.1500212672
   54      H     -12.5992766092     0.2441853717     4.9683583240
   55      H     -13.7089394843    -1.2325131462     4.8923597006
   56      C       1.9750268243    -5.1286191038     0.3880247668
   57      C       0.8999196077    -4.1987714490     0.4483141664
   58      N       3.2555845675    -4.8100785412     0.6712698486
   59      C       1.1800786384    -2.8608085427     0.8054138430
   60      C       3.4998201399    -3.5730232594     1.0089490082
   61      C       2.5146908141    -2.4999324697     1.0083419099
   62      C       2.9518893983    -1.1232516123     1.1803105548
   63      C       2.3755736588    -0.1302120783     0.3717323876
   64      C       3.8778528564    -0.6542896346     2.1373577521
   65      N       2.6989685114     1.1549797763     0.4273890682
   66      N       4.6121459317    -1.5739202090     2.8740729524
   67      C       4.2019227621     0.6463204641     2.2262231974
   68      C       3.5915299228     1.5910034822     1.3705663871
   69      S       5.7460449307    -0.5997663456     3.5302797112
   70      N       5.1929968089     0.8971758842     3.1462279756
   71      C       3.6821683703     3.0493073590     1.4823540187
   72      S       2.9239901543     3.9467401536     0.1521923098
   73      C       3.9937475560     3.9486654090     2.4756805054
   74      C       3.2896860594     5.5362470541     0.9024078243
   75      S       4.5382786193     3.6629665574     4.1091464791
   76      C       3.7421180521     5.2537329524     2.1619986604
   77      C       2.7851396605     6.7876149976     0.4953375582
   78      C       4.5888630453     5.4612603734     4.3007621550
   79      C       4.1728729195     6.1178832156     3.1444362242
   80      N       2.0128696372     7.4286499496     1.2967732707
   81      S       2.6697639785     7.2992872569    -1.1407125483
   82      C       1.1340489458     8.3013231064     0.7063617585
   83      C       1.1782879463     8.1641023490    -0.7060412912
   84      C       1.6882943850    -6.5844859877    -0.1239343375
   85      H      -0.1416108302    -4.4683076779     0.3022642835
   86      H       0.3601756070    -2.1607397300     0.9304605403
   87      H       4.5348073279    -3.2609294625     1.1452500815
   88      H       1.7741926258    -0.3851937196    -0.4985699827
   89      H       5.0163641186     6.0079151494     5.1315355225
   90      H       4.2224666319     7.1978395463     3.0669714740
   91      H       0.4260488894     8.8701133605     1.2947362709
   92      H       0.5432434114     8.6279609449    -1.4482910078
   93      H       0.8356034749    -6.6157633136    -0.8134254112
   94      C       1.3695968967    -7.5676153927     0.9716579608
   95      H       2.5177869640    -6.9520247860    -0.7399207766
   96      H       0.5609210998    -7.1942516360     1.6131538382
   97      H       2.2421505803    -7.7599966879     1.6094161489
   98      C       1.1439668356    -9.0175106535     0.4240360035
   99      H       0.2185824206    -9.0705318552    -0.1611053783
  100      C       1.0014957999   -10.0742369573     1.5426876574
  101      H       1.9602182518    -9.2963201366    -0.2531123538
  102      H       0.7081047181   -10.9973629324     1.0290592827
  103      H       0.2160135252    -9.8882415737     2.2864828667
  104      C       2.3924917542   -10.3223156545     2.2149481836
  105      H       3.1568924578   -10.4159910326     1.4346210165
  106      C       2.4176422388   -11.6685787224     2.9644501550
  107      H       2.7151594559    -9.5276874848     2.8981235829
  108      H       2.0529629020   -12.5484854758     2.4216655876
  109      H       1.9226803874   -11.5257035781     3.9320634346
  110      H       3.4393204632   -11.8998681409     3.2877500323
 ----------------------------------------------------------------

   10   -5663.4874543237      8.23E-06 Convergence criterion met
 Total energy in the final basis set = -5663.4874543237

                    Orbital Energies (a.u.)
 --------------------------------------------------------------

 Alpha MOs
 -- Occupied --
-88.990 -88.989 -88.928 -88.924 -88.922 -88.913 -88.909 -88.906
-14.400 -14.395 -14.388 -14.386 -14.353 -14.343 -14.341 -14.337
-14.336 -14.327 -10.269 -10.266 -10.265 -10.263 -10.259 -10.259
-10.251 -10.249 -10.245 -10.245 -10.244 -10.237 -10.236 -10.236
-10.236 -10.235 -10.233 -10.232 -10.231 -10.231 -10.229 -10.228
-10.227 -10.226 -10.226 -10.226 -10.224 -10.221 -10.220 -10.214
-10.213 -10.208 -10.208 -10.207 -10.203 -10.198 -10.193 -10.189
-10.183 -10.182 -10.182 -10.177 -10.177 -10.177 -10.176 -10.176
-10.174 -10.172 -10.172 -10.168  -8.046  -8.044  -7.986  -7.985
 -7.983  -7.971  -7.968  -7.966  -6.011  -6.009  -6.005  -6.004
 -6.004  -6.002  -5.951  -5.949  -5.947  -5.947  -5.945  -5.944
 -5.943  -5.942  -5.940  -5.935  -5.933  -5.932  -5.930  -5.929
 -5.928  -5.927  -5.925  -5.922  -1.040  -1.036  -0.978  -0.960
 -0.956  -0.954  -0.941  -0.932  -0.915  -0.913  -0.910  -0.899
 -0.840  -0.838  -0.833  -0.829  -0.809  -0.805  -0.803  -0.798
 -0.797  -0.797  -0.796  -0.792  -0.779  -0.778  -0.765  -0.764
 -0.747  -0.747  -0.738  -0.737  -0.723  -0.715  -0.708  -0.708
 -0.691  -0.690  -0.673  -0.670  -0.656  -0.650  -0.646  -0.641
 -0.637  -0.629  -0.625  -0.622  -0.611  -0.608  -0.599  -0.594
 -0.594  -0.590  -0.585  -0.585  -0.582  -0.575  -0.562  -0.558
 -0.553  -0.552  -0.541  -0.540  -0.523  -0.519  -0.507  -0.505
 -0.505  -0.505  -0.498  -0.497  -0.484  -0.481  -0.480  -0.477
 -0.473  -0.471  -0.469  -0.469  -0.459  -0.457  -0.451  -0.450
 -0.447  -0.443  -0.438  -0.434  -0.431  -0.429  -0.428  -0.425
 -0.425  -0.424  -0.420  -0.419  -0.417  -0.416  -0.414  -0.410
 -0.409  -0.409  -0.402  -0.400  -0.398  -0.396  -0.395  -0.394
 -0.393  -0.392  -0.390  -0.388  -0.387  -0.385  -0.383  -0.382
 -0.380  -0.375  -0.375  -0.373  -0.365  -0.365  -0.358  -0.358
 -0.355  -0.351  -0.351  -0.350  -0.344  -0.343  -0.341  -0.341
 -0.338  -0.337  -0.331  -0.328  -0.325  -0.324  -0.320  -0.319
 -0.318  -0.314  -0.306  -0.304  -0.302  -0.299  -0.298  -0.297
 -0.293  -0.293  -0.288  -0.286  -0.284  -0.283  -0.278  -0.276
 -0.272  -0.270  -0.270  -0.263  -0.262  -0.251  -0.247  -0.246
 -0.244  -0.238  -0.231  -0.227  -0.190  -0.188

          Ground-State Mulliken Net Atomic Charges

     Atom                 Charge (a.u.)
  ----------------------------------------
      1 C                     0.258573
      2 C                    -0.118038
      3 N                    -0.464076
      4 C                    -0.084920
      5 C                     0.065192
      6 C                     0.034988
      7 C                     0.057725
      8 C                     0.049602
      9 C                     0.184776
     10 N                    -0.537089
     11 N                    -0.523976
     12 C                     0.214031
     13 C                     0.323781
     14 S                     0.596478
     15 N                    -0.560198
     16 C                    -0.227655
     17 S                     0.314951
     18 C                    -0.114019
     19 C                    -0.259326
     20 S                     0.303750
     21 C                     0.190047
     22 C                     0.060538
     23 C                    -0.312578
     24 C                    -0.047315
     25 N                    -0.449906
     26 S                     0.274056
     27 C                     0.125799
     28 C                    -0.315017
     29 C                    -0.215576
     30 H                     0.103128
     31 H                     0.101065
     32 H                     0.123329
     33 H                     0.106055
     34 H                     0.132354
     35 H                     0.133374
     36 H                     0.122568
     37 H                     0.135992
     38 H                     0.122636
     39 C                    -0.183636
     40 H                     0.086629
     41 H                     0.101624
     42 H                     0.093944
     43 C                    -0.192004
     44 H                     0.083264
     45 C                    -0.173297
     46 H                     0.114725
     47 H                     0.081332
     48 H                     0.090343
     49 C                    -0.176956
     50 H                     0.091216
     51 C                    -0.318289
     52 H                     0.096465
     53 H                     0.100934
     54 H                     0.107369
     55 H                     0.104013
     56 C                     0.253171
     57 C                    -0.119469
     58 N                    -0.469697
     59 C                    -0.065307
     60 C                     0.112827
     61 C                     0.013167
     62 C                     0.003770
     63 C                     0.081880
     64 C                     0.212599
     65 N                    -0.517934
     66 N                    -0.530788
     67 C                     0.228007
     68 C                     0.295474
     69 S                     0.613348
     70 N                    -0.555834
     71 C                    -0.253935
     72 S                     0.338699
     73 C                    -0.099838
     74 C                    -0.211545
     75 S                     0.271850
     76 C                     0.171546
     77 C                     0.019993
     78 C                    -0.313872
     79 C                    -0.054857
     80 N                    -0.387819
     81 S                     0.237184
     82 C                     0.107558
     83 C                    -0.309212
     84 C                    -0.218204
     85 H                     0.092867
     86 H                     0.104214
     87 H                     0.108517
     88 H                     0.108883
     89 H                     0.121058
     90 H                     0.109951
     91 H                     0.123154
     92 H                     0.134057
     93 H                     0.095741
     94 C                    -0.169221
     95 H                     0.107989
     96 H                     0.089969
     97 H                     0.111061
     98 C                    -0.184902
     99 H                     0.080180
    100 C                    -0.171179
    101 H                     0.094252
    102 H                     0.089237
    103 H                     0.092960
    104 C                    -0.175574
    105 H                     0.094414
    106 C                    -0.325635
    107 H                     0.103068
    108 H                     0.103109
    109 H                     0.101063
    110 H                     0.095225
  ----------------------------------------
  Sum of atomic charges =     0.000000

                    Cartesian Multipole Moments
 -----------------------------------------------------------------
    Charge (ESU x 10^10)
                 0.0000
    Dipole Moment (Debye)
         X      -0.2913      Y       1.6402      Z      -1.7716
       Tot       2.4318
    Quadrupole Moments (Debye-Ang)
        XX    -430.0442     XY     -11.0803     YY    -409.9975
        XZ       2.7667     YZ       0.7334     ZZ    -444.7927

 Total job time:  98.84s(wall), 1180.44s(cpu)
        *  Thank you very much for using Q-Chem.  Have a nice day.  *
