 Q-Chem 4.4, Q-Chem, Inc., Pleasanton, CA (2016)
 Q-Chem 4.4.2 for Intel X86 Linux

User input:
--------------------------------------------------------------
$comment
SP
$end

$rem
MEM_STATIC 5000
MEM_TOTAL 20000
JOBTYPE SP
EXCHANGE B3LYP
BASIS 6-31g(d,p)
$end

$molecule
0 1
C         -15.039000     14.557000      8.969000
C         -14.291000     15.191000      7.979000
N         -16.300000     14.947000      9.243000
C         -14.767000     16.330000      7.297000
C         -16.768000     16.047000      8.625000
C         -16.042000     16.782000      7.622000
C         -16.725000     17.852000      6.944000
C         -17.909000     17.725000      6.295000
C         -16.041000     19.099000      6.820000
N         -18.448000     18.631000      5.504000
N         -14.903000     19.384000      7.432000
C         -16.645000     20.055000      6.004000
C         -17.910000     19.812000      5.343000
S         -14.614000     20.903000      6.905000
N         -15.836000     21.159000      5.832000
C         -18.435000     20.839000      4.449000
S         -18.586000     22.548000      4.720000
C         -19.105000     20.572000      3.282000
C         -19.404000     22.847000      3.217000
S         -19.126000     19.068000      2.418000
C         -19.567000     21.648000      2.570000
C         -19.995000     24.063000      2.764000
C         -19.938000     19.877000      1.115000
C         -20.151000     21.175000      1.304000
N         -20.382000     24.212000      1.512000
S         -20.093000     25.590000      3.728000
C         -20.899000     25.530000      1.276000
C         -20.805000     26.359000      2.359000
C         -14.614000     13.184000      9.580000
H         -13.370000     14.735000      7.629000
H         -14.092000     16.786000      6.578000
H         -17.797000     16.321000      8.856000
H         -18.412000     16.764000      6.386000
H         -20.211000     19.251000      0.275000
H         -20.648000     21.873000      0.640000
H         -21.330000     25.791000      0.319000
H         -20.969000     27.420000      2.491000
H         -13.705000     12.870000      9.052000
C         -15.597000     11.980000      9.668000
H         -14.169000     13.364000     10.566000
H         -15.084000     11.017000      9.552000
H         -16.304000     12.109000      8.840000
C         -16.405000     11.955000     11.002000
H         -16.778000     12.921000     11.363000
C         -15.416000     11.460000     12.120000
H         -17.230000     11.244000     10.863000
H         -14.420000     11.920000     12.108000
H         -15.082000     10.434000     11.920000
C         -16.089000     11.643000     13.535000
H         -16.734000     12.515000     13.701000
C         -15.103000     11.369000     14.710000
H         -16.815000     10.824000     13.609000
H         -15.553000     11.587000     15.686000
H         -14.298000     12.106000     14.597000
H         -14.767000     10.325000     14.717000
C         -17.709000     14.644000      3.611000
C         -17.307000     13.713000      2.658000
N         -17.040000     15.790000      3.799000
C         -16.233000     13.948000      1.854000
C         -16.079000     16.113000      2.892000
C         -15.548000     15.209000      1.942000
C         -14.411000     15.573000      0.982000
C         -13.150000     15.951000      1.444000
C         -14.483000     15.256000     -0.440000
N         -12.110000     16.121000      0.618000
N         -15.620000     14.918000     -1.049000
C         -13.401000     15.504000     -1.286000
C         -12.209000     16.027000     -0.748000
S         -15.292000     14.912000     -2.626000
N         -13.701000     15.309000     -2.586000
C         -11.073000     16.409000     -1.549000
S         -11.123000     16.819000     -3.310000
C          -9.801000     16.582000     -1.043000
C          -9.445000     17.348000     -3.201000
S          -9.206000     16.441000      0.557000
C          -8.931000     17.118000     -1.979000
C          -8.629000     17.813000     -4.318000
C          -7.680000     17.196000      0.010000
C          -7.665000     17.459000     -1.388000
N          -7.335000     17.966000     -4.278000
S          -9.340000     18.360000     -5.740000
C          -6.809000     18.570000     -5.366000
C          -7.758000     18.863000     -6.347000
C         -18.883000     14.439000      4.519000
H         -17.868000     12.795000      2.510000
H         -16.046000     13.185000      1.104000
H         -15.682000     17.122000      2.997000
H         -12.970000     16.089000      2.510000
H          -6.962000     17.375000      0.799000
H          -6.762000     17.707000     -1.934000
H          -5.773000     18.881000     -5.389000
H          -7.602000     19.312000     -7.319000
H         -19.436000     15.386000      4.490000
C         -18.534000     14.004000      5.910000
H         -19.507000     13.621000      4.140000
H         -17.674000     14.542000      6.327000
H         -18.244000     12.948000      5.848000
C         -19.793000     14.158000      6.852000
H         -19.861000     15.239000      7.029000
C         -19.645000     13.282000      8.057000
H         -20.707000     13.909000      6.299000
H         -18.788000     13.592000      8.668000
H         -19.410000     12.240000      7.811000
C         -20.869000     13.074000      8.979000
H         -21.663000     12.471000      8.524000
C         -21.328000     14.292000      9.745000
H         -20.541000     12.390000      9.773000
H         -21.735000     15.055000      9.071000
H         -20.491000     14.789000     10.252000
H         -22.058000     13.973000     10.498000
$end

--------------------------------------------------------------

             Standard Nuclear Orientation (Angstroms)
    I     Atom           X                Y                Z
 ----------------------------------------------------------------
    1      C      -4.9608429638     3.7239258594    -1.5684735598
    2      C      -3.6505074779     3.3963451124    -1.9109232182
    3      N      -5.8098664555     2.7885038892    -1.0978974786
    4      C      -3.1825696218     2.0660989899    -1.8885532251
    5      C      -5.3963394814     1.5079172181    -1.0914772447
    6      C      -4.0734116027     1.0831546092    -1.4692980408
    7      C      -3.7283223266    -0.3003474127    -1.2745968677
    8      C      -3.8339065485    -0.9653535620    -0.0973947638
    9      C      -3.0940804586    -0.9819822102    -2.3568871503
   10      N      -3.3394977294    -2.1613983614     0.1517532993
   11      N      -2.9610465717    -0.4786948913    -3.5733643838
   12      C      -2.6067610153    -2.2589474463    -2.0803233311
   13      C      -2.7609363949    -2.8747741898    -0.7790999166
   14      S      -2.1643250983    -1.6787814384    -4.3438435679
   15      N      -1.8848427042    -2.7668063489    -3.1404149720
   16      C      -2.1568806531    -4.1840618143    -0.5544388893
   17      S      -2.2361557237    -5.6070399049    -1.5472993109
   18      C      -1.5743435859    -4.5687205884     0.6265633093
   19      C      -1.3763309814    -6.6048216844    -0.4147504452
   20      S      -1.0639053496    -3.5301371332     1.9187514587
   21      C      -1.0822683293    -5.8462111098     0.6901550498
   22      C      -1.1507779224    -8.0114143872    -0.4761408831
   23      C      -0.3000711763    -4.9002421722     2.6610475844
   24      C      -0.3986144319    -6.0370685446     1.9800123241
   25      N      -0.2909832993    -8.6033526308     0.3299833764
   26      S      -1.8051315793    -9.1113852405    -1.7538397575
   27      C      -0.1937351799   -10.0083086351     0.0529446978
   28      C      -0.9381828603   -10.4091876101    -1.0213270083
   29      C      -5.4278013039     5.2035911859    -1.3906662765
   30      H      -2.9279625742     4.1881815692    -2.0829723038
   31      H      -2.1612992495     1.9022248663    -2.2212303932
   32      H      -6.1012453436     0.7823812232    -0.6865287968
   33      H      -4.3060175277    -0.4281220552     0.7231565944
   34      H       0.1729699139    -4.7101239979     3.6160827705
   35      H      -0.0156524377    -7.0136742622     2.2533077383
   36      H       0.4110238366   -10.6534439884     0.6756789172
   37      H      -0.9945525459   -11.3377696189    -1.5732318113
   38      H      -4.5439971451     5.8353341833    -1.5438067159
   39      C      -6.1855771193     5.6827079646    -0.1179243835
   40      H      -5.9905887512     5.5012262219    -2.2835854635
   41      H      -5.9435331694     6.7208706488     0.1421274717
   42      H      -5.8532819493     5.0253114600     0.6941616684
   43      C      -7.7342171051     5.5519167971    -0.2507884670
   44      H      -8.1059775861     4.6375957008    -0.7287184594
   45      C      -8.2073090851     6.7206040242    -1.1906949217
   46      H      -8.1524367782     5.6640767783     0.7581612065
   47      H      -7.6052164891     6.8735709471    -2.0950430993
   48      H      -7.9988586641     7.6970589261    -0.7353749831
   49      C      -9.7239825573     6.5086614548    -1.5694097566
   50      H     -10.0902746263     5.4849948590    -1.7174023941
   51      C     -10.2168649498     7.5067805022    -2.6596951847
   52      H     -10.2818147202     6.8069147478    -0.6732059566
   53      H     -11.2432001804     7.2930384021    -2.9814875230
   54      H      -9.5952657936     7.3096743208    -3.5421500800
   55      H     -10.1827183701     8.5425553279    -2.3006888874
   56      C      -1.8949402744     1.0999126159     2.8541306727
   57      C      -1.0083796673     1.8766256834     3.5939286862
   58      N      -1.5428573718     0.5585450819     1.6797458027
   59      C       0.2671156385     2.0890004470     3.1659968170
   60      C      -0.2297920793     0.6168454106     1.3290898327
   61      C       0.7266052379     1.4410018376     1.9676408139
   62      C       2.1832138293     1.5486211746     1.5054996128
   63      C       2.5195272926     2.0099454736     0.2325023050
   64      C       3.2908597896     1.4707839548     2.4514482339
   65      N       3.7866283967     2.2527506196    -0.1256547177
   66      N       3.1487921150     1.0120561548     3.6953451675
   67      C       4.6074459093     1.6679599780     2.0323222323
   68      C       4.8627958262     1.9896752576     0.6850536255
   69      S       4.6405539842     0.8607035234     4.2838074913
   70      N       5.5078916944     1.3940678623     2.9978301282
   71      C       6.1884066398     2.1154460330     0.1328229827
   72      S       7.6878899743     1.3828578072     0.8303795903
   73      C       6.4665082140     2.7597435968    -1.0552381116
   74      C       8.5615176894     1.8691300380    -0.6214192708
   75      S       5.4278336301     3.5294109131    -2.1789254930
   76      C       7.7836830271     2.5889329597    -1.4504168534
   77      C       9.9917031655     1.6895537049    -0.8496556493
   78      C       6.7987239201     3.6115363208    -3.3242748852
   79      C       8.0099383732     3.1103400927    -2.7715001664
   80      N      10.6682608266     2.2640221307    -1.8044858746
   81      S      10.8739007928     0.5629106060     0.0330768550
   82      C      11.9381814696     1.8217982138    -1.9347761964
   83      C      12.2912038750     0.8686710576    -0.9778358611
   84      C      -3.3066354900     0.8314108539     3.2781453211
   85      H      -1.3059607105     2.2974228511     4.5498179405
   86      H       0.8918468045     2.6559677889     3.8500267896
   87      H       0.0284427040     0.0248829337     0.4518155184
   88      H       1.7430716668     2.2172068952    -0.5036765893
   89      H       6.5459069928     4.0144313584    -4.2957918382
   90      H       8.9804472999     3.2749469353    -3.2254230789
   91      H      12.5509351590     2.1158194015    -2.7765781074
   92      H      13.2463652071     0.3800645258    -0.8376521005
   93      H      -3.4509636668    -0.2455024759     3.1268639360
   94      C      -4.3409281037     1.6664337707     2.5861319415
   95      H      -3.4314434280     1.0881143782     4.3367610584
   96      H      -4.1594011743     1.7730580382     1.5097434245
   97      H      -4.2752370923     2.6729533405     3.0170414989
   98      C      -5.7785119707     1.0657299513     2.8481787821
   99      H      -5.8186595941     0.1815209654     2.1992746000
  100      C      -6.8232413568     2.1153436584     2.6287327168
  101      H      -5.8366770124     0.6650435051     3.8676262794
  102      H      -6.8357929750     2.4478247937     1.5831856105
  103      H      -6.6312433319     3.0423374832     3.1812942130
  104      C      -8.2736809059     1.8255281900     3.0801262357
  105      H      -8.3969399626     1.7993968448     4.1687925563
  106      C      -8.9961285146     0.7440669558     2.3123554030
  107      H      -8.8534717006     2.7277087731     2.8439296442
  108      H      -8.5481890221    -0.2397773754     2.4953705470
  109      H      -8.9075254285     0.8908916527     1.2282802204
  110      H     -10.0568713908     0.7735329721     2.5873577748
 ----------------------------------------------------------------

    9   -5663.5280011402      6.85E-06 Convergence criterion met
 Total energy in the final basis set = -5663.5280011402

                    Orbital Energies (a.u.)
 --------------------------------------------------------------

 Alpha MOs
 -- Occupied --
-88.989 -88.982 -88.930 -88.925 -88.925 -88.916 -88.909 -88.896
-14.389 -14.386 -14.382 -14.381 -14.346 -14.343 -14.341 -14.338
-14.330 -14.328 -10.269 -10.266 -10.263 -10.261 -10.255 -10.253
-10.250 -10.247 -10.241 -10.240 -10.239 -10.236 -10.234 -10.234
-10.234 -10.231 -10.230 -10.229 -10.227 -10.227 -10.227 -10.226
-10.226 -10.225 -10.224 -10.220 -10.217 -10.213 -10.211 -10.210
-10.208 -10.208 -10.205 -10.202 -10.201 -10.197 -10.191 -10.188
-10.185 -10.180 -10.178 -10.176 -10.176 -10.175 -10.175 -10.173
-10.169 -10.169 -10.167 -10.164  -8.045  -8.038  -7.988  -7.987
 -7.985  -7.978  -7.969  -7.958  -6.010  -6.004  -6.003  -6.003
 -5.997  -5.995  -5.952  -5.951  -5.949  -5.949  -5.947  -5.945
 -5.945  -5.944  -5.942  -5.942  -5.938  -5.935  -5.934  -5.930
 -5.926  -5.923  -5.919  -5.914  -1.044  -1.037  -0.980  -0.968
 -0.954  -0.953  -0.937  -0.937  -0.919  -0.916  -0.907  -0.906
 -0.851  -0.843  -0.838  -0.825  -0.811  -0.807  -0.807  -0.805
 -0.798  -0.798  -0.794  -0.793  -0.784  -0.776  -0.770  -0.761
 -0.752  -0.744  -0.741  -0.734  -0.727  -0.727  -0.711  -0.706
 -0.694  -0.690  -0.675  -0.672  -0.651  -0.650  -0.644  -0.641
 -0.637  -0.636  -0.623  -0.622  -0.612  -0.611  -0.602  -0.596
 -0.590  -0.587  -0.585  -0.581  -0.580  -0.579  -0.566  -0.558
 -0.553  -0.546  -0.541  -0.540  -0.523  -0.523  -0.510  -0.509
 -0.506  -0.505  -0.500  -0.500  -0.492  -0.490  -0.479  -0.476
 -0.473  -0.469  -0.465  -0.463  -0.463  -0.451  -0.448  -0.445
 -0.440  -0.439  -0.439  -0.437  -0.437  -0.436  -0.431  -0.430
 -0.427  -0.426  -0.423  -0.421  -0.420  -0.414  -0.413  -0.411
 -0.410  -0.409  -0.406  -0.404  -0.402  -0.401  -0.399  -0.398
 -0.396  -0.394  -0.392  -0.386  -0.384  -0.383  -0.379  -0.376
 -0.375  -0.374  -0.372  -0.367  -0.365  -0.359  -0.355  -0.351
 -0.350  -0.348  -0.347  -0.346  -0.343  -0.343  -0.340  -0.339
 -0.339  -0.337  -0.335  -0.335  -0.328  -0.327  -0.321  -0.319
 -0.315  -0.314  -0.305  -0.304  -0.302  -0.302  -0.297  -0.294
 -0.292  -0.291  -0.287  -0.287  -0.283  -0.280  -0.276  -0.274
 -0.270  -0.266  -0.265  -0.263  -0.253  -0.252  -0.250  -0.249
 -0.247  -0.245  -0.233  -0.232  -0.195  -0.195

          Ground-State Mulliken Net Atomic Charges

     Atom                 Charge (a.u.)
  ----------------------------------------
      1 C                     0.270336
      2 C                    -0.129645
      3 N                    -0.473750
      4 C                    -0.031046
      5 C                     0.068023
      6 C                     0.018843
      7 C                     0.023637
      8 C                     0.106627
      9 C                     0.239708
     10 N                    -0.518835
     11 N                    -0.545567
     12 C                     0.162439
     13 C                     0.293695
     14 S                     0.587295
     15 N                    -0.531985
     16 C                    -0.203238
     17 S                     0.323716
     18 C                    -0.116027
     19 C                    -0.238501
     20 S                     0.269211
     21 C                     0.153449
     22 C                     0.072224
     23 C                    -0.309289
     24 C                    -0.029844
     25 N                    -0.450303
     26 S                     0.244451
     27 C                     0.111797
     28 C                    -0.299601
     29 C                    -0.228410
     30 H                     0.090418
     31 H                     0.106673
     32 H                     0.105498
     33 H                     0.106020
     34 H                     0.128865
     35 H                     0.122422
     36 H                     0.117747
     37 H                     0.140009
     38 H                     0.088003
     39 C                    -0.179010
     40 H                     0.115313
     41 H                     0.094054
     42 H                     0.099967
     43 C                    -0.172322
     44 H                     0.120043
     45 C                    -0.177136
     46 H                     0.090424
     47 H                     0.088652
     48 H                     0.085239
     49 C                    -0.187216
     50 H                     0.097374
     51 C                    -0.321403
     52 H                     0.093751
     53 H                     0.097024
     54 H                     0.101659
     55 H                     0.104372
     56 C                     0.276660
     57 C                    -0.117565
     58 N                    -0.479777
     59 C                    -0.046882
     60 C                     0.063098
     61 C                     0.012667
     62 C                     0.010586
     63 C                     0.082472
     64 C                     0.207412
     65 N                    -0.535195
     66 N                    -0.529249
     67 C                     0.215249
     68 C                     0.307026
     69 S                     0.600703
     70 N                    -0.576382
     71 C                    -0.215314
     72 S                     0.322319
     73 C                    -0.093362
     74 C                    -0.226185
     75 S                     0.288537
     76 C                     0.151812
     77 C                     0.083192
     78 C                    -0.316456
     79 C                    -0.057370
     80 N                    -0.443198
     81 S                     0.259515
     82 C                     0.126771
     83 C                    -0.320569
     84 C                    -0.229123
     85 H                     0.086830
     86 H                     0.104464
     87 H                     0.101100
     88 H                     0.115009
     89 H                     0.132944
     90 H                     0.133504
     91 H                     0.118799
     92 H                     0.135154
     93 H                     0.128924
     94 C                    -0.182162
     95 H                     0.093894
     96 H                     0.118038
     97 H                     0.088111
     98 C                    -0.175306
     99 H                     0.095819
    100 C                    -0.191339
    101 H                     0.090896
    102 H                     0.122406
    103 H                     0.085998
    104 C                    -0.187177
    105 H                     0.087744
    106 C                    -0.311679
    107 H                     0.088754
    108 H                     0.100045
    109 H                     0.104423
    110 H                     0.097564
  ----------------------------------------
  Sum of atomic charges =     0.000000

                    Cartesian Multipole Moments
 -----------------------------------------------------------------
    Charge (ESU x 10^10)
                 0.0000
    Dipole Moment (Debye)
         X       3.7406      Y      -0.0623      Z       0.5234
       Tot       3.7775
    Quadrupole Moments (Debye-Ang)
        XX    -419.7937     XY      -8.2124     YY    -417.9243
        XZ      -4.9352     YZ       4.5262     ZZ    -424.2295

 Total job time:  87.73s(wall), 1053.70s(cpu)
        *  Thank you very much for using Q-Chem.  Have a nice day.  *
