 Q-Chem 4.4, Q-Chem, Inc., Pleasanton, CA (2016)
 Q-Chem 4.4.2 for Intel X86 Linux

User input:
--------------------------------------------------------------
$comment
SP
$end

$rem
MEM_STATIC 5000
MEM_TOTAL 20000
JOBTYPE SP
EXCHANGE B3LYP
BASIS 6-31g(d,p)
$end

$molecule
0 1
C         -17.861000     22.141000     -5.438000
C         -18.497000     22.139000     -4.105000
N         -17.845000     21.041000     -6.233000
C         -19.061000     20.942000     -3.684000
C         -18.499000     19.980000     -5.793000
C         -19.065000     19.852000     -4.538000
C         -19.758000     18.617000     -4.120000
C         -20.673000     18.014000     -5.043000
C         -19.469000     17.822000     -2.959000
N         -21.314000     16.882000     -4.745000
N         -18.533000     18.127000     -2.061000
C         -20.243000     16.705000     -2.692000
C         -21.157000     16.262000     -3.630000
S         -18.674000     16.950000     -0.897000
N         -19.855000     16.101000     -1.540000
C         -22.050000     15.112000     -3.282000
S         -22.400000     14.521000     -1.605000
C         -22.976000     14.574000     -4.095000
C         -23.764000     13.529000     -2.177000
S         -23.126000     14.834000     -5.786000
C         -23.912000     13.768000     -3.550000
C         -24.314000     12.449000     -1.398000
C         -24.488000     13.709000     -5.875000
C         -24.754000     13.185000     -4.599000
N         -25.187000     11.663000     -1.962000
S         -23.718000     11.979000      0.152000
C         -25.397000     10.538000     -1.109000
C         -24.644000     10.527000      0.003000
C         -17.166000     23.370000     -6.018000
H         -18.470000     23.042000     -3.501000
H         -19.638000     20.897000     -2.765000
H         -18.531000     19.182000     -6.532000
H         -20.915000     18.308000     -6.063000
H         -24.912000     13.477000     -6.842000
H         -25.342000     12.277000     -4.532000
H         -26.038000      9.808000     -1.588000
H         -24.417000      9.719000      0.687000
H         -16.150000     23.378000     -5.605000
C         -17.833000     24.675000     -5.700000
H         -17.102000     23.241000     -7.106000
H         -17.218000     25.498000     -6.084000
H         -17.815000     24.768000     -4.608000
C         -19.263000     24.852000     -6.154000
H         -19.912000     24.228000     -5.528000
C         -19.411000     24.522000     -7.598000
H         -19.467000     25.909000     -5.946000
H         -20.473000     24.634000     -7.848000
H         -19.153000     23.476000     -7.809000
C         -18.635000     25.413000     -8.615000
H         -19.019000     26.433000     -8.743000
C         -18.600000     24.759000     -9.973000
H         -17.590000     25.379000     -8.285000
H         -18.264000     25.423000    -10.779000
H         -19.524000     24.269000    -10.305000
H         -17.940000     23.884000     -9.988000
C         -17.709000     14.644000      3.611000
C         -17.307000     13.713000      2.658000
N         -17.040000     15.790000      3.799000
C         -16.233000     13.948000      1.854000
C         -16.079000     16.113000      2.892000
C         -15.548000     15.209000      1.942000
C         -14.411000     15.573000      0.982000
C         -13.150000     15.951000      1.444000
C         -14.483000     15.256000     -0.440000
N         -12.110000     16.121000      0.618000
N         -15.620000     14.918000     -1.049000
C         -13.401000     15.504000     -1.286000
C         -12.209000     16.027000     -0.748000
S         -15.292000     14.912000     -2.626000
N         -13.701000     15.309000     -2.586000
C         -11.073000     16.409000     -1.549000
S         -11.123000     16.819000     -3.310000
C          -9.801000     16.582000     -1.043000
C          -9.445000     17.348000     -3.201000
S          -9.206000     16.441000      0.557000
C          -8.931000     17.118000     -1.979000
C          -8.629000     17.813000     -4.318000
C          -7.680000     17.196000      0.010000
C          -7.665000     17.459000     -1.388000
N          -7.335000     17.966000     -4.278000
S          -9.340000     18.360000     -5.740000
C          -6.809000     18.570000     -5.366000
C          -7.758000     18.863000     -6.347000
C         -18.883000     14.439000      4.519000
H         -17.868000     12.795000      2.510000
H         -16.046000     13.185000      1.104000
H         -15.682000     17.122000      2.997000
H         -12.970000     16.089000      2.510000
H          -6.962000     17.375000      0.799000
H          -6.762000     17.707000     -1.934000
H          -5.773000     18.881000     -5.389000
H          -7.602000     19.312000     -7.319000
H         -19.436000     15.386000      4.490000
C         -18.534000     14.004000      5.910000
H         -19.507000     13.621000      4.140000
H         -17.674000     14.542000      6.327000
H         -18.244000     12.948000      5.848000
C         -19.793000     14.158000      6.852000
H         -19.861000     15.239000      7.029000
C         -19.645000     13.282000      8.057000
H         -20.707000     13.909000      6.299000
H         -18.788000     13.592000      8.668000
H         -19.410000     12.240000      7.811000
C         -20.869000     13.074000      8.979000
H         -21.663000     12.471000      8.524000
C         -21.328000     14.292000      9.745000
H         -20.541000     12.390000      9.773000
H         -21.735000     15.055000      9.071000
H         -20.491000     14.789000     10.252000
H         -22.058000     13.973000     10.498000
$end

--------------------------------------------------------------

             Standard Nuclear Orientation (Angstroms)
    I     Atom           X                Y                Z
 ----------------------------------------------------------------
    1      C       2.8666717358     5.4234365872     2.4499401110
    2      C       1.8720088512     4.7426051397     3.3034641505
    3      N       2.7092371597     5.5376627428     1.1066427725
    4      C       0.7692028590     4.1946738697     2.6617973625
    5      C       1.5779379246     5.0792733525     0.5996139689
    6      C       0.6188012881     4.3674899391     1.2961671147
    7      C      -0.6079758616     3.8702386982     0.6419828683
    8      C      -1.3147474462     4.7621619270    -0.2284824562
    9      C      -1.0751993135     2.5121585898     0.6139174932
   10      N      -2.4152250770     4.3731277733    -0.8755608219
   11      N      -0.4615591299     1.5000735005     1.2260077619
   12      C      -2.2722896538     2.2196359192    -0.0181103576
   13      C      -2.9089603063     3.1912201342    -0.7678860529
   14      S      -1.4488165313     0.1912001495     0.9571595254
   15      N      -2.5756415613     0.9008440758     0.0878598938
   16      C      -4.2480394665     2.8835274491    -1.3622304097
   17      S      -5.3523848749     1.5474140661    -0.8337114916
   18      C      -4.9754681139     3.7264990281    -2.1159780332
   19      C      -6.7163602685     2.2341534541    -1.7500652106
   20      S      -4.4244890877     5.1816944078    -2.8428958551
   21      C      -6.2801084287     3.4408724880    -2.3136852117
   22      C      -7.8819357787     1.4611680496    -2.0959962651
   23      C      -6.0041425348     5.4480039024    -3.5928053432
   24      C      -6.8739564125     4.3992122538    -3.2507996473
   25      N      -8.7482854995     1.9840036467    -2.9170334749
   26      S      -8.0897714575    -0.2027951044    -1.6877721198
   27      C      -9.6677667485     0.9653658987    -3.3097997807
   28      C      -9.4092147620    -0.2513568882    -2.8034298269
   29      C       4.1477678005     6.0385613236     3.0069683254
   30      H       2.0519094586     4.6651315121     4.3723830476
   31      H      -0.0518898924     3.7760887073     3.2363477567
   32      H       1.4817379150     5.3057039312    -0.4603028916
   33      H      -1.0563134937     5.7751202906    -0.5326653712
   34      H      -6.1294664442     6.2860817248    -4.2640791184
   35      H      -7.7610651637     4.2532354893    -3.8561308358
   36      H     -10.3431466515     1.3320552815    -4.0730971560
   37      H      -9.7723878531    -1.2262534517    -3.1033147990
   38      H       4.8751133056     5.2220021235     3.0911620830
   39      C       3.9955432749     6.6972805359     4.3456074453
   40      H       4.5200318519     6.7665972642     2.2749409043
   41      H       4.9792098126     7.0307594213     4.6980304518
   42      H       3.6772512618     5.9095495308     5.0381441288
   43      C       3.0040718640     7.8322231013     4.4516018542
   44      H       1.9890763370     7.4200941299     4.4027470581
   45      C       3.2362861553     8.8470904305     3.3876183830
   46      H       3.1836882590     8.2340246499     5.4558042571
   47      H       2.4625576071     9.6162313658     3.5001099616
   48      H       3.1080425901     8.4251512801     2.3822717058
   49      C       4.5991953679     9.6035899303     3.4107048543
   50      H       4.7249539033    10.3317931525     4.2219661303
   51      C       4.8279815617    10.3224973107     2.1053566035
   52      H       5.3625641502     8.8166037705     3.4093313355
   53      H       5.6538523678    11.0440379728     2.1326418475
   54      H       3.9581299514    10.8245006317     1.6632583770
   55      H       5.0437544608     9.6253282540     1.2875257148
   56      C      -3.0835720137    -4.6667519963     1.5037859629
   57      C      -2.7911691122    -4.5551621295     0.1478279087
   58      N      -2.1187278131    -4.6501399115     2.4338508570
   59      C      -1.5101038735    -4.3906115495    -0.2845052509
   60      C      -0.8635336547    -4.3136975096     2.0316156834
   61      C      -0.4515702792    -4.2575256998     0.6792814403
   62      C       0.9878058952    -3.9520928400     0.2529341678
   63      C       2.0553139488    -4.7690874994     0.6262909434
   64      C       1.2824213327    -2.9862967656    -0.7997750450
   65      N       3.2888611367    -4.5989607874     0.1341586065
   66      N       0.3863797331    -2.1041438281    -1.2434073778
   67      C       2.5897708563    -2.7886749287    -1.2466831257
   68      C       3.6309012133    -3.5655365321    -0.7022837971
   69      S       1.1986628154    -1.0891021037    -2.1944255122
   70      N       2.6978852062    -1.7472740713    -2.0962833503
   71      C       5.0226398745    -3.3710614179    -1.0236308505
   72      S       5.7426200152    -1.8490041294    -1.6844570057
   73      C       6.0023630688    -4.3148709565    -0.7927304012
   74      C       7.3453544240    -2.5457550735    -1.4538349408
   75      S       5.9086136731    -5.8741101110    -0.0899571022
   76      C       7.2753911223    -3.8192292753    -1.0251758764
   77      C       8.6054467950    -1.9178621708    -1.8381365403
   78      C       7.6954557436    -5.9053162897    -0.0256796621
   79      C       8.2885025159    -4.7513926466    -0.6092494966
   80      N       9.7541446108    -2.5319450709    -1.8914330671
   81      S       8.7028401849    -0.2589371259    -2.0936677968
   82      C      10.8133901655    -1.7202530606    -2.1021246310
   83      C      10.4566612464    -0.3818306713    -2.2758513876
   84      C      -4.4730116126    -4.8461252467     2.0348677249
   85      H      -3.5862914354    -4.5578084262    -0.5918493779
   86      H      -1.4022085544    -4.2508646556    -1.3561709664
   87      H      -0.1568492388    -4.1572353186     2.8457604612
   88      H       1.9017261131    -5.5993164868     1.3154430349
   89      H       8.1101208998    -6.7804441985     0.4562850167
   90      H       9.3416641345    -4.6887872307    -0.8581674892
   91      H      11.8273329284    -2.0894483176    -2.0236330022
   92      H      11.0995609796     0.4619811057    -2.4888833526
   93      H      -4.5539344278    -4.1387013845     2.8694107000
   94      C      -4.8229566991    -6.2517281970     2.4192188438
   95      H      -5.2031782867    -4.6008562729     1.2545852385
   96      H      -4.0171798361    -6.7646387397     2.9582730360
   97      H      -4.9785920822    -6.8057641923     1.4854620534
   98      C      -6.1523136923    -6.2592649128     3.2729835552
   99      H      -5.8368360702    -5.8921976760     4.2579959986
  100      C      -6.7869231686    -7.6143977320     3.2261769871
  101      H      -6.8419608016    -5.4927799954     2.8986925775
  102      H      -6.1410120569    -8.3694628285     3.6915215216
  103      H      -6.9212435326    -7.9968188514     2.2077384140
  104      C      -8.2248607668    -7.7804442504     3.7705004364
  105      H      -8.9876412978    -7.3001926409     3.1471271509
  106      C      -8.3871661566    -7.5995760664     5.2611059042
  107      H      -8.4897440200    -8.8351385292     3.6177495270
  108      H      -8.1985772581    -6.5611435791     5.5580675121
  109      H      -7.6479659260    -8.1860724863     5.8216698777
  110      H      -9.3919156838    -7.9348656414     5.5434696563
 ----------------------------------------------------------------

   10   -5663.5264329507      4.29E-06 Convergence criterion met
 Total energy in the final basis set = -5663.5264329507

                    Orbital Energies (a.u.)
 --------------------------------------------------------------

 Alpha MOs
 -- Occupied --
-88.990 -88.988 -88.929 -88.924 -88.922 -88.920 -88.909 -88.897
-14.387 -14.384 -14.383 -14.376 -14.346 -14.341 -14.338 -14.338
-14.330 -14.328 -10.266 -10.264 -10.263 -10.256 -10.256 -10.253
-10.252 -10.247 -10.241 -10.240 -10.240 -10.240 -10.239 -10.238
-10.235 -10.234 -10.233 -10.229 -10.228 -10.228 -10.228 -10.226
-10.226 -10.226 -10.225 -10.222 -10.221 -10.221 -10.216 -10.209
-10.209 -10.208 -10.207 -10.206 -10.205 -10.201 -10.196 -10.192
-10.183 -10.180 -10.179 -10.179 -10.177 -10.176 -10.175 -10.175
-10.173 -10.171 -10.168 -10.166  -8.046  -8.044  -7.988  -7.987
 -7.985  -7.978  -7.969  -7.958  -6.011  -6.009  -6.005  -6.003
 -6.003  -6.002  -5.952  -5.950  -5.949  -5.948  -5.947  -5.945
 -5.944  -5.944  -5.943  -5.941  -5.939  -5.935  -5.933  -5.929
 -5.925  -5.923  -5.919  -5.914  -1.045  -1.042  -0.980  -0.973
 -0.968  -0.953  -0.943  -0.938  -0.916  -0.913  -0.908  -0.903
 -0.843  -0.837  -0.835  -0.826  -0.820  -0.813  -0.812  -0.810
 -0.809  -0.805  -0.798  -0.795  -0.787  -0.783  -0.772  -0.769
 -0.753  -0.750  -0.742  -0.737  -0.726  -0.722  -0.713  -0.713
 -0.695  -0.690  -0.676  -0.675  -0.658  -0.653  -0.646  -0.642
 -0.638  -0.635  -0.627  -0.624  -0.616  -0.614  -0.602  -0.599
 -0.596  -0.592  -0.587  -0.585  -0.581  -0.580  -0.563  -0.553
 -0.548  -0.547  -0.545  -0.540  -0.524  -0.520  -0.512  -0.509
 -0.508  -0.506  -0.500  -0.498  -0.492  -0.488  -0.479  -0.478
 -0.474  -0.473  -0.473  -0.465  -0.464  -0.464  -0.456  -0.448
 -0.448  -0.442  -0.440  -0.439  -0.438  -0.436  -0.435  -0.434
 -0.434  -0.428  -0.427  -0.422  -0.420  -0.419  -0.416  -0.415
 -0.414  -0.412  -0.406  -0.403  -0.403  -0.401  -0.400  -0.400
 -0.398  -0.396  -0.395  -0.392  -0.388  -0.386  -0.383  -0.378
 -0.378  -0.376  -0.374  -0.373  -0.371  -0.369  -0.354  -0.351
 -0.351  -0.350  -0.349  -0.349  -0.346  -0.345  -0.342  -0.341
 -0.340  -0.335  -0.334  -0.331  -0.330  -0.328  -0.320  -0.319
 -0.316  -0.312  -0.310  -0.307  -0.303  -0.300  -0.298  -0.298
 -0.297  -0.295  -0.291  -0.291  -0.285  -0.284  -0.282  -0.274
 -0.271  -0.270  -0.267  -0.261  -0.255  -0.253  -0.250  -0.249
 -0.247  -0.246  -0.233  -0.232  -0.195  -0.192

          Ground-State Mulliken Net Atomic Charges

     Atom                 Charge (a.u.)
  ----------------------------------------
      1 C                     0.259072
      2 C                    -0.117851
      3 N                    -0.476189
      4 C                    -0.058141
      5 C                     0.076503
      6 C                     0.062619
      7 C                    -0.036153
      8 C                     0.051175
      9 C                     0.250762
     10 N                    -0.513196
     11 N                    -0.572931
     12 C                     0.195431
     13 C                     0.337044
     14 S                     0.622638
     15 N                    -0.545006
     16 C                    -0.220178
     17 S                     0.300816
     18 C                    -0.104658
     19 C                    -0.257821
     20 S                     0.268948
     21 C                     0.171650
     22 C                     0.091024
     23 C                    -0.302972
     24 C                    -0.076822
     25 N                    -0.442115
     26 S                     0.264395
     27 C                     0.115831
     28 C                    -0.309977
     29 C                    -0.230215
     30 H                     0.098417
     31 H                     0.104414
     32 H                     0.097784
     33 H                     0.123044
     34 H                     0.132838
     35 H                     0.123450
     36 H                     0.114801
     37 H                     0.139803
     38 H                     0.116841
     39 C                    -0.187816
     40 H                     0.121218
     41 H                     0.096276
     42 H                     0.080845
     43 C                    -0.167645
     44 H                     0.092476
     45 C                    -0.181568
     46 H                     0.090636
     47 H                     0.086422
     48 H                     0.108557
     49 C                    -0.171310
     50 H                     0.095933
     51 C                    -0.326340
     52 H                     0.099233
     53 H                     0.095865
     54 H                     0.099000
     55 H                     0.104001
     56 C                     0.264784
     57 C                    -0.114706
     58 N                    -0.476022
     59 C                    -0.049577
     60 C                     0.052781
     61 C                     0.015086
     62 C                     0.005910
     63 C                     0.082628
     64 C                     0.210186
     65 N                    -0.535103
     66 N                    -0.539042
     67 C                     0.214676
     68 C                     0.307822
     69 S                     0.607066
     70 N                    -0.572930
     71 C                    -0.214581
     72 S                     0.324677
     73 C                    -0.093597
     74 C                    -0.226789
     75 S                     0.291031
     76 C                     0.150712
     77 C                     0.082562
     78 C                    -0.316727
     79 C                    -0.057385
     80 N                    -0.443153
     81 S                     0.261876
     82 C                     0.127196
     83 C                    -0.321204
     84 C                    -0.216418
     85 H                     0.087768
     86 H                     0.106148
     87 H                     0.101785
     88 H                     0.120290
     89 H                     0.133167
     90 H                     0.133615
     91 H                     0.118712
     92 H                     0.135615
     93 H                     0.114992
     94 C                    -0.174313
     95 H                     0.093829
     96 H                     0.112337
     97 H                     0.089783
     98 C                    -0.171784
     99 H                     0.103418
    100 C                    -0.171426
    101 H                     0.089794
    102 H                     0.091392
    103 H                     0.088654
    104 C                    -0.186694
    105 H                     0.090099
    106 C                    -0.308719
    107 H                     0.087761
    108 H                     0.101553
    109 H                     0.100825
    110 H                     0.098776
  ----------------------------------------
  Sum of atomic charges =     0.000000

                    Cartesian Multipole Moments
 -----------------------------------------------------------------
    Charge (ESU x 10^10)
                 0.0000
    Dipole Moment (Debye)
         X       0.7266      Y      -0.9139      Z      -0.4831
       Tot       1.2635
    Quadrupole Moments (Debye-Ang)
        XX    -397.0904     XY      21.2870     YY    -442.9281
        XZ      15.1782     YZ       7.5459     ZZ    -436.5493

 Total job time:  89.30s(wall), 1039.81s(cpu)
        *  Thank you very much for using Q-Chem.  Have a nice day.  *
