 Q-Chem 4.4, Q-Chem, Inc., Pleasanton, CA (2016)
 Q-Chem 4.4.2 for Intel X86 Linux

User input:
--------------------------------------------------------------
$comment
SP
$end

$rem
MEM_STATIC 5000
MEM_TOTAL 20000
JOBTYPE SP
EXCHANGE B3LYP
BASIS 6-31g(d,p)
$end

$molecule
0 1
C         -13.564000     12.048000     -7.613000
C         -13.698000     12.763000     -6.415000
N         -13.138000     12.616000     -8.700000
C         -13.538000     14.188000     -6.422000
C         -12.759000     13.964000     -8.657000
C         -13.007000     14.811000     -7.575000
C         -12.682000     16.268000     -7.625000
C         -11.680000     16.707000     -8.538000
C         -13.287000     17.288000     -6.823000
N         -11.275000     17.941000     -8.678000
N         -14.275000     17.065000     -5.960000
C         -12.825000     18.609000     -6.984000
C         -11.817000     18.889000     -7.861000
S         -14.700000     18.545000     -5.491000
N         -13.580000     19.507000     -6.193000
C         -11.260000     20.259000     -7.952000
S         -11.800000     21.699000     -7.039000
C         -10.211000     20.670000     -8.817000
C         -10.443000     22.698000     -7.620000
S          -9.302000     19.807000     -9.991000
C          -9.719000     21.967000     -8.511000
C         -10.125000     23.986000     -7.178000
C          -8.239000     21.279000    -10.126000
C          -8.607000     22.328000     -9.313000
N         -10.650000     24.351000     -6.050000
S          -9.408000     25.270000     -8.168000
C         -10.407000     25.691000     -5.768000
C          -9.735000     26.293000     -6.813000
C         -13.774000     10.516000     -7.646000
H         -13.851000     12.217000     -5.488000
H         -13.793000     14.715000     -5.508000
H         -12.319000     14.308000     -9.592000
H         -11.267000     16.145000     -9.375000
H          -7.422000     21.285000    -10.836000
H          -8.052000     23.259000     -9.340000
H         -10.614000     26.134000     -4.803000
H          -9.411000     27.324000     -6.855000
H         -14.810000     10.217000     -7.441000
C         -12.873000      9.672000     -6.747000
H         -13.619000     10.214000     -8.688000
H         -12.950000      9.702000     -5.654000
H         -11.852000     10.002000     -6.972000
C         -12.933000      8.201000     -7.018000
H         -13.845000      7.819000     -6.543000
C         -11.660000      7.517000     -6.473000
H         -13.096000      8.099000     -8.098000
H         -11.571000      7.749000     -5.404000
H         -10.753000      7.898000     -6.959000
C         -11.689000      6.092000     -6.693000
H         -12.647000      5.580000     -6.539000
C         -10.605000      5.343000     -5.914000
H         -11.560000      5.800000     -7.744000
H          -9.658000      5.610000     -6.401000
H         -10.667000      4.257000     -6.056000
H         -10.683000      5.604000     -4.852000
C         -17.709000     14.644000      3.611000
C         -17.307000     13.713000      2.658000
N         -17.040000     15.790000      3.799000
C         -16.233000     13.948000      1.854000
C         -16.079000     16.113000      2.892000
C         -15.548000     15.209000      1.942000
C         -14.411000     15.573000      0.982000
C         -13.150000     15.951000      1.444000
C         -14.483000     15.256000     -0.440000
N         -12.110000     16.121000      0.618000
N         -15.620000     14.918000     -1.049000
C         -13.401000     15.504000     -1.286000
C         -12.209000     16.027000     -0.748000
S         -15.292000     14.912000     -2.626000
N         -13.701000     15.309000     -2.586000
C         -11.073000     16.409000     -1.549000
S         -11.123000     16.819000     -3.310000
C          -9.801000     16.582000     -1.043000
C          -9.445000     17.348000     -3.201000
S          -9.206000     16.441000      0.557000
C          -8.931000     17.118000     -1.979000
C          -8.629000     17.813000     -4.318000
C          -7.680000     17.196000      0.010000
C          -7.665000     17.459000     -1.388000
N          -7.335000     17.966000     -4.278000
S          -9.340000     18.360000     -5.740000
C          -6.809000     18.570000     -5.366000
C          -7.758000     18.863000     -6.347000
C         -18.883000     14.439000      4.519000
H         -17.868000     12.795000      2.510000
H         -16.046000     13.185000      1.104000
H         -15.682000     17.122000      2.997000
H         -12.970000     16.089000      2.510000
H          -6.962000     17.375000      0.799000
H          -6.762000     17.707000     -1.934000
H          -5.773000     18.881000     -5.389000
H          -7.602000     19.312000     -7.319000
H         -19.436000     15.386000      4.490000
C         -18.534000     14.004000      5.910000
H         -19.507000     13.621000      4.140000
H         -17.674000     14.542000      6.327000
H         -18.244000     12.948000      5.848000
C         -19.793000     14.158000      6.852000
H         -19.861000     15.239000      7.029000
C         -19.645000     13.282000      8.057000
H         -20.707000     13.909000      6.299000
H         -18.788000     13.592000      8.668000
H         -19.410000     12.240000      7.811000
C         -20.869000     13.074000      8.979000
H         -21.663000     12.471000      8.524000
C         -21.328000     14.292000      9.745000
H         -20.541000     12.390000      9.773000
H         -21.735000     15.055000      9.071000
H         -20.491000     14.789000     10.252000
H         -22.058000     13.973000     10.498000
$end

--------------------------------------------------------------

             Standard Nuclear Orientation (Angstroms)
    I     Atom           X                Y                Z
 ----------------------------------------------------------------
    1      C       0.4704340597    -5.9201326610    -1.8590727007
    2      C      -0.1740572277    -4.7086116192    -1.5740591120
    3      N       1.7500540449    -5.9762289527    -2.0714282974
    4      C       0.5515092089    -3.4777165448    -1.6954043302
    5      C       2.5072617919    -4.8024369189    -1.9644577908
    6      C       1.9557411279    -3.5243639034    -1.8549528856
    7      C       2.8067091386    -2.2968358293    -1.8564602612
    8      C       4.1707214692    -2.4183926642    -1.4627747295
    9      C       2.3748472655    -0.9800645252    -2.2159566526
   10      N       5.0268482201    -1.4341945941    -1.3936216738
   11      N       1.1528658500    -0.6949072185    -2.6587757247
   12      C       3.3132629310     0.0663286831    -2.1219178716
   13      C       4.5810890500    -0.1770877433    -1.6781179442
   14      S       1.2658418370     0.8512841483    -3.0918053811
   15      N       2.7631966219     1.2808309125    -2.5957547530
   16      C       5.5340270066     0.9398285803    -1.4785254173
   17      S       5.2391905879     2.6728479072    -1.8078952688
   18      C       6.8715206371     0.8139928432    -1.0171978163
   19      C       6.7747091871     3.1779873588    -1.0568774489
   20      S       7.7996629675    -0.5647402984    -0.5847943718
   21      C       7.4609776704     2.0630239124    -0.6849768144
   22      C       7.1747063379     4.4959575895    -0.8152398062
   23      C       9.0726128704     0.5876585783     0.0206421432
   24      C       8.7583001771     1.9199164943    -0.1313130350
   25      N       6.2388193864     5.3930053256    -0.8408322492
   26      S       8.8432300611     5.0934074794    -0.8591398564
   27      C       6.7473758917     6.6839194672    -0.7455224392
   28      C       8.1276951647     6.6620710827    -0.7295739967
   29      C      -0.2971041916    -7.2605942479    -1.7799476922
   30      H      -1.1931373154    -4.7280201499    -1.1972924949
   31      H      -0.0212314137    -2.5597914962    -1.6086184764
   32      H       3.5775886456    -4.9816543402    -2.0563410981
   33      H       4.7446989621    -3.3398023178    -1.3703837777
   34      H       9.9997072581     0.1978039807     0.4208100940
   35      H       9.4635442484     2.6844717386     0.1746298981
   36      H       6.1210137032     7.5500435416    -0.5787216696
   37      H       8.7795771032     7.5214849255    -0.6510960698
   38      H      -1.0797733672    -7.3564922354    -2.5434622876
   39      C      -0.9283846537    -7.6211636174    -0.4368867450
   40      H       0.4263623100    -8.0374369208    -2.0521694450
   41      H      -1.7761875095    -7.0622271856    -0.0242144985
   42      H      -0.1237460882    -7.5068912720     0.2989560439
   43      C      -1.4174077632    -9.0328726288    -0.3429928397
   44      H      -2.3823425755    -9.0788012892    -0.8626892569
   45      C      -1.5322864190    -9.4484389979     1.1400841938
   46      H      -0.7261288615    -9.6330676643    -0.9473705358
   47      H      -2.1916999426    -8.7352911109     1.6510635440
   48      H      -0.5618819586    -9.4083759480     1.6506878907
   49      C      -2.0242512422   -10.7973283668     1.2754876021
   50      H      -2.8276204577   -11.1088618909     0.5963935239
   51      C      -2.4349871289   -11.1445788901     2.7085302063
   52      H      -1.3018412592   -11.5681215506     0.9746426515
   53      H      -1.4963341374   -11.2071164307     3.2744689109
   54      H      -2.8482602991   -12.1576308956     2.7881224240
   55      H      -3.1554504042   -10.3988077786     3.0646300774
   56      C      -8.7969984628     2.0321595177    -0.9792087648
   57      C      -8.3075314315     0.7331751162    -0.8810479275
   58      N      -8.1025647882     3.0810180333    -0.5167385650
   59      C      -7.0837347088     0.4814909281    -0.3387439069
   60      C      -6.8150213075     2.8636728208    -0.1353046336
   61      C      -6.2542478360     1.5814698791     0.0724590056
   62      C      -4.8244560508     1.3630853994     0.5773041999
   63      C      -4.4023358863     1.8356887060     1.8202481573
   64      C      -3.9290198218     0.4041521144    -0.0601892626
   65      N      -3.2074957992     1.5187874795     2.3347447841
   66      N      -4.1631511160    -0.1124322143    -1.2669274978
   67      C      -2.6638492787     0.1430278931     0.4681114454
   68      C      -2.2663513469     0.7833770386     1.6579792389
   69      S      -2.8198916047    -0.9001809998    -1.6788191539
   70      N      -1.9137779050    -0.6358674101    -0.3373325571
   71      C      -0.9488736276     0.6575582039     2.2293312145
   72      S       0.5414656351     0.1684298252     1.3285741378
   73      C      -0.6473920524     0.9716719990     3.5386785266
   74      C       1.4965708860     0.5757820275     2.7530895441
   75      S      -1.6353909523     1.5831370545     4.7971993486
   76      C       0.7150323530     0.9321611718     3.7887397876
   77      C       2.9377877295     0.3903111462     2.8882359920
   78      C      -0.1554354180     1.8807964406     5.7558653522
   79      C       1.0254666482     1.4344259088     5.1001049856
   80      N       3.5923192885     0.4605186647     4.0134490129
   81      S       3.9198268256     0.2267937819     1.5333650441
   82      C       4.9365372491     0.4289863012     3.8818443606
   83      C       5.3577780669     0.2718178955     2.5602297172
   84      C     -10.1332776156     2.3666590517    -1.5684736353
   85      H      -8.8777047283    -0.1041512641    -1.2723738077
   86      H      -6.7737736162    -0.5589979532    -0.3694849080
   87      H      -6.2492792728     3.7701929712     0.0765258815
   88      H      -5.0586902502     2.4594763518     2.4267858082
   89      H      -0.3283178551     2.3722307444     6.7038579618
   90      H       1.9791191900     1.3296167133     5.6046749630
   91      H       5.5873008294     0.6232527613     4.7240517608
   92      H       6.3683915308     0.1845903207     2.1837024582
   93      H      -9.9463623729     3.2150594834    -2.2383530271
   94      C     -11.2134973717     2.6361638028    -0.5652790043
   95      H     -10.5139108706     1.5091433978    -2.1358590673
   96      H     -10.8758476692     3.2524073858     0.2768430325
   97      H     -11.5061290623     1.6654398071    -0.1467797595
   98      C     -12.4535793070     3.3060441880    -1.2791543880
   99      H     -12.1308164835     4.3399424040    -1.4563340673
  100      C     -13.6884200836     3.1134379556    -0.4549116473
  101      H     -12.5836533503     2.8799723839    -2.2815263554
  102      H     -13.6016501313     3.6244358673     0.5121571764
  103      H     -13.8620469804     2.0696027394    -0.1689628023
  104      C     -15.0604040351     3.4552747716    -1.0812754616
  105      H     -15.3673678233     2.7596944086    -1.8705860414
  106      C     -15.3061439551     4.9182479998    -1.3646166433
  107      H     -15.8127009138     3.2203679216    -0.3165897889
  108      H     -14.6462623665     5.2851475548    -2.1596229360
  109      H     -15.0658799029     5.5436165511    -0.4952407981
  110      H     -16.3657910496     5.0499509322    -1.6125528705
 ----------------------------------------------------------------

   10   -5663.5247720291      8.47E-06 Convergence criterion met
 Total energy in the final basis set = -5663.5247720291

                    Orbital Energies (a.u.)
 --------------------------------------------------------------

 Alpha MOs
 -- Occupied --
-88.995 -88.989 -88.932 -88.927 -88.922 -88.919 -88.917 -88.906
-14.398 -14.387 -14.386 -14.381 -14.350 -14.344 -14.344 -14.332
-14.326 -14.325 -10.266 -10.261 -10.260 -10.260 -10.259 -10.257
-10.255 -10.252 -10.244 -10.238 -10.238 -10.237 -10.237 -10.235
-10.235 -10.235 -10.234 -10.233 -10.229 -10.228 -10.227 -10.226
-10.226 -10.225 -10.224 -10.224 -10.223 -10.222 -10.218 -10.218
-10.211 -10.210 -10.210 -10.206 -10.201 -10.198 -10.196 -10.190
-10.183 -10.178 -10.177 -10.177 -10.175 -10.175 -10.174 -10.174
-10.173 -10.169 -10.167 -10.167  -8.051  -8.045  -7.994  -7.986
 -7.980  -7.980  -7.978  -7.966  -6.016  -6.010  -6.010  -6.009
 -6.004  -6.002  -5.957  -5.954  -5.951  -5.950  -5.947  -5.944
 -5.943  -5.942  -5.942  -5.940  -5.940  -5.939  -5.937  -5.936
 -5.934  -5.931  -5.927  -5.923  -1.045  -1.044  -0.977  -0.974
 -0.968  -0.951  -0.936  -0.935  -0.913  -0.913  -0.908  -0.906
 -0.843  -0.840  -0.834  -0.823  -0.818  -0.816  -0.812  -0.809
 -0.807  -0.799  -0.798  -0.795  -0.785  -0.783  -0.770  -0.769
 -0.754  -0.749  -0.748  -0.739  -0.724  -0.721  -0.711  -0.711
 -0.695  -0.693  -0.681  -0.673  -0.657  -0.651  -0.651  -0.640
 -0.636  -0.635  -0.628  -0.621  -0.611  -0.609  -0.601  -0.596
 -0.593  -0.593  -0.582  -0.582  -0.578  -0.578  -0.573  -0.562
 -0.550  -0.546  -0.545  -0.538  -0.525  -0.521  -0.521  -0.509
 -0.505  -0.503  -0.503  -0.496  -0.490  -0.486  -0.482  -0.479
 -0.476  -0.472  -0.470  -0.464  -0.463  -0.462  -0.455  -0.448
 -0.446  -0.443  -0.440  -0.437  -0.435  -0.435  -0.434  -0.433
 -0.432  -0.431  -0.425  -0.424  -0.421  -0.419  -0.416  -0.413
 -0.410  -0.409  -0.403  -0.403  -0.402  -0.400  -0.399  -0.398
 -0.397  -0.397  -0.395  -0.395  -0.392  -0.388  -0.387  -0.381
 -0.376  -0.374  -0.374  -0.367  -0.367  -0.365  -0.358  -0.355
 -0.353  -0.351  -0.350  -0.349  -0.348  -0.347  -0.343  -0.341
 -0.339  -0.339  -0.334  -0.332  -0.328  -0.328  -0.320  -0.320
 -0.318  -0.314  -0.309  -0.308  -0.308  -0.305  -0.301  -0.299
 -0.297  -0.297  -0.295  -0.288  -0.284  -0.283  -0.282  -0.279
 -0.270  -0.266  -0.264  -0.262  -0.260  -0.249  -0.249  -0.247
 -0.247  -0.244  -0.235  -0.230  -0.196  -0.192

          Ground-State Mulliken Net Atomic Charges

     Atom                 Charge (a.u.)
  ----------------------------------------
      1 C                     0.289813
      2 C                    -0.122862
      3 N                    -0.492702
      4 C                    -0.092062
      5 C                     0.044066
      6 C                     0.067949
      7 C                     0.039287
      8 C                     0.058692
      9 C                     0.232281
     10 N                    -0.512079
     11 N                    -0.560984
     12 C                     0.221599
     13 C                     0.281440
     14 S                     0.628974
     15 N                    -0.550019
     16 C                    -0.233098
     17 S                     0.359236
     18 C                    -0.128883
     19 C                    -0.219270
     20 S                     0.278257
     21 C                     0.131493
     22 C                     0.062983
     23 C                    -0.322446
     24 C                    -0.061455
     25 N                    -0.427414
     26 S                     0.269153
     27 C                     0.120463
     28 C                    -0.304327
     29 C                    -0.239772
     30 H                     0.090059
     31 H                     0.136038
     32 H                     0.103052
     33 H                     0.114656
     34 H                     0.124561
     35 H                     0.121122
     36 H                     0.125631
     37 H                     0.130381
     38 H                     0.100982
     39 C                    -0.176404
     40 H                     0.118384
     41 H                     0.089942
     42 H                     0.100867
     43 C                    -0.180271
     44 H                     0.092106
     45 C                    -0.154298
     46 H                     0.091662
     47 H                     0.089029
     48 H                     0.098384
     49 C                    -0.179747
     50 H                     0.087247
     51 C                    -0.317324
     52 H                     0.090174
     53 H                     0.101573
     54 H                     0.096007
     55 H                     0.101035
     56 C                     0.266525
     57 C                    -0.114130
     58 N                    -0.477279
     59 C                    -0.048235
     60 C                     0.056821
     61 C                     0.017582
     62 C                     0.007032
     63 C                     0.081943
     64 C                     0.205635
     65 N                    -0.535223
     66 N                    -0.532891
     67 C                     0.219742
     68 C                     0.308771
     69 S                     0.601455
     70 N                    -0.588991
     71 C                    -0.217392
     72 S                     0.315261
     73 C                    -0.093467
     74 C                    -0.226876
     75 S                     0.289496
     76 C                     0.151952
     77 C                     0.067071
     78 C                    -0.317816
     79 C                    -0.055017
     80 N                    -0.445106
     81 S                     0.283188
     82 C                     0.123253
     83 C                    -0.325883
     84 C                    -0.216902
     85 H                     0.084858
     86 H                     0.103052
     87 H                     0.101223
     88 H                     0.119973
     89 H                     0.132244
     90 H                     0.133743
     91 H                     0.115631
     92 H                     0.147121
     93 H                     0.115438
     94 C                    -0.174132
     95 H                     0.092682
     96 H                     0.112330
     97 H                     0.089462
     98 C                    -0.171947
     99 H                     0.103259
    100 C                    -0.171033
    101 H                     0.089566
    102 H                     0.091205
    103 H                     0.088751
    104 C                    -0.187328
    105 H                     0.090381
    106 C                    -0.308691
    107 H                     0.087702
    108 H                     0.101458
    109 H                     0.100806
    110 H                     0.098564
  ----------------------------------------
  Sum of atomic charges =     0.000000

                    Cartesian Multipole Moments
 -----------------------------------------------------------------
    Charge (ESU x 10^10)
                 0.0000
    Dipole Moment (Debye)
         X       2.5142      Y       0.9601      Z       0.3370
       Tot       2.7122
    Quadrupole Moments (Debye-Ang)
        XX    -389.0032     XY      42.2446     YY    -437.1710
        XZ      14.7256     YZ       2.1798     ZZ    -445.9615

 Total job time:  96.01s(wall), 1139.78s(cpu)
        *  Thank you very much for using Q-Chem.  Have a nice day.  *
