 Q-Chem 4.4, Q-Chem, Inc., Pleasanton, CA (2016)
 Q-Chem 4.4.2 for Intel X86 Linux

User input:
--------------------------------------------------------------
$comment
SP
$end

$rem
MEM_STATIC 5000
MEM_TOTAL 20000
JOBTYPE SP
EXCHANGE B3LYP
BASIS 6-31g(d,p)
$end

$molecule
0 1
C          11.736000     29.585000      6.208000
C          11.782000     28.474000      5.328000
N          10.977000     29.637000      7.323000
C          11.080000     27.314000      5.670000
C          10.237000     28.527000      7.630000
C          10.266000     27.284000      6.872000
C           9.385000     26.226000      7.195000
C           8.666000     25.573000      6.177000
C           9.141000     25.773000      8.526000
N           7.688000     24.703000      6.398000
N           9.726000     26.218000      9.661000
C           8.123000     24.856000      8.759000
C           7.410000     24.247000      7.656000
S           8.956000     25.444000     10.880000
N           7.888000     24.573000     10.047000
C           6.406000     23.182000      7.780000
S           5.850000     22.393000      9.290000
C           5.675000     22.579000      6.736000
C           4.928000     21.214000      8.380000
S           5.647000     23.100000      5.050000
C           4.860000     21.546000      7.077000
C           4.198000     20.092000      8.894000
C           4.439000     21.808000      4.779000
C           4.185000     21.075000      5.911000
N           3.149000     19.653000      8.314000
S           4.409000     19.555000     10.580000
C           2.498000     18.724000      9.078000
C           3.000000     18.594000     10.356000
C          12.327000     30.886000      5.760000
H          12.340000     28.479000      4.398000
H          11.008000     26.493000      4.964000
H           9.672000     28.612000      8.557000
H           8.923000     25.788000      5.141000
H           4.004000     21.594000      3.810000
H           3.468000     20.264000      5.860000
H           1.585000     18.241000      8.755000
H           2.577000     18.078000     11.208000
H          12.856000     31.191000      6.673000
C          11.311000     31.953000      5.364000
H          13.141000     30.862000      5.025000
H          10.514000     32.031000      6.114000
H          10.814000     31.511000      4.491000
C          11.879000     33.399000      5.088000
H          12.227000     33.841000      6.030000
C          10.894000     34.369000      4.457000
H          12.784000     33.420000      4.469000
H           9.914000     33.926000      4.674000
H          10.934000     34.250000      3.368000
C          11.225000     35.793000      4.807000
H          11.106000     35.965000      5.884000
C          10.393000     36.914000      4.091000
H          12.269000     36.024000      4.562000
H          10.646000     37.913000      4.470000
H           9.324000     36.761000      4.285000
H          10.645000     36.840000      3.026000
C          -6.835000     27.764000      9.528000
C          -5.669000     27.212000      8.889000
N          -6.910000     27.878000     10.861000
C          -4.589000     26.839000      9.668000
C          -5.875000     27.485000     11.620000
C          -4.665000     27.012000     11.094000
C          -3.526000     26.430000     11.969000
C          -2.626000     25.428000     11.571000
C          -3.120000     26.822000     13.304000
N          -1.519000     24.921000     12.191000
N          -3.883000     27.782000     13.946000
C          -1.929000     26.498000     13.965000
C          -1.136000     25.527000     13.316000
S          -3.114000     28.016000     15.387000
N          -1.708000     27.159000     15.083000
C           0.029000     24.883000     14.005000
S           0.525000     25.164000     15.660000
C           0.843000     23.844000     13.495000
C           1.926000     24.034000     15.559000
S           0.826000     23.075000     11.896000
C           1.858000     23.462000     14.333000
C           2.797000     23.851000     16.649000
C           2.386000     22.322000     12.337000
C           2.727000     22.492000     13.703000
N           4.056000     23.647000     16.410000
S           2.132000     23.758000     18.221000
C           4.675000     23.410000     17.671000
C           3.791000     23.587000     18.728000
C          -8.075000     28.103000      8.764000
H          -5.748000     27.068000      7.815000
H          -3.710000     26.334000      9.281000
H          -5.998000     27.600000     12.696000
H          -2.853000     24.965000     10.613000
H           2.904000     21.619000     11.698000
H           3.550000     22.106000     14.293000
H           5.753000     23.321000     17.646000
H           4.009000     23.701000     19.781000
H          -7.977000     28.209000      7.676000
C          -8.768000     29.399000      9.212000
H          -8.710000     27.209000      8.807000
H          -8.200000     30.292000      8.925000
H          -8.858000     29.534000     10.297000
C         -10.211000     29.533000      8.660000
H         -10.303000     29.482000      7.569000
C         -10.853000     30.821000      9.146000
H         -10.748000     28.624000      8.958000
H         -10.721000     30.885000     10.233000
H         -11.934000     30.677000      9.026000
C         -10.349000     32.069000      8.448000
H          -9.372000     32.328000      8.875000
C         -11.353000     33.333000      8.620000
H         -10.187000     31.891000      7.378000
H         -10.750000     34.202000      8.330000
H         -11.736000     33.409000      9.646000
H         -12.177000     33.329000      7.897000
$end

--------------------------------------------------------------

             Standard Nuclear Orientation (Angstroms)
    I     Atom           X                Y                Z
 ----------------------------------------------------------------
    1      C      -9.9101432136    -3.4329091000     1.1223093986
    2      C     -10.2081163741    -2.9534140323    -0.1785109101
    3      N      -8.8433777808    -3.0380770242     1.8490343420
    4      C      -9.4148111110    -1.9372417554    -0.7202014704
    5      C      -8.0256868297    -2.0888132449     1.2974649576
    6      C      -8.2673451530    -1.4389825346     0.0169278426
    7      C      -7.3115725869    -0.5508562045    -0.5285851485
    8      C      -6.9332226690    -0.6664887039    -1.8788349272
    9      C      -6.6585002925     0.4726493398     0.2212408175
   10      N      -5.9201700512    -0.0061159089    -2.4264270792
   11      N      -6.8695886170     0.7978712314     1.5166741197
   12      C      -5.6028983513     1.1710981720    -0.3526718680
   13      C      -5.2574065789     0.9757531450    -1.7449127795
   14      S      -5.7458898538     1.9341570032     1.8689421062
   15      N      -4.9746529630     2.0320461379     0.4587061771
   16      C      -4.2464247636     1.7437979251    -2.4835872578
   17      S      -3.2354680911     3.0830484774    -1.8541974230
   18      C      -3.8656038644     1.5707245484    -3.8300370523
   19      C      -2.6216172004     3.4250648384    -3.4587026093
   20      S      -4.3715993989     0.2561073535    -4.8933202459
   21      C      -2.9673952220     2.4595005398    -4.3309297271
   22      C      -1.7489308737     4.4935620669    -3.8494867542
   23      C      -3.2855277141     0.9711090520    -6.1226248731
   24      C      -2.6799542603     2.1232905591    -5.6878978706
   25      N      -0.9245853328     4.3655574371    -4.8157120095
   26      S      -1.4165815763     5.8553160694    -2.7491886213
   27      C      -0.0526432740     5.4171960223    -4.8813727437
   28      C      -0.1305652263     6.2812769179    -3.8092345179
   29      C     -10.6332986976    -4.6422586474     1.6293654291
   30      H     -11.0273721264    -3.3369733943    -0.7768345919
   31      H      -9.5515723969    -1.6313655969    -1.7523822329
   32      H      -7.2022548776    -1.7832335646     1.9411728722
   33      H      -7.5029393656    -1.3358983608    -2.5213951166
   34      H      -3.1694033926     0.5668418467    -7.1211563792
   35      H      -2.0004473463     2.6415034532    -6.3543337266
   36      H       0.7230278713     5.4843314675    -5.6330469460
   37      H       0.5449323996     7.0758774934    -3.5204406763
   38      H     -10.8577146541    -4.3256531272     2.6569029822
   39      C      -9.8090147256    -5.9259315259     1.6467111653
   40      H     -11.6347896873    -4.8532080913     1.2345070624
   41      H      -8.8199482187    -5.7491424794     2.0874901098
   42      H      -9.6002359232    -6.1015155366     0.5836572312
   43      C     -10.4593775870    -7.1713561254     2.3648070610
   44      H     -10.5051176044    -6.9874861287     3.4455159372
   45      C      -9.7358807092    -8.4902251680     2.1493477463
   46      H     -11.5120970855    -7.3429048392     2.1098959070
   47      H      -8.7294985554    -8.1887533728     1.8330445417
   48      H     -10.1100923108    -8.9483606923     1.2264395610
   49      C      -9.9661913782    -9.4363287821     3.2946345869
   50      H      -9.5215360067    -9.0432443557     4.2173697787
   51      C      -9.4170960667   -10.8970984723     3.1328716397
   52      H     -11.0384563052    -9.5635339239     3.4879963675
   53      H      -9.5569747348   -11.4877705399     4.0478533153
   54      H      -8.3382505951   -10.8660755119     2.9355495063
   55      H      -9.9861078193   -11.3412177943     2.3069245148
   56      C       8.8019293995    -3.6187138941    -1.8850643897
   57      C       7.5047816759    -3.2741213831    -2.4058760492
   58      N       9.2852756911    -3.0363033197    -0.7793138368
   59      C       6.7267194932    -2.3593212692    -1.7202157898
   60      C       8.5441122920    -2.1234878232    -0.1318575178
   61      C       7.2388889083    -1.7781094292    -0.5081694676
   62      C       6.4381582489    -0.6281517283     0.1537200226
   63      C       5.4763906689     0.1680026144    -0.4893580324
   64      C       6.4602180162    -0.1879883517     1.5344787157
   65      N       4.6255832577     1.1171764538     0.0026722222
   66      N       7.3682887436    -0.7972306610     2.3831036992
   67      C       5.5391715617     0.6451903326     2.1809032734
   68      C       4.6006038493     1.2655222277     1.3281606456
   69      S       7.0809929427    -0.1031816520     3.8522378305
   70      N       5.6650367103     0.7140878686     3.4905204288
   71      C       3.7184564890     2.3755591114     1.8142842427
   72      S       3.7562771535     3.0909804173     3.4113891085
   73      C       2.8042705555     3.1286321084     1.0400994198
   74      C       2.4128094211     4.2405209758     3.0598881035
   75      S       2.3369836179     2.9380561916    -0.6610104349
   76      C       2.1064631510     4.0695500183     1.7515284838
   77      C       1.9267123003     5.1194451371     4.0455005567
   78      C       1.0042764493     4.0833624204    -0.3335119695
   79      C       1.1015501650     4.7129312336     0.9334994486
   80      N       0.6594438672     5.3981745640     4.0580951984
   81      S       3.0485722377     5.8897178146     5.0799899395
   82      C       0.4668829946     6.3643577052     5.0871051343
   83      C       1.6322868322     6.6016823387     5.8051196979
   84      C       9.7372960276    -4.5268850933    -2.6175473888
   85      H       7.2487541728    -3.7255729187    -3.3603887147
   86      H       5.7797962875    -1.9762302940    -2.0862933052
   87      H       8.9932369418    -1.6840771978     0.7577128005
   88      H       5.4025247434     0.0156996384    -1.5640717750
   89      H       0.3255713240     4.4343940315    -1.0996648009
   90      H       0.5092580513     5.4931103608     1.3971109040
   91      H      -0.5638717187     6.6246757846     5.2881255773
   92      H       1.7502029177     7.0929431954     6.7611989663
   93      H       9.3044107555    -5.1616243083    -3.4013206150
   94      C      10.5128171417    -5.5043238032    -1.7210265747
   95      H      10.3694917553    -3.8754904601    -3.2342512025
   96      H       9.8685291983    -6.2938129769    -1.3160057225
   97      H      10.9330311026    -5.0708493021    -0.8050188870
   98      C      11.7104771677    -6.1688706591    -2.4482795831
   99      H      11.4599283585    -6.7091755429    -3.3684110557
  100      C      12.4494684760    -7.1105064524    -1.5131229765
  101      H      12.3289942772    -5.3545968160    -2.8455813495
  102      H      12.6605362888    -6.5757450443    -0.5790086286
  103      H      13.4420371106    -7.2520821828    -1.9586123908
  104      C      11.7322574536    -8.4213452416    -1.2561521258
  105      H      10.9319081143    -8.2357286705    -0.5288788459
  106      C      12.7181738379    -9.5726382793    -0.6749557524
  107      H      11.2490125837    -8.7978526326    -2.1658468990
  108      H      12.0401024828   -10.3371878088    -0.2767682911
  109      H      13.3995387569    -9.1745990640     0.0882268143
  110      H      13.2768009302   -10.0964188703    -1.4593731568
 ----------------------------------------------------------------

    9   -5663.5225553047      9.02E-06 Convergence criterion met
 Total energy in the final basis set = -5663.5225553047

                    Orbital Energies (a.u.)
 --------------------------------------------------------------

 Alpha MOs
 -- Occupied --
-88.987 -88.984 -88.928 -88.928 -88.926 -88.918 -88.909 -88.907
-14.388 -14.385 -14.384 -14.380 -14.356 -14.347 -14.347 -14.344
-14.332 -14.328 -10.269 -10.266 -10.265 -10.261 -10.258 -10.256
-10.254 -10.253 -10.246 -10.242 -10.238 -10.238 -10.237 -10.235
-10.235 -10.235 -10.233 -10.233 -10.232 -10.232 -10.230 -10.230
-10.228 -10.227 -10.225 -10.225 -10.222 -10.220 -10.218 -10.217
-10.216 -10.214 -10.204 -10.202 -10.200 -10.200 -10.197 -10.193
-10.188 -10.181 -10.180 -10.179 -10.178 -10.176 -10.176 -10.175
-10.172 -10.172 -10.171 -10.170  -8.043  -8.040  -7.991  -7.987
 -7.987  -7.977  -7.968  -7.966  -6.008  -6.005  -6.002  -6.000
 -6.000  -5.997  -5.955  -5.951  -5.951  -5.951  -5.948  -5.948
 -5.947  -5.944  -5.943  -5.942  -5.938  -5.934  -5.932  -5.930
 -5.929  -5.927  -5.924  -5.922  -1.042  -1.031  -0.987  -0.973
 -0.960  -0.955  -0.940  -0.930  -0.918  -0.908  -0.905  -0.901
 -0.843  -0.835  -0.834  -0.828  -0.815  -0.814  -0.808  -0.806
 -0.803  -0.803  -0.795  -0.794  -0.784  -0.783  -0.768  -0.767
 -0.748  -0.745  -0.737  -0.736  -0.726  -0.714  -0.713  -0.706
 -0.693  -0.692  -0.675  -0.671  -0.654  -0.652  -0.646  -0.640
 -0.636  -0.633  -0.624  -0.622  -0.611  -0.610  -0.599  -0.598
 -0.595  -0.591  -0.585  -0.583  -0.579  -0.576  -0.573  -0.563
 -0.554  -0.553  -0.540  -0.536  -0.527  -0.520  -0.515  -0.513
 -0.511  -0.506  -0.500  -0.491  -0.484  -0.484  -0.480  -0.472
 -0.471  -0.470  -0.469  -0.465  -0.463  -0.460  -0.453  -0.444
 -0.440  -0.437  -0.437  -0.436  -0.435  -0.431  -0.431  -0.430
 -0.428  -0.427  -0.427  -0.421  -0.420  -0.416  -0.414  -0.413
 -0.411  -0.410  -0.405  -0.405  -0.401  -0.397  -0.396  -0.395
 -0.392  -0.392  -0.389  -0.389  -0.388  -0.383  -0.382  -0.382
 -0.378  -0.376  -0.372  -0.372  -0.365  -0.364  -0.357  -0.354
 -0.353  -0.349  -0.347  -0.346  -0.345  -0.345  -0.341  -0.340
 -0.336  -0.334  -0.333  -0.333  -0.327  -0.324  -0.319  -0.317
 -0.313  -0.312  -0.310  -0.306  -0.306  -0.302  -0.300  -0.298
 -0.296  -0.295  -0.293  -0.291  -0.290  -0.287  -0.286  -0.283
 -0.282  -0.270  -0.269  -0.267  -0.253  -0.252  -0.252  -0.249
 -0.247  -0.243  -0.231  -0.229  -0.195  -0.193

          Ground-State Mulliken Net Atomic Charges

     Atom                 Charge (a.u.)
  ----------------------------------------
      1 C                     0.258833
      2 C                    -0.109495
      3 N                    -0.473272
      4 C                    -0.083421
      5 C                     0.080822
      6 C                     0.021418
      7 C                     0.019421
      8 C                     0.079697
      9 C                     0.252243
     10 N                    -0.535178
     11 N                    -0.557836
     12 C                     0.183078
     13 C                     0.318666
     14 S                     0.605492
     15 N                    -0.553085
     16 C                    -0.219537
     17 S                     0.332867
     18 C                    -0.139390
     19 C                    -0.254895
     20 S                     0.282978
     21 C                     0.215527
     22 C                     0.064034
     23 C                    -0.305457
     24 C                    -0.062831
     25 N                    -0.414554
     26 S                     0.244952
     27 C                     0.118841
     28 C                    -0.308820
     29 C                    -0.223718
     30 H                     0.094940
     31 H                     0.096139
     32 H                     0.117580
     33 H                     0.109228
     34 H                     0.124012
     35 H                     0.120851
     36 H                     0.117400
     37 H                     0.142233
     38 H                     0.113719
     39 C                    -0.180430
     40 H                     0.093153
     41 H                     0.119556
     42 H                     0.088413
     43 C                    -0.181154
     44 H                     0.097515
     45 C                    -0.165362
     46 H                     0.087238
     47 H                     0.093638
     48 H                     0.087933
     49 C                    -0.185048
     50 H                     0.096070
     51 C                    -0.321710
     52 H                     0.095790
     53 H                     0.100284
     54 H                     0.104866
     55 H                     0.101848
     56 C                     0.278307
     57 C                    -0.123608
     58 N                    -0.484557
     59 C                    -0.075795
     60 C                     0.080988
     61 C                     0.046542
     62 C                     0.073309
     63 C                     0.029592
     64 C                     0.147036
     65 N                    -0.511717
     66 N                    -0.531476
     67 C                     0.286549
     68 C                     0.318811
     69 S                     0.589431
     70 N                    -0.586958
     71 C                    -0.244754
     72 S                     0.302824
     73 C                    -0.127864
     74 C                    -0.253525
     75 S                     0.284661
     76 C                     0.211839
     77 C                     0.061514
     78 C                    -0.320932
     79 C                    -0.061593
     80 N                    -0.422935
     81 S                     0.283736
     82 C                     0.099320
     83 C                    -0.300176
     84 C                    -0.229217
     85 H                     0.092357
     86 H                     0.104676
     87 H                     0.126573
     88 H                     0.094355
     89 H                     0.132630
     90 H                     0.115048
     91 H                     0.118616
     92 H                     0.130820
     93 H                     0.100511
     94 C                    -0.173362
     95 H                     0.122249
     96 H                     0.094251
     97 H                     0.122644
     98 C                    -0.184071
     99 H                     0.081514
    100 C                    -0.174386
    101 H                     0.086490
    102 H                     0.092191
    103 H                     0.085758
    104 C                    -0.173430
    105 H                     0.100262
    106 C                    -0.329225
    107 H                     0.092854
    108 H                     0.100921
    109 H                     0.107934
    110 H                     0.106388
  ----------------------------------------
  Sum of atomic charges =     0.000000

                    Cartesian Multipole Moments
 -----------------------------------------------------------------
    Charge (ESU x 10^10)
                 0.0000
    Dipole Moment (Debye)
         X       0.2389      Y       2.3724      Z      -1.5898
       Tot       2.8658
    Quadrupole Moments (Debye-Ang)
        XX    -439.2680     XY      10.4982     YY    -411.7665
        XZ       3.9628     YZ      20.8468     ZZ    -415.7062

 Total job time:  77.76s(wall), 907.32s(cpu)
        *  Thank you very much for using Q-Chem.  Have a nice day.  *
