 Q-Chem 4.4, Q-Chem, Inc., Pleasanton, CA (2016)
 Q-Chem 4.4.2 for Intel X86 Linux

User input:
--------------------------------------------------------------
$comment
SP
$end

$rem
MEM_STATIC 5000
MEM_TOTAL 20000
JOBTYPE SP
EXCHANGE B3LYP
BASIS 6-31g(d,p)
$end

$molecule
0 1
C          -0.137000    -18.893000     -4.765000
C           0.444000    -18.403000     -3.564000
N          -1.057000    -19.859000     -4.703000
C           0.141000    -18.957000     -2.328000
C          -1.411000    -20.460000     -3.522000
C          -0.875000    -20.013000     -2.264000
C          -1.379000    -20.588000     -0.928000
C          -2.754000    -20.602000     -0.646000
C          -0.522000    -20.910000      0.106000
N          -3.244000    -21.031000      0.493000
N           0.849000    -20.855000     -0.032000
C          -0.997000    -21.214000      1.380000
C          -2.426000    -21.240000      1.562000
S           1.364000    -21.297000      1.468000
N          -0.101000    -21.433000      2.273000
C          -3.296000    -21.572000      2.639000
S          -5.022000    -21.047000      2.797000
C          -2.988000    -22.295000      3.752000
C          -5.151000    -21.727000      4.392000
S          -1.498000    -23.147000      4.159000
C          -4.015000    -22.357000      4.715000
C          -6.261000    -21.585000      5.256000
C          -2.266000    -23.541000      5.772000
C          -3.506000    -23.008000      5.902000
N          -7.450000    -21.650000      4.698000
S          -6.203000    -21.462000      6.979000
C          -8.371000    -21.446000      5.703000
C          -7.910000    -21.252000      6.934000
C           0.276000    -18.243000     -6.050000
H           1.251000    -17.685000     -3.674000
H           0.685000    -18.563000     -1.476000
H          -2.041000    -21.342000     -3.633000
H          -3.464000    -20.310000     -1.418000
H          -1.657000    -24.139000      6.437000
H          -4.126000    -23.153000      6.781000
H          -9.405000    -21.505000      5.388000
H          -8.390000    -21.019000      7.875000
H           0.803000    -17.310000     -5.814000
C          -0.841000    -18.198000     -7.195000
H           1.071000    -18.816000     -6.543000
H          -1.806000    -18.122000     -6.679000
H          -0.829000    -19.169000     -7.705000
C          -0.608000    -17.068000     -8.163000
H          -0.836000    -16.108000     -7.685000
C          -1.381000    -17.299000     -9.477000
H           0.457000    -17.037000     -8.424000
H          -2.467000    -17.302000     -9.321000
H          -1.081000    -18.277000     -9.875000
C          -0.930000    -16.290000    -10.570000
H          -1.262000    -15.274000    -10.322000
C          -1.519000    -16.782000    -11.956000
H           0.149000    -16.196000    -10.747000
H          -1.209000    -17.803000    -12.208000
H          -1.124000    -16.184000    -12.786000
H          -2.616000    -16.773000    -11.966000
C           5.964000    -14.236000    -17.412000
C           6.841000    -13.705000    -16.485000
N           4.913000    -14.991000    -17.006000
C           6.583000    -13.783000    -15.149000
C           4.749000    -15.179000    -15.690000
C           5.436000    -14.476000    -14.713000
C           4.943000    -14.327000    -13.331000
C           5.803000    -14.307000    -12.204000
C           3.567000    -14.335000    -12.961000
N           5.376000    -14.194000    -10.921000
N           2.587000    -14.275000    -13.867000
C           3.135000    -14.305000    -11.659000
C           4.064000    -14.192000    -10.607000
S           1.165000    -14.430000    -13.063000
N           1.785000    -14.295000    -11.595000
C           3.595000    -14.142000     -9.140000
S           1.926000    -14.083000     -8.594000
C           4.393000    -13.923000     -8.031000
C           2.383000    -14.101000     -6.858000
S           6.101000    -13.568000     -7.972000
C           3.712000    -13.712000     -6.847000
C           1.544000    -14.286000     -5.720000
C           5.916000    -13.269000     -6.165000
C           4.569000    -13.341000     -5.773000
N           0.269000    -14.313000     -6.012000
S           2.114000    -14.749000     -4.085000
C          -0.458000    -14.609000     -4.946000
C           0.383000    -14.824000     -3.844000
C           6.174000    -14.070000    -18.923000
H           7.725000    -13.185000    -16.845000
H           7.284000    -13.425000    -14.400000
H           4.013000    -15.900000    -15.336000
H           6.881000    -14.246000    -12.345000
H           6.828000    -13.079000     -5.616000
H           4.285000    -13.256000     -4.730000
H          -1.536000    -14.703000     -4.962000
H           0.067000    -15.017000     -2.827000
H           5.346000    -13.529000    -19.398000
C           6.592000    -15.284000    -19.692000
H           6.935000    -13.295000    -19.078000
H           5.806000    -16.037000    -19.828000
H           7.338000    -15.833000    -19.104000
C           7.138000    -14.779000    -20.999000
H           6.379000    -14.250000    -21.589000
C           7.524000    -16.010000    -21.872000
H           7.978000    -14.087000    -20.860000
H           6.583000    -16.496000    -22.155000
H           8.085000    -16.767000    -21.311000
C           8.188000    -15.506000    -23.188000
H           7.532000    -14.806000    -23.721000
C           8.509000    -16.745000    -24.083000
H           9.097000    -14.938000    -22.955000
H           7.600000    -16.969000    -24.655000
H           8.803000    -17.603000    -23.465000
H           9.270000    -16.455000    -24.820000
$end

--------------------------------------------------------------

             Standard Nuclear Orientation (Angstroms)
    I     Atom           X                Y                Z
 ----------------------------------------------------------------
    1      C       1.9327087077    -0.8898184169    -0.4156178071
    2      C       2.5961932977     0.3644782004    -0.4967978222
    3      N       2.6415926211    -2.0161339309    -0.5265094666
    4      C       3.9540468722     0.4552647532    -0.7695843174
    5      C       3.9861180143    -2.0128382861    -0.7976526132
    6      C       4.7298049929    -0.7843509678    -0.8837780236
    7      C       6.2608259840    -0.7834046172    -1.0434991222
    8      C       7.0581137697    -1.5199003024    -0.1534141304
    9      C       6.9115307010     0.0778810121    -1.9049278400
   10      N       8.3691885158    -1.5206448004    -0.2038567299
   11      N       6.2284772808     0.9076806780    -2.7689767620
   12      C       8.2964058181     0.2280891064    -1.8789386390
   13      C       9.0321047388    -0.5992116233    -0.9568965571
   14      S       7.4554922016     1.7124528673    -3.5155456520
   15      N       8.7785715685     1.1055631835    -2.6825439109
   16      C      10.4121010806    -0.8126685119    -0.6792290341
   17      S      11.0811710111    -1.5105925521     0.8520816666
   18      C      11.4699248114    -0.4980056231    -1.4782022633
   19      C      12.7184731985    -1.2072283571     0.3518040314
   20      S      11.4824478862     0.1358768368    -3.1243156250
   21      C      12.7331920096    -0.7059726528    -0.8892644903
   22      C      13.8681758790    -1.3949394451     1.1528710036
   23      C      13.3050133689     0.2154570798    -2.9873811651
   24      C      13.7535182673    -0.1848063647    -1.7719711391
   25      N      13.8780843837    -2.4607683871     1.9230790845
   26      S      15.3024004851    -0.4310155690     1.1201213392
   27      C      15.0561562419    -2.4223111041     2.6376067146
   28      C      15.8818005170    -1.4054906339     2.4142109616
   29      C       0.4598515271    -0.8781816890    -0.1420299562
   30      H       1.9647270698     1.2477165325    -0.4931301599
   31      H       4.3582971476     1.4559645928    -0.8802981186
   32      H       4.4042393334    -2.9917286414    -1.0302321370
   33      H       6.5848914599    -2.1764489057     0.5748389691
   34      H      13.8170018059     0.5726581119    -3.8711148710
   35      H      14.8063174851    -0.2270243434    -1.5113997489
   36      H      15.2131446490    -3.2662915396     3.2970865586
   37      H      16.8197824308    -1.1030896582     2.8602082478
   38      H       0.1760054089     0.1280732581     0.1908309195
   39      C      -0.1007671292    -2.1238565465     0.6914806145
   40      H      -0.1139466932    -0.9625734761    -1.0731779727
   41      H       0.7090093335    -2.4318912340     1.3642611967
   42      H      -0.2582250118    -2.9483608880    -0.0145538082
   43      C      -1.3700728912    -1.7823507771     1.4266334505
   44      H      -1.1509046955    -1.1166084967     2.2697351751
   45      C      -2.1321752219    -3.0593168673     1.8341179801
   46      H      -2.0305396247    -1.2209776853     0.7543604809
   47      H      -1.5627273195    -3.6692784766     2.5464500106
   48      H      -2.3053321573    -3.6507032251     0.9257310297
   49      C      -3.5607633226    -2.7143508700     2.3403447070
   50      H      -3.5162389301    -2.1948323288     3.3057990373
   51      C      -4.3808765795    -4.0665775188     2.4345696306
   52      H      -4.1727648392    -2.0649228485     1.7015150046
   53      H      -4.4186010353    -4.6049480564     1.4802221941
   54      H      -5.4365067099    -3.8718258992     2.6587254568
   55      H      -3.9545600982    -4.7585935463     3.1714265200
   56      C     -12.8566131458    -0.5283157733    -0.3739770539
   57      C     -12.5610409626     0.8014822554    -0.6078430139
   58      N     -11.8600972530    -1.4409431423    -0.2576612728
   59      C     -11.2763763171     1.2542254443    -0.5608924699
   60      C     -10.5974753882    -1.0044073835    -0.3541939509
   61      C     -10.2340345333     0.3328613265    -0.3360241351
   62      C      -8.8834174221     0.7955028293     0.0340707972
   63      C      -8.2552547869     1.9088180367    -0.5791746289
   64      C      -8.0112135183     0.1055690251     0.9249084344
   65      N      -7.0060789873     2.3425755287    -0.2748700775
   66      N      -8.4237231335    -0.9262318085     1.6665679635
   67      C      -6.7188163495     0.4960674305     1.1697523715
   68      C      -6.2109499434     1.6712509719     0.5836385963
   69      S      -7.1130006984    -1.5178111850     2.4568625538
   70      N      -6.1276915916    -0.3183714378     2.0719479437
   71      C      -4.7666805060     2.1321023419     0.8597758934
   72      S      -3.6449451552     1.3844264492     1.9866514688
   73      C      -4.1887331776     3.3160897537     0.4369323120
   74      C      -2.3165902339     2.5225195120     1.5828119174
   75      S      -4.9248800761     4.6352257078    -0.4375607287
   76      C      -2.9532877471     3.5989256065     0.9881278025
   77      C      -0.9399043808     2.4465652706     1.9463459804
   78      C      -3.3733521344     5.5924036131    -0.1817355859
   79      C      -2.4745564846     4.8934942493     0.6410335683
   80      N      -0.6763628270     1.4809557770     2.7888198110
   81      S       0.3884904338     3.3404314153     1.1408247007
   82      C       0.6263068272     1.3737876081     2.9987430248
   83      C       1.3104508564     2.3225137298     2.2242911584
   84      C     -14.3001151488    -1.0455851029    -0.3147199192
   85      H     -13.3809623195     1.4912905597    -0.7904613917
   86      H     -11.0133422158     2.2814983100    -0.7977247332
   87      H      -9.7818646767    -1.7236922389    -0.4194738411
   88      H      -8.8258002139     2.5557681696    -1.2437191657
   89      H      -3.3178256538     6.5535065995    -0.6741204552
   90      H      -1.4821921085     5.2818628368     0.8413153330
   91      H       1.0705555739     0.6293387738     3.6465199803
   92      H       2.3759390817     2.5119372594     2.2400254586
   93      H     -14.5429785643    -1.4808617994     0.6627469902
   94      C     -14.7716744246    -1.8871621531    -1.4589493184
   95      H     -14.9692468707    -0.1796769562    -0.2357463791
   96      H     -14.3514603718    -2.8999461300    -1.4904098653
   97      H     -14.3957253483    -1.4524135537    -2.3934636026
   98      C     -16.2734312217    -1.8889889113    -1.3807624570
   99      H     -16.6399637460    -2.3448667925    -0.4524030083
  100      C     -16.8173341636    -2.8124500757    -2.5111938205
  101      H     -16.6943976801    -0.8770270770    -1.4308172950
  102      H     -16.5423674710    -3.8366266605    -2.2333059993
  103      H     -16.3289603084    -2.6319526697    -3.4762858700
  104      C     -18.3736754312    -2.7448519725    -2.5117897249
  105      H     -18.7828698448    -3.0054441062    -1.5273728052
  106      C     -18.9083361720    -3.7250176354    -3.6038520700
  107      H     -18.7036840082    -1.7167312244    -2.7048080313
  108      H     -18.9748642097    -4.7159110920    -3.1376491338
  109      H     -18.2338922286    -3.7450606196    -4.4694429931
  110      H     -19.9374997388    -3.4369138257    -3.8572461256
 ----------------------------------------------------------------

   10   -5663.4800106786      3.98E-06 Convergence criterion met
 Total energy in the final basis set = -5663.4800106786

                    Orbital Energies (a.u.)
 --------------------------------------------------------------

 Alpha MOs
 -- Occupied --
-88.990 -88.986 -88.942 -88.929 -88.920 -88.918 -88.909 -88.907
-14.389 -14.388 -14.377 -14.371 -14.352 -14.346 -14.342 -14.341
-14.327 -14.322 -10.271 -10.269 -10.265 -10.260 -10.259 -10.253
-10.249 -10.248 -10.242 -10.242 -10.237 -10.236 -10.236 -10.235
-10.234 -10.232 -10.232 -10.232 -10.229 -10.227 -10.227 -10.227
-10.226 -10.225 -10.225 -10.224 -10.223 -10.221 -10.218 -10.211
-10.210 -10.209 -10.208 -10.207 -10.207 -10.206 -10.192 -10.191
-10.182 -10.180 -10.178 -10.176 -10.175 -10.175 -10.171 -10.171
-10.170 -10.169 -10.168 -10.161  -8.045  -8.041  -8.002  -7.991
 -7.978  -7.976  -7.968  -7.967  -6.010  -6.006  -6.005  -6.003
 -6.001  -5.999  -5.966  -5.963  -5.959  -5.955  -5.952  -5.948
 -5.943  -5.941  -5.939  -5.937  -5.935  -5.933  -5.932  -5.932
 -5.929  -5.928  -5.924  -5.923  -1.042  -1.041  -0.988  -0.980
 -0.962  -0.954  -0.939  -0.925  -0.917  -0.913  -0.911  -0.897
 -0.842  -0.835  -0.832  -0.828  -0.818  -0.818  -0.813  -0.811
 -0.811  -0.797  -0.795  -0.789  -0.785  -0.777  -0.770  -0.765
 -0.751  -0.747  -0.742  -0.737  -0.723  -0.718  -0.709  -0.708
 -0.692  -0.689  -0.677  -0.675  -0.653  -0.652  -0.643  -0.642
 -0.638  -0.632  -0.624  -0.619  -0.613  -0.609  -0.603  -0.600
 -0.594  -0.591  -0.585  -0.582  -0.581  -0.576  -0.571  -0.564
 -0.555  -0.544  -0.544  -0.541  -0.529  -0.526  -0.522  -0.517
 -0.511  -0.504  -0.501  -0.497  -0.488  -0.481  -0.479  -0.475
 -0.474  -0.471  -0.471  -0.468  -0.467  -0.457  -0.453  -0.449
 -0.444  -0.442  -0.442  -0.440  -0.438  -0.435  -0.432  -0.431
 -0.428  -0.425  -0.423  -0.420  -0.418  -0.416  -0.416  -0.413
 -0.410  -0.408  -0.406  -0.404  -0.401  -0.398  -0.397  -0.393
 -0.392  -0.391  -0.389  -0.388  -0.386  -0.383  -0.383  -0.382
 -0.379  -0.376  -0.373  -0.366  -0.361  -0.360  -0.358  -0.356
 -0.350  -0.350  -0.347  -0.347  -0.345  -0.342  -0.342  -0.340
 -0.340  -0.334  -0.334  -0.333  -0.326  -0.322  -0.321  -0.318
 -0.316  -0.316  -0.310  -0.309  -0.305  -0.300  -0.298  -0.297
 -0.295  -0.293  -0.293  -0.291  -0.289  -0.287  -0.282  -0.276
 -0.275  -0.269  -0.267  -0.260  -0.256  -0.253  -0.248  -0.243
 -0.239  -0.237  -0.234  -0.231  -0.196  -0.192

          Ground-State Mulliken Net Atomic Charges

     Atom                 Charge (a.u.)
  ----------------------------------------
      1 C                     0.315972
      2 C                    -0.129374
      3 N                    -0.502727
      4 C                    -0.049652
      5 C                     0.060783
      6 C                     0.002334
      7 C                     0.001051
      8 C                     0.080592
      9 C                     0.205781
     10 N                    -0.490869
     11 N                    -0.537782
     12 C                     0.279393
     13 C                     0.263570
     14 S                     0.581160
     15 N                    -0.586333
     16 C                    -0.213771
     17 S                     0.340368
     18 C                    -0.117904
     19 C                    -0.195990
     20 S                     0.266054
     21 C                     0.144344
     22 C                     0.022757
     23 C                    -0.304969
     24 C                    -0.062593
     25 N                    -0.413197
     26 S                     0.275272
     27 C                     0.123050
     28 C                    -0.300742
     29 C                    -0.260386
     30 H                     0.084708
     31 H                     0.101841
     32 H                     0.112890
     33 H                     0.113769
     34 H                     0.133373
     35 H                     0.109228
     36 H                     0.110107
     37 H                     0.139321
     38 H                     0.111684
     39 C                    -0.171178
     40 H                     0.121829
     41 H                     0.100297
     42 H                     0.102910
     43 C                    -0.184960
     44 H                     0.110943
     45 C                    -0.171720
     46 H                     0.098232
     47 H                     0.092196
     48 H                     0.089292
     49 C                    -0.183658
     50 H                     0.098176
     51 C                    -0.334456
     52 H                     0.110075
     53 H                     0.102043
     54 H                     0.083618
     55 H                     0.103472
     56 C                     0.260401
     57 C                    -0.113926
     58 N                    -0.488735
     59 C                    -0.067217
     60 C                     0.105692
     61 C                     0.032891
     62 C                     0.057317
     63 C                     0.049593
     64 C                     0.202420
     65 N                    -0.533337
     66 N                    -0.560662
     67 C                     0.223378
     68 C                     0.323267
     69 S                     0.621623
     70 N                    -0.571366
     71 C                    -0.221022
     72 S                     0.360004
     73 C                    -0.108684
     74 C                    -0.216729
     75 S                     0.267314
     76 C                     0.103197
     77 C                     0.067255
     78 C                    -0.307790
     79 C                    -0.077287
     80 N                    -0.416262
     81 S                     0.273409
     82 C                     0.142000
     83 C                    -0.315264
     84 C                    -0.224347
     85 H                     0.085594
     86 H                     0.096432
     87 H                     0.103252
     88 H                     0.109278
     89 H                     0.133393
     90 H                     0.110723
     91 H                     0.128221
     92 H                     0.123087
     93 H                     0.115112
     94 C                    -0.157064
     95 H                     0.089555
     96 H                     0.112544
     97 H                     0.093405
     98 C                    -0.178080
     99 H                     0.096669
    100 C                    -0.181671
    101 H                     0.092187
    102 H                     0.095580
    103 H                     0.092035
    104 C                    -0.181119
    105 H                     0.093049
    106 C                    -0.318923
    107 H                     0.091657
    108 H                     0.104923
    109 H                     0.105569
    110 H                     0.097237
  ----------------------------------------
  Sum of atomic charges =     0.000000

                    Cartesian Multipole Moments
 -----------------------------------------------------------------
    Charge (ESU x 10^10)
                 0.0000
    Dipole Moment (Debye)
         X       2.8468      Y       4.9907      Z      -0.8368
       Tot       5.8061
    Quadrupole Moments (Debye-Ang)
        XX    -345.0376     XY       9.7830     YY    -441.5845
        XZ       8.5728     YZ      -8.7774     ZZ    -440.3736

 Total job time:  91.55s(wall), 1082.90s(cpu)
        *  Thank you very much for using Q-Chem.  Have a nice day.  *
