 Q-Chem 4.4, Q-Chem, Inc., Pleasanton, CA (2016)
 Q-Chem 4.4.2 for Intel X86 Linux

User input:
--------------------------------------------------------------
$comment
SP
$end

$rem
MEM_STATIC 5000
MEM_TOTAL 20000
JOBTYPE SP
EXCHANGE B3LYP
BASIS 6-31g(d,p)
$end

$molecule
0 1
C          10.230000     23.031000      2.655000
C          11.228000     23.503000      3.530000
N           9.172000     22.341000      3.059000
C          11.269000     23.032000      4.861000
C           9.116000     21.984000      4.372000
C          10.116000     22.285000      5.302000
C           9.930000     21.922000      6.780000
C          10.647000     22.581000      7.799000
C           9.126000     20.841000      7.247000
N          10.545000     22.195000      9.090000
N           8.507000     19.978000      6.394000
C           8.953000     20.552000      8.608000
C           9.716000     21.209000      9.479000
S           7.613000     19.008000      7.273000
N           8.060000     19.576000      8.852000
C           9.503000     21.146000     10.939000
S           8.035000     20.408000     11.710000
C          10.475000     21.500000     11.877000
C           8.654000     20.828000     13.330000
S          12.123000     22.096000     11.790000
C           9.960000     21.354000     13.196000
C           7.907000     20.746000     14.580000
C          12.049000     22.251000     13.566000
C          10.917000     21.716000     14.125000
N           8.518000     21.065000     15.684000
S           6.212000     20.499000     14.604000
C           7.610000     21.004000     16.728000
C           6.328000     20.832000     16.299000
C          10.252000     23.642000      1.252000
H          11.925000     24.252000      3.165000
H          12.090000     23.323000      5.509000
H           8.163000     21.536000      4.650000
H          11.147000     23.504000      7.509000
H          12.988000     22.458000     14.062000
H          10.777000     21.515000     15.182000
H           7.970000     21.273000     17.712000
H           5.406000     20.859000     16.864000
H          10.639000     24.667000      1.306000
C           8.854000     23.752000      0.522000
H          10.987000     23.149000      0.603000
H           8.182000     24.362000      1.140000
H           8.417000     22.751000      0.415000
C           9.093000     24.413000     -0.892000
H           9.408000     25.446000     -0.696000
C           7.871000     24.546000     -1.773000
H           9.972000     23.957000     -1.365000
H           7.402000     25.533000     -1.683000
H           7.191000     23.770000     -1.401000
C           8.119000     24.448000     -3.270000
H           8.519000     25.395000     -3.651000
C           6.782000     24.166000     -4.019000
H           8.851000     23.697000     -3.591000
H           7.014000     23.962000     -5.073000
H           6.123000     25.042000     -3.970000
H           6.264000     23.283000     -3.625000
C          -6.835000     27.764000      9.528000
C          -5.669000     27.212000      8.889000
N          -6.910000     27.878000     10.861000
C          -4.589000     26.839000      9.668000
C          -5.875000     27.485000     11.620000
C          -4.665000     27.012000     11.094000
C          -3.526000     26.430000     11.969000
C          -2.626000     25.428000     11.571000
C          -3.120000     26.822000     13.304000
N          -1.519000     24.921000     12.191000
N          -3.883000     27.782000     13.946000
C          -1.929000     26.498000     13.965000
C          -1.136000     25.527000     13.316000
S          -3.114000     28.016000     15.387000
N          -1.708000     27.159000     15.083000
C           0.029000     24.883000     14.005000
S           0.525000     25.164000     15.660000
C           0.843000     23.844000     13.495000
C           1.926000     24.034000     15.559000
S           0.826000     23.075000     11.896000
C           1.858000     23.462000     14.333000
C           2.797000     23.851000     16.649000
C           2.386000     22.322000     12.337000
C           2.727000     22.492000     13.703000
N           4.056000     23.647000     16.410000
S           2.132000     23.758000     18.221000
C           4.675000     23.410000     17.671000
C           3.791000     23.587000     18.728000
C          -8.075000     28.103000      8.764000
H          -5.748000     27.068000      7.815000
H          -3.710000     26.334000      9.281000
H          -5.998000     27.600000     12.696000
H          -2.853000     24.965000     10.613000
H           2.904000     21.619000     11.698000
H           3.550000     22.106000     14.293000
H           5.753000     23.321000     17.646000
H           4.009000     23.701000     19.781000
H          -7.977000     28.209000      7.676000
C          -8.768000     29.399000      9.212000
H          -8.710000     27.209000      8.807000
H          -8.200000     30.292000      8.925000
H          -8.858000     29.534000     10.297000
C         -10.211000     29.533000      8.660000
H         -10.303000     29.482000      7.569000
C         -10.853000     30.821000      9.146000
H         -10.748000     28.624000      8.958000
H         -10.721000     30.885000     10.233000
H         -11.934000     30.677000      9.026000
C         -10.349000     32.069000      8.448000
H          -9.372000     32.328000      8.875000
C         -11.353000     33.333000      8.620000
H         -10.187000     31.891000      7.378000
H         -10.750000     34.202000      8.330000
H         -11.736000     33.409000      9.646000
H         -12.177000     33.329000      7.897000
$end

--------------------------------------------------------------

             Standard Nuclear Orientation (Angstroms)
    I     Atom           X                Y                Z
 ----------------------------------------------------------------
    1      C       8.6502590401    -5.8762339492    -0.8023737964
    2      C       9.1363897350    -4.9619467637    -1.7574491285
    3      N       7.8440153066    -5.5323945296     0.1928274373
    4      C       8.9833974992    -3.5751578524    -1.5372381131
    5      C       7.5682529094    -4.2083226544     0.3520215629
    6      C       8.1027833579    -3.2009239929    -0.4572535056
    7      C       7.6685453683    -1.7433077355    -0.2632400664
    8      C       7.7976089326    -0.7900855855    -1.2935027169
    9      C       7.2127350172    -1.1983108761     0.9729967018
   10      N       7.4971005038     0.5110138208    -1.0863408981
   11      N       7.1997698439    -1.9264217266     2.1241810892
   12      C       6.7950676130     0.1329091935     1.1114815950
   13      C       7.0058502087     0.9544906003     0.0853072973
   14      S       6.5125870332    -1.0325085716     3.2383965333
   15      N       6.2821392129     0.4235889285     2.3206014187
   16      C       6.4445503886     2.3189929851     0.0219531046
   17      S       5.1903012932     2.9447702349     1.1749366433
   18      C       6.9328647281     3.3161170728    -0.8249451536
   19      C       5.1556457508     4.5079559181     0.3151631191
   20      S       8.2145355879     3.4100146337    -2.0195965903
   21      C       6.1695891906     4.5077385031    -0.6708321414
   22      C       4.1807036095     5.5740800047     0.5154135952
   23      C       7.6138943174     5.0508509368    -2.3809320171
   24      C       6.6440542403     5.4915142573    -1.5175919550
   25      N       4.3143118295     6.6680576106    -0.1768723583
   26      S       2.7486289943     5.3287953494     1.4229419607
   27      C       3.2435235826     7.5020073092     0.0989200105
   28      C       2.2756201168     6.8870777821     0.8352443666
   29      C       8.8286460538    -7.3524968582    -1.1643681288
   30      H       9.5883934081    -5.3520753175    -2.6649332281
   31      H       9.4376294645    -2.8684775339    -2.2249169983
   32      H       6.8028374878    -4.0213660471     1.1039414120
   33      H       7.9908674562    -1.1877592813    -2.2887593545
   34      H       8.2447135408     5.6552893607    -3.0191383311
   35      H       6.3062134700     6.5187683935    -1.4289209135
   36      H       3.2032016165     8.4451431987    -0.4293657388
   37      H       1.2898501132     7.2413220393     1.1050711745
   38      H       8.7915509272    -7.4683307779    -2.2545591463
   39      C       7.7369344773    -8.3429923412    -0.5929763788
   40      H       9.8374310641    -7.7128345178    -0.9256537093
   41      H       6.7507541429    -8.0276502836    -0.9585112400
   42      H       7.7350245907    -8.2929314464     0.5033398435
   43      C       8.0941947600    -9.7997393218    -1.0866273941
   44      H       7.9516134259    -9.7960698229    -2.1749228953
   45      C       7.1921734207   -10.9055959954    -0.5860552006
   46      H       9.1708862325    -9.9734335824    -0.9646774986
   47      H       6.3942552916   -11.1430182149    -1.2996288471
   48      H       6.7631719687   -10.4991569191     0.3379172186
   49      C       7.8525674153   -12.2606215279    -0.3862989043
   50      H       7.9723950930   -12.7698921391    -1.3497586971
   51      C       6.9613261561   -13.1649957953     0.5169675030
   52      H       8.8629401440   -12.2482533163     0.0401515341
   53      H       7.5260728649   -14.0761371442     0.7562133957
   54      H       6.0445949419   -13.4518750304    -0.0134683418
   55      H       6.7095737842   -12.6811636861     1.4686902742
   56      C     -10.1496798648    -3.7324239823     0.8769174217
   57      C      -8.7373262477    -3.9863195867     0.9925689771
   58      N     -10.6170437487    -2.5040686559     0.6157198102
   59      C      -7.8484364286    -2.9483484959     0.7807650486
   60      C      -9.7557795400    -1.4890955273     0.4430683962
   61      C      -8.3629670568    -1.6455206344     0.4535360828
   62      C      -7.3721528185    -0.4554445371     0.3929058285
   63      C      -6.1007382662    -0.4248567005     0.9887056441
   64      C      -7.5102068560     0.8018639545    -0.3147956903
   65      N      -5.0967100265     0.4984756761     0.9094426878
   66      N      -8.7099173441     1.0399778323    -0.9628153860
   67      C      -6.5079386206     1.7372559623    -0.5991865767
   68      C      -5.2755857341     1.5008466106     0.0475807551
   69      S      -8.4954670511     2.5054278550    -1.6901841391
   70      N      -6.8494235991     2.6887881319    -1.4439708922
   71      C      -4.1891170989     2.5333891267     0.0587098704
   72      S      -4.2931564106     4.1390157942    -0.6305947257
   73      C      -2.9510457613     2.4494631990     0.7386751649
   74      C      -2.6082206659     4.5791719967    -0.1645946680
   75      S      -2.2588125652     1.1045374602     1.6662736552
   76      C      -2.1329019512     3.5332379731     0.5530251043
   77      C      -2.0581750064     5.8283041472    -0.5071565499
   78      C      -0.7134126511     2.0026377026     1.6506192639
   79      C      -0.8381308532     3.3293259003     1.1653556282
   80      N      -0.7956179964     5.8912279175    -0.8000872510
   81      S      -3.0427198568     7.2195210742    -0.3758367136
   82      C      -0.4974165014     7.2674486467    -1.0158263828
   83      C      -1.6357829149     8.0622590461    -0.9665076476
   84      C     -11.1733451966    -4.7788986687     1.1822320450
   85      H      -8.4666004789    -4.9905551697     1.3066891008
   86      H      -6.7773256932    -3.0285682477     0.9347831769
   87      H     -10.1970961661    -0.5150136804     0.2368302061
   88      H      -5.8788951504    -1.2718510612     1.6344983236
   89      H       0.1742580126     1.6595752284     2.1655978378
   90      H      -0.1232227713     4.1408487023     1.0963471044
   91      H       0.5044129186     7.4722247546    -1.3694286436
   92      H      -1.7658816569     9.0803365994    -1.3069799853
   93      H     -10.8305358944    -5.8213582929     1.2007715758
   94      C     -12.3789383885    -4.7913524561     0.2298881161
   95      H     -11.4310410879    -4.6493323901     2.2410594187
   96      H     -12.1149566585    -5.1659967296    -0.7663032885
   97      H     -12.8003847291    -3.8070610922    -0.0090752557
   98      C     -13.5674687843    -5.6266291870     0.7726747046
   99      H     -13.3371897379    -6.6714993040     1.0105065769
  100      C     -14.7348682544    -5.5911793299    -0.1985234137
  101      H     -13.8009712104    -5.2317632162     1.7691743193
  102      H     -14.9330029058    -4.5454829799    -0.4637606725
  103      H     -15.6165650537    -5.8796823967     0.3872015512
  104      C     -14.5448085221    -6.4533719531    -1.4310919427
  105      H     -13.8801198344    -5.9196053469    -2.1219038987
  106      C     -15.9423450178    -6.7810589569    -2.1892535157
  107      H     -14.0476296471    -7.3993668596    -1.1846476220
  108      H     -15.6376612227    -7.1461591450    -3.1775549058
  109      H     -16.5884580396    -5.8954714311    -2.2476803684
  110      H     -16.4821576210    -7.6274575711    -1.7488755651
 ----------------------------------------------------------------

   11   -5663.4980899457      8.83E-06 Convergence criterion met
 Total energy in the final basis set = -5663.4980899457

                    Orbital Energies (a.u.)
 --------------------------------------------------------------

 Alpha MOs
 -- Occupied --
-88.989 -88.986 -88.932 -88.926 -88.923 -88.920 -88.912 -88.909
-14.390 -14.387 -14.386 -14.385 -14.358 -14.347 -14.347 -14.338
-14.329 -14.329 -10.267 -10.264 -10.264 -10.261 -10.258 -10.257
-10.252 -10.246 -10.244 -10.240 -10.240 -10.240 -10.238 -10.237
-10.237 -10.236 -10.235 -10.234 -10.230 -10.230 -10.229 -10.227
-10.227 -10.227 -10.226 -10.226 -10.226 -10.224 -10.223 -10.220
-10.218 -10.218 -10.206 -10.203 -10.202 -10.202 -10.200 -10.189
-10.187 -10.185 -10.181 -10.179 -10.176 -10.176 -10.175 -10.173
-10.173 -10.171 -10.171 -10.170  -8.044  -8.042  -7.994  -7.988
 -7.981  -7.980  -7.971  -7.968  -6.009  -6.007  -6.004  -6.002
 -6.001  -5.999  -5.958  -5.954  -5.952  -5.951  -5.948  -5.945
 -5.945  -5.944  -5.942  -5.940  -5.938  -5.937  -5.935  -5.933
 -5.932  -5.929  -5.927  -5.924  -1.033  -1.033  -0.976  -0.976
 -0.962  -0.959  -0.941  -0.939  -0.911  -0.904  -0.903  -0.898
 -0.837  -0.836  -0.830  -0.829  -0.818  -0.812  -0.807  -0.805
 -0.804  -0.800  -0.798  -0.793  -0.784  -0.782  -0.769  -0.765
 -0.747  -0.746  -0.740  -0.739  -0.719  -0.717  -0.708  -0.706
 -0.694  -0.691  -0.676  -0.674  -0.656  -0.656  -0.642  -0.641
 -0.638  -0.636  -0.626  -0.623  -0.612  -0.607  -0.602  -0.597
 -0.594  -0.592  -0.587  -0.582  -0.578  -0.572  -0.568  -0.564
 -0.557  -0.550  -0.538  -0.536  -0.525  -0.523  -0.518  -0.513
 -0.512  -0.507  -0.497  -0.493  -0.486  -0.480  -0.473  -0.472
 -0.471  -0.470  -0.467  -0.465  -0.464  -0.461  -0.446  -0.444
 -0.442  -0.439  -0.439  -0.435  -0.433  -0.432  -0.431  -0.428
 -0.427  -0.424  -0.421  -0.420  -0.417  -0.416  -0.416  -0.413
 -0.411  -0.408  -0.407  -0.404  -0.399  -0.398  -0.397  -0.396
 -0.395  -0.392  -0.391  -0.390  -0.385  -0.385  -0.384  -0.384
 -0.378  -0.376  -0.373  -0.372  -0.366  -0.365  -0.358  -0.357
 -0.353  -0.349  -0.349  -0.346  -0.346  -0.345  -0.343  -0.340
 -0.336  -0.334  -0.333  -0.331  -0.328  -0.327  -0.322  -0.320
 -0.314  -0.310  -0.306  -0.306  -0.304  -0.302  -0.298  -0.297
 -0.297  -0.296  -0.293  -0.292  -0.289  -0.288  -0.285  -0.285
 -0.283  -0.271  -0.269  -0.267  -0.256  -0.253  -0.251  -0.249
 -0.245  -0.244  -0.234  -0.230  -0.198  -0.188

          Ground-State Mulliken Net Atomic Charges

     Atom                 Charge (a.u.)
  ----------------------------------------
      1 C                     0.293053
      2 C                    -0.122210
      3 N                    -0.485873
      4 C                    -0.085938
      5 C                     0.082174
      6 C                     0.042530
      7 C                     0.044575
      8 C                     0.058180
      9 C                     0.177995
     10 N                    -0.513256
     11 N                    -0.520709
     12 C                     0.272399
     13 C                     0.283893
     14 S                     0.596979
     15 N                    -0.611883
     16 C                    -0.214147
     17 S                     0.313685
     18 C                    -0.109399
     19 C                    -0.237883
     20 S                     0.273667
     21 C                     0.150141
     22 C                     0.092844
     23 C                    -0.314049
     24 C                    -0.047689
     25 N                    -0.445581
     26 S                     0.282969
     27 C                     0.118023
     28 C                    -0.312870
     29 C                    -0.254895
     30 H                     0.093726
     31 H                     0.106070
     32 H                     0.120720
     33 H                     0.113924
     34 H                     0.124588
     35 H                     0.128419
     36 H                     0.111805
     37 H                     0.136016
     38 H                     0.106616
     39 C                    -0.174769
     40 H                     0.113818
     41 H                     0.102341
     42 H                     0.114635
     43 C                    -0.183127
     44 H                     0.087165
     45 C                    -0.168085
     46 H                     0.088905
     47 H                     0.094892
     48 H                     0.094165
     49 C                    -0.183823
     50 H                     0.093049
     51 C                    -0.316504
     52 H                     0.091006
     53 H                     0.094831
     54 H                     0.101173
     55 H                     0.104815
     56 C                     0.278372
     57 C                    -0.123538
     58 N                    -0.484533
     59 C                    -0.075336
     60 C                     0.081141
     61 C                     0.046674
     62 C                     0.073951
     63 C                     0.029318
     64 C                     0.146955
     65 N                    -0.512609
     66 N                    -0.533525
     67 C                     0.287293
     68 C                     0.318787
     69 S                     0.592464
     70 N                    -0.587914
     71 C                    -0.241013
     72 S                     0.305360
     73 C                    -0.130551
     74 C                    -0.255050
     75 S                     0.286691
     76 C                     0.212653
     77 C                     0.059692
     78 C                    -0.322654
     79 C                    -0.058983
     80 N                    -0.421498
     81 S                     0.284771
     82 C                     0.090092
     83 C                    -0.303733
     84 C                    -0.229451
     85 H                     0.092841
     86 H                     0.104170
     87 H                     0.126738
     88 H                     0.094890
     89 H                     0.128310
     90 H                     0.118449
     91 H                     0.124720
     92 H                     0.132003
     93 H                     0.100785
     94 C                    -0.173051
     95 H                     0.122713
     96 H                     0.094208
     97 H                     0.122579
     98 C                    -0.184402
     99 H                     0.081677
    100 C                    -0.173784
    101 H                     0.086644
    102 H                     0.091986
    103 H                     0.085781
    104 C                    -0.173079
    105 H                     0.099978
    106 C                    -0.329074
    107 H                     0.092767
    108 H                     0.100835
    109 H                     0.107943
    110 H                     0.106450
  ----------------------------------------
  Sum of atomic charges =     0.000000

                    Cartesian Multipole Moments
 -----------------------------------------------------------------
    Charge (ESU x 10^10)
                 0.0000
    Dipole Moment (Debye)
         X      -0.1703      Y       0.8339      Z      -0.4110
       Tot       0.9452
    Quadrupole Moments (Debye-Ang)
        XX    -442.2606     XY      -6.2440     YY    -394.1278
        XZ     -17.1669     YZ       0.5734     ZZ    -441.1977

 Total job time:  96.16s(wall), 1126.85s(cpu)
        *  Thank you very much for using Q-Chem.  Have a nice day.  *
