 Q-Chem 4.4, Q-Chem, Inc., Pleasanton, CA (2016)
 Q-Chem 4.4.2 for Intel X86 Linux

User input:
--------------------------------------------------------------
$comment
SP
$end

$rem
MEM_STATIC 5000
MEM_TOTAL 20000
JOBTYPE SP
EXCHANGE B3LYP
BASIS 6-31g(d,p)
$end

$molecule
0 1
C          32.913000    -26.634000      1.230000
C          32.076000    -27.593000      0.794000
N          32.647000    -25.788000      2.231000
C          30.767000    -27.680000      1.309000
C          31.336000    -25.814000      2.662000
C          30.357000    -26.762000      2.339000
C          29.041000    -26.783000      3.138000
C          28.896000    -26.096000      4.398000
C          27.865000    -27.367000      2.655000
N          27.676000    -25.864000      4.984000
N          27.702000    -27.903000      1.439000
C          26.657000    -27.300000      3.323000
C          26.569000    -26.459000      4.498000
S          26.081000    -28.376000      1.270000
N          25.549000    -27.869000      2.730000
C          25.274000    -26.059000      5.131000
S          23.652000    -26.788000      4.732000
C          25.067000    -24.974000      5.959000
C          22.786000    -25.651000      5.843000
S          26.132000    -23.757000      6.549000
C          23.739000    -24.792000      6.348000
C          21.380000    -25.637000      5.918000
C          24.750000    -23.089000      7.491000
C          23.537000    -23.700000      7.231000
N          20.652000    -24.708000      6.554000
S          20.449000    -26.490000      4.668000
C          19.397000    -24.526000      6.025000
C          19.181000    -25.297000      4.906000
C          34.202000    -26.306000      0.451000
H          32.489000    -28.264000      0.047000
H          30.089000    -28.392000      0.848000
H          31.132000    -25.031000      3.391000
H          29.769000    -25.818000      4.986000
H          24.881000    -22.206000      8.102000
H          22.622000    -23.426000      7.741000
H          18.794000    -23.721000      6.424000
H          18.409000    -25.157000      4.161000
H          34.794000    -25.479000      0.862000
C          34.034000    -25.985000     -1.028000
H          34.856000    -27.171000      0.615000
H          33.456000    -25.053000     -1.033000
H          33.422000    -26.720000     -1.564000
C          35.318000    -25.582000     -1.842000
H          34.943000    -25.397000     -2.856000
C          36.436000    -26.647000     -1.867000
H          35.780000    -24.641000     -1.518000
H          36.798000    -26.861000     -0.854000
H          37.347000    -26.293000     -2.365000
C          36.063000    -27.972000     -2.559000
H          35.230000    -28.533000     -2.118000
C          37.379000    -28.855000     -2.704000
H          35.672000    -27.746000     -3.559000
H          37.961000    -28.691000     -3.619000
H          36.958000    -29.867000     -2.651000
H          38.060000    -28.814000     -1.845000
C          16.733000    -21.742000     -0.386000
C          16.577000    -21.557000      0.998000
N          16.681000    -22.957000     -0.997000
C          16.617000    -22.655000      1.852000
C          16.728000    -24.011000     -0.131000
C          16.661000    -23.935000      1.263000
C          16.502000    -25.171000      2.102000
C          15.708000    -25.275000      3.266000
C          17.243000    -26.434000      1.893000
N          15.491000    -26.342000      4.035000
N          18.154000    -26.569000      0.915000
C          17.080000    -27.529000      2.739000
C          16.035000    -27.491000      3.723000
S          18.752000    -28.093000      1.255000
N          17.899000    -28.523000      2.614000
C          15.591000    -28.592000      4.613000
S          14.990000    -28.480000      6.261000
C          15.429000    -29.919000      4.147000
C          14.608000    -30.177000      6.302000
S          15.711000    -30.663000      2.517000
C          14.967000    -30.776000      5.142000
C          13.769000    -30.690000      7.360000
C          15.152000    -32.194000      3.250000
C          14.736000    -32.106000      4.551000
N          14.043000    -31.932000      7.774000
S          12.965000    -29.641000      8.470000
C          13.386000    -32.136000      9.021000
C          12.790000    -31.023000      9.502000
C          16.658000    -20.557000     -1.321000
H          16.587000    -20.562000      1.434000
H          16.494000    -22.579000      2.928000
H          16.790000    -24.979000     -0.626000
H          15.106000    -24.409000      3.539000
H          15.102000    -33.074000      2.625000
H          14.273000    -32.908000      5.114000
H          13.483000    -33.081000      9.540000
H          12.230000    -30.885000     10.417000
H          16.980000    -19.630000     -0.831000
C          15.228000    -20.314000     -1.900000
H          17.253000    -20.747000     -2.223000
H          14.922000    -21.153000     -2.536000
H          15.179000    -19.492000     -2.625000
C          14.158000    -20.144000     -0.846000
H          13.228000    -20.046000     -1.421000
C          14.291000    -18.836000     -0.040000
H          14.050000    -20.981000     -0.146000
H          14.187000    -18.031000     -0.777000
H          15.269000    -18.747000      0.449000
C          13.298000    -18.613000      1.105000
H          12.288000    -18.769000      0.706000
C          13.381000    -17.174000      1.676000
H          13.531000    -19.364000      1.870000
H          13.171000    -16.483000      0.850000
H          14.281000    -16.903000      2.240000
H          12.530000    -16.972000      2.338000
$end

--------------------------------------------------------------

             Standard Nuclear Orientation (Angstroms)
    I     Atom           X                Y                Z
 ----------------------------------------------------------------
    1      C     -11.5422835574     0.3090508029    -0.0302137454
    2      C     -10.7988925274     0.7942291101    -1.0413110635
    3      N     -11.1003058232     0.1195651985     1.2176740253
    4      C      -9.4195788489     1.0215508115    -0.8621641396
    5      C      -9.7337328376     0.2502445750     1.3610587375
    6      C      -8.8305163230     0.7739672227     0.4275768062
    7      C      -7.3937326558     1.0993674755     0.8753103981
    8      C      -7.0253921077     1.1944821833     2.2666667266
    9      C      -6.3238836394     1.2137015908    -0.0189333004
   10      N      -5.7200762140     1.2023140369     2.6929402064
   11      N      -6.3808332304     0.9870602547    -1.3372319952
   12      C      -5.0163481685     1.4048968536     0.3857546827
   13      C      -4.7186992342     1.3307639932     1.8005194798
   14      S      -4.8169997979     1.1365372260    -1.9791140953
   15      N      -4.0328850367     1.4535686986    -0.5804261078
   16      C      -3.3307113333     1.2166307775     2.3465755171
   17      S      -1.8074901968     1.4552016777     1.3747693147
   18      C      -2.9767369669     0.7394247863     3.5926231044
   19      C      -0.7546088606     1.0252882284     2.7831944345
   20      S      -3.9163893977     0.1438713904     4.9063138831
   21      C      -1.6002334602     0.6720255327     3.8133592292
   22      C       0.6424363922     0.9206672020     2.6418579473
   23      C      -2.3871348377    -0.0349370661     5.8406157759
   24      C      -1.2414022312     0.2192459030     5.1091940011
   25      N       1.4746030955     0.4202313192     3.5662948056
   26      S       1.3342835835     0.8673898819     1.0061993671
   27      C       2.6164333496    -0.1375786999     3.0437417905
   28      C       2.6281142208    -0.1204448086     1.6679409375
   29      C     -12.9479886521    -0.2644672269    -0.2967024999
   30      H     -11.3399382293     0.9891388669    -1.9622338264
   31      H      -8.8363283605     1.3020090596    -1.7341223030
   32      H      -9.4012148065    -0.0280990773     2.3601095721
   33      H      -7.7793789671     1.3638039349     3.0334724127
   34      H      -2.4049209878    -0.4289007034     6.8479128052
   35      H      -0.2495978207     0.1798004966     5.5418244106
   36      H       3.2831571889    -0.6509824155     3.7239850902
   37      H       3.2561612677    -0.7143191348     1.0171881491
   38      H     -13.4551127005    -0.6762247386     0.5845437490
   39      C     -13.0439894641    -1.3497851788    -1.3604575410
   40      H     -13.5652283433     0.6089064694    -0.5397468379
   41      H     -12.4731321292    -2.1857522622    -0.9385405602
   42      H     -12.5390671673    -1.0844818558    -2.2967975546
   43      C     -14.4507476657    -2.0053757369    -1.6151993359
   44      H     -14.2609770090    -2.7448549919    -2.4027293539
   45      C     -15.5587765088    -1.0232911258    -2.0540112542
   46      H     -14.8450092301    -2.5718226249    -0.7622065212
   47      H     -15.7360213649    -0.2613694715    -1.2852013598
   48      H     -16.5425534646    -1.5021931149    -2.1319649975
   49      C     -15.3185775432    -0.3270670919    -3.4072276270
   50      H     -14.4223206374     0.3012377501    -3.4782739789
   51      C     -16.6421821507     0.4568182110    -3.8148606418
   52      H     -15.1104492935    -1.0947222554    -4.1631014139
   53      H     -17.3767371466    -0.1205783519    -4.3892186897
   54      H     -16.2216213646     1.2907023731    -4.3910201938
   55      H     -17.1598861649     0.9526493504    -2.9845251464
   56      C       4.1097195101    -6.1889671345    -1.0913842602
   57      C       4.5093115398    -5.6084769422     0.1240886298
   58      N       4.0487213006    -5.5102320819    -2.2694538451
   59      C       4.6179940547    -4.2250201235     0.2277965936
   60      C       4.1527808524    -4.1563552697    -2.1306367453
   61      C       4.4662177366    -3.4709624994    -0.9535661994
   62      C       4.7676518871    -1.9992865998    -0.9679014513
   63      C       5.7551982932    -1.3572364169    -0.1877273308
   64      C       3.9973872459    -0.9873426221    -1.7232773633
   65      N       6.1018242348    -0.0701329778    -0.1753098481
   66      N       2.9269417727    -1.3179104230    -2.4645609919
   67      C       4.3044401814     0.3699907871    -1.6549069676
   68      C       5.5075213209     0.7720886840    -0.9821231591
   69      S       2.3939727362     0.1958532526    -2.9338621115
   70      N       3.4731529223     1.2102000571    -2.1816249905
   71      C       6.0989028848     2.1315774745    -0.9230040033
   72      S       6.9830355630     2.8737879749     0.4025456865
   73      C       6.1715294161     2.9719557046    -2.0600259105
   74      C       7.3609459425     4.2769473770    -0.5543981140
   75      S       5.6025547014     2.7370031550    -3.7661985493
   76      C       6.8000124043     4.1828460552    -1.7831293730
   77      C       8.3726986586     5.1988678908    -0.0930164847
   78      C       6.2779204519     4.3596203508    -4.0898118049
   79      C       6.9183630973     4.9514537937    -3.0348391068
   80      N       8.1725974224     6.4864346512    -0.3949557713
   81      S       9.3641110660     4.8477947355     1.2754739530
   82      C       9.0397266207     7.2699801111     0.4189345565
   83      C       9.7150687704     6.5444430525     1.3370058813
   84      C       4.0213862361    -7.6922894458    -1.2190332366
   85      H       4.5799152927    -6.2022805319     1.0310800338
   86      H       4.9301371112    -3.7172300551     1.1352088255
   87      H       4.0009383358    -3.6102253709    -3.0604641399
   88      H       6.3987792332    -1.9897518368     0.4226961429
   89      H       6.2135175185     4.7511883070    -5.0948251371
   90      H       7.4713756588     5.8822715181    -3.0827710453
   91      H       9.0333703979     8.3495818716     0.3401015867
   92      H      10.4289164230     6.8717168494     2.0807682026
   93      H       3.7943046872    -8.1704096375    -0.2583313825
   94      C       5.3267624892    -8.3447555877    -1.7753342087
   95      H       3.2752371437    -7.9657680874    -1.9754722390
   96      H       5.5124759162    -8.0177064100    -2.8051897123
   97      H       5.2489562699    -9.4286799890    -1.9262119224
   98      C       6.5672758803    -8.0173472456    -0.9761807165
   99      H       7.3808394391    -8.4990537356    -1.5340357097
  100      C       6.5834378237    -8.6604106464     0.4253888515
  101      H       6.7951105244    -6.9493540783    -0.8776161709
  102      H       6.5575775712    -9.7418635746     0.2470610314
  103      H       5.7079656380    -8.3769081021     1.0226331563
  104      C       7.7644794049    -8.3206491164     1.3399958087
  105      H       8.6871984892    -8.5024776683     0.7750490243
  106      C       7.7885742511    -9.2051817957     2.6130521223
  107      H       7.6685210983    -7.2568699863     1.5903574788
  108      H       7.8508899539   -10.2497155901     2.2830174187
  109      H       7.0037367627    -9.0404517052     3.3603346084
  110      H       8.7441299810    -9.0960682884     3.1405523494
 ----------------------------------------------------------------

   10   -5663.5017350971      4.91E-06 Convergence criterion met
 Total energy in the final basis set = -5663.5017350971

                    Orbital Energies (a.u.)
 --------------------------------------------------------------

 Alpha MOs
 -- Occupied --
-88.990 -88.985 -88.930 -88.928 -88.921 -88.919 -88.914 -88.911
-14.397 -14.396 -14.393 -14.379 -14.354 -14.350 -14.349 -14.343
-14.340 -14.327 -10.270 -10.270 -10.270 -10.265 -10.265 -10.261
-10.259 -10.254 -10.249 -10.246 -10.243 -10.242 -10.241 -10.239
-10.237 -10.237 -10.237 -10.234 -10.233 -10.232 -10.231 -10.231
-10.230 -10.230 -10.229 -10.225 -10.224 -10.224 -10.223 -10.221
-10.220 -10.214 -10.210 -10.208 -10.207 -10.203 -10.196 -10.192
-10.187 -10.182 -10.182 -10.182 -10.181 -10.181 -10.179 -10.177
-10.176 -10.175 -10.175 -10.174  -8.045  -8.041  -7.993  -7.988
 -7.982  -7.977  -7.973  -7.970  -6.010  -6.006  -6.004  -6.002
 -6.000  -5.998  -5.957  -5.953  -5.952  -5.950  -5.949  -5.946
 -5.945  -5.942  -5.941  -5.939  -5.938  -5.938  -5.935  -5.935
 -5.933  -5.931  -5.929  -5.926  -1.050  -1.028  -0.973  -0.965
 -0.962  -0.951  -0.942  -0.935  -0.926  -0.912  -0.910  -0.899
 -0.844  -0.838  -0.836  -0.823  -0.812  -0.811  -0.807  -0.806
 -0.802  -0.800  -0.796  -0.795  -0.785  -0.783  -0.771  -0.765
 -0.754  -0.749  -0.743  -0.741  -0.728  -0.717  -0.712  -0.706
 -0.697  -0.693  -0.677  -0.674  -0.663  -0.652  -0.650  -0.646
 -0.641  -0.636  -0.632  -0.624  -0.614  -0.613  -0.601  -0.600
 -0.592  -0.592  -0.587  -0.586  -0.584  -0.579  -0.561  -0.558
 -0.556  -0.554  -0.545  -0.532  -0.523  -0.522  -0.516  -0.514
 -0.510  -0.506  -0.503  -0.496  -0.491  -0.483  -0.480  -0.479
 -0.476  -0.472  -0.471  -0.468  -0.467  -0.457  -0.451  -0.448
 -0.446  -0.443  -0.441  -0.439  -0.438  -0.433  -0.432  -0.429
 -0.428  -0.426  -0.426  -0.421  -0.420  -0.419  -0.415  -0.411
 -0.410  -0.409  -0.406  -0.404  -0.404  -0.401  -0.399  -0.399
 -0.397  -0.392  -0.391  -0.389  -0.388  -0.385  -0.384  -0.383
 -0.381  -0.377  -0.377  -0.375  -0.370  -0.366  -0.365  -0.359
 -0.357  -0.356  -0.355  -0.352  -0.348  -0.348  -0.346  -0.342
 -0.338  -0.337  -0.336  -0.331  -0.331  -0.330  -0.327  -0.323
 -0.319  -0.311  -0.310  -0.307  -0.305  -0.304  -0.301  -0.301
 -0.295  -0.294  -0.293  -0.290  -0.287  -0.286  -0.284  -0.279
 -0.277  -0.275  -0.273  -0.268  -0.265  -0.257  -0.252  -0.252
 -0.251  -0.242  -0.237  -0.231  -0.201  -0.191

          Ground-State Mulliken Net Atomic Charges

     Atom                 Charge (a.u.)
  ----------------------------------------
      1 C                     0.267449
      2 C                    -0.095505
      3 N                    -0.480509
      4 C                    -0.089885
      5 C                     0.033731
      6 C                     0.069424
      7 C                     0.038786
      8 C                     0.045171
      9 C                     0.284043
     10 N                    -0.529709
     11 N                    -0.587412
     12 C                     0.175888
     13 C                     0.308827
     14 S                     0.600124
     15 N                    -0.548912
     16 C                    -0.230975
     17 S                     0.305815
     18 C                    -0.078557
     19 C                    -0.210254
     20 S                     0.281084
     21 C                     0.134964
     22 C                     0.051290
     23 C                    -0.314342
     24 C                    -0.044437
     25 N                    -0.439922
     26 S                     0.259931
     27 C                     0.128361
     28 C                    -0.315016
     29 C                    -0.222011
     30 H                     0.091907
     31 H                     0.124121
     32 H                     0.096728
     33 H                     0.129455
     34 H                     0.123880
     35 H                     0.135320
     36 H                     0.118952
     37 H                     0.132150
     38 H                     0.114857
     39 C                    -0.183318
     40 H                     0.100110
     41 H                     0.104136
     42 H                     0.092867
     43 C                    -0.189104
     44 H                     0.092484
     45 C                    -0.166737
     46 H                     0.092476
     47 H                     0.094059
     48 H                     0.089773
     49 C                    -0.180373
     50 H                     0.092774
     51 C                    -0.329499
     52 H                     0.093739
     53 H                     0.110194
     54 H                     0.099618
     55 H                     0.105020
     56 C                     0.264760
     57 C                    -0.110221
     58 N                    -0.467149
     59 C                    -0.079048
     60 C                     0.078332
     61 C                     0.059610
     62 C                     0.037935
     63 C                     0.027298
     64 C                     0.195991
     65 N                    -0.485215
     66 N                    -0.532199
     67 C                     0.226046
     68 C                     0.278713
     69 S                     0.579434
     70 N                    -0.533475
     71 C                    -0.224365
     72 S                     0.326403
     73 C                    -0.125578
     74 C                    -0.224117
     75 S                     0.254988
     76 C                     0.161409
     77 C                     0.036690
     78 C                    -0.297273
     79 C                    -0.051215
     80 N                    -0.417236
     81 S                     0.284902
     82 C                     0.114536
     83 C                    -0.302271
     84 C                    -0.226730
     85 H                     0.097547
     86 H                     0.101163
     87 H                     0.116408
     88 H                     0.101314
     89 H                     0.130856
     90 H                     0.122121
     91 H                     0.121065
     92 H                     0.136615
     93 H                     0.098752
     94 C                    -0.178570
     95 H                     0.116392
     96 H                     0.109620
     97 H                     0.092821
     98 C                    -0.181921
     99 H                     0.088241
    100 C                    -0.159295
    101 H                     0.096890
    102 H                     0.084667
    103 H                     0.079885
    104 C                    -0.177777
    105 H                     0.093283
    106 C                    -0.321362
    107 H                     0.089414
    108 H                     0.104244
    109 H                     0.103839
    110 H                     0.099806
  ----------------------------------------
  Sum of atomic charges =     0.000000

                    Cartesian Multipole Moments
 -----------------------------------------------------------------
    Charge (ESU x 10^10)
                 0.0000
    Dipole Moment (Debye)
         X       3.9046      Y      -0.2130      Z      -0.8773
       Tot       4.0076
    Quadrupole Moments (Debye-Ang)
        XX    -418.1783     XY      10.7015     YY    -426.0237
        XZ      33.9323     YZ     -12.7063     ZZ    -431.6409

 Total job time:  90.45s(wall), 1065.07s(cpu)
        *  Thank you very much for using Q-Chem.  Have a nice day.  *
