 Q-Chem 4.4, Q-Chem, Inc., Pleasanton, CA (2016)
 Q-Chem 4.4.2 for Intel X86 Linux

User input:
--------------------------------------------------------------
$comment
SP
$end

$rem
MEM_STATIC 5000
MEM_TOTAL 20000
JOBTYPE SP
EXCHANGE B3LYP
BASIS 6-31g(d,p)
$end

$molecule
0 1
C          14.990000    -25.022000    -11.140000
C          15.272000    -24.067000    -10.156000
N          14.196000    -26.066000    -10.919000
C          14.832000    -24.300000     -8.847000
C          13.778000    -26.331000     -9.661000
C          14.086000    -25.470000     -8.546000
C          13.401000    -25.726000     -7.209000
C          12.225000    -26.375000     -7.123000
C          14.062000    -25.371000     -5.956000
N          11.540000    -26.551000     -5.987000
N          15.268000    -24.775000     -5.769000
C          13.327000    -25.564000     -4.776000
C          12.071000    -26.187000     -4.809000
S          15.424000    -24.570000     -4.170000
N          14.028000    -25.257000     -3.668000
C          11.278000    -26.421000     -3.619000
S          11.699000    -26.248000     -1.886000
C           9.999000    -26.943000     -3.675000
C          10.206000    -27.014000     -1.355000
S           8.884000    -27.267000     -5.032000
C           9.452000    -27.275000     -2.428000
C           9.828000    -27.135000     -0.028000
C           7.680000    -27.851000     -3.875000
C           8.096000    -27.703000     -2.577000
N           8.915000    -28.027000      0.232000
S          10.644000    -26.508000      1.423000
C           8.621000    -28.135000      1.578000
C           9.543000    -27.405000      2.403000
C          15.604000    -24.871000    -12.522000
H          15.795000    -23.167000    -10.463000
H          15.010000    -23.536000     -8.095000
H          13.134000    -27.209000     -9.647000
H          11.795000    -26.756000     -8.049000
H           6.889000    -28.429000     -4.332000
H           7.460000    -28.068000     -1.779000
H           7.836000    -28.825000      1.857000
H           9.478000    -27.383000      3.482000
H          16.610000    -24.476000    -12.333000
C          14.859000    -23.802000    -13.336000
H          15.697000    -25.842000    -13.025000
H          15.205000    -23.801000    -14.378000
H          15.073000    -22.786000    -12.982000
C          13.326000    -23.926000    -13.550000
H          12.811000    -23.634000    -12.626000
C          12.821000    -25.296000    -14.088000
H          13.113000    -23.118000    -14.261000
H          11.750000    -25.221000    -14.315000
H          12.932000    -26.077000    -13.326000
C          13.602000    -25.667000    -15.355000
H          13.282000    -25.098000    -16.235000
C          13.272000    -27.166000    -15.746000
H          14.693000    -25.691000    -15.244000
H          13.702000    -27.907000    -15.060000
H          13.814000    -27.390000    -16.673000
H          12.199000    -27.381000    -15.812000
C          16.733000    -21.742000     -0.386000
C          16.577000    -21.557000      0.998000
N          16.681000    -22.957000     -0.997000
C          16.617000    -22.655000      1.852000
C          16.728000    -24.011000     -0.131000
C          16.661000    -23.935000      1.263000
C          16.502000    -25.171000      2.102000
C          15.708000    -25.275000      3.266000
C          17.243000    -26.434000      1.893000
N          15.491000    -26.342000      4.035000
N          18.154000    -26.569000      0.915000
C          17.080000    -27.529000      2.739000
C          16.035000    -27.491000      3.723000
S          18.752000    -28.093000      1.255000
N          17.899000    -28.523000      2.614000
C          15.591000    -28.592000      4.613000
S          14.990000    -28.480000      6.261000
C          15.429000    -29.919000      4.147000
C          14.608000    -30.177000      6.302000
S          15.711000    -30.663000      2.517000
C          14.967000    -30.776000      5.142000
C          13.769000    -30.690000      7.360000
C          15.152000    -32.194000      3.250000
C          14.736000    -32.106000      4.551000
N          14.043000    -31.932000      7.774000
S          12.965000    -29.641000      8.470000
C          13.386000    -32.136000      9.021000
C          12.790000    -31.023000      9.502000
C          16.658000    -20.557000     -1.321000
H          16.587000    -20.562000      1.434000
H          16.494000    -22.579000      2.928000
H          16.790000    -24.979000     -0.626000
H          15.106000    -24.409000      3.539000
H          15.102000    -33.074000      2.625000
H          14.273000    -32.908000      5.114000
H          13.483000    -33.081000      9.540000
H          12.230000    -30.885000     10.417000
H          16.980000    -19.630000     -0.831000
C          15.228000    -20.314000     -1.900000
H          17.253000    -20.747000     -2.223000
H          14.922000    -21.153000     -2.536000
H          15.179000    -19.492000     -2.625000
C          14.158000    -20.144000     -0.846000
H          13.228000    -20.046000     -1.421000
C          14.291000    -18.836000     -0.040000
H          14.050000    -20.981000     -0.146000
H          14.187000    -18.031000     -0.777000
H          15.269000    -18.747000      0.449000
C          13.298000    -18.613000      1.105000
H          12.288000    -18.769000      0.706000
C          13.381000    -17.174000      1.676000
H          13.531000    -19.364000      1.870000
H          13.171000    -16.483000      0.850000
H          14.281000    -16.903000      2.240000
H          12.530000    -16.972000      2.338000
$end

--------------------------------------------------------------

             Standard Nuclear Orientation (Angstroms)
    I     Atom           X                Y                Z
 ----------------------------------------------------------------
    1      C       9.6427805408    -0.1602004623     2.0217711474
    2      C       8.9030053194     0.9657508288     1.6412828929
    3      N       9.2210683607    -1.4025254496     1.8026810675
    4      C       7.6022369340     0.7830969565     1.1554751424
    5      C       7.9608538616    -1.6102590725     1.3597147505
    6      C       7.0701301361    -0.5267957031     1.0248590024
    7      C       5.7500076368    -0.8476965228     0.3344755940
    8      C       5.5747167601    -1.9743753015    -0.3806754657
    9      C       4.5848820576     0.0123592230     0.5235298156
   10      N       4.4686161462    -2.2640922088    -1.0758751101
   11      N       4.4812187246     1.1588062341     1.2443169993
   12      C       3.4347694320    -0.3090377875    -0.2139109685
   13      C       3.3854042006    -1.4757336841    -0.9905304112
   14      S       2.9721540818     1.6994266665     1.0127668926
   15      N       2.3964871026     0.5045666493     0.0568871572
   16      C       2.2189063387    -1.8592431894    -1.7598861139
   17      S       0.5578896445    -1.1873995701    -1.7703117098
   18      C       2.2173297996    -2.9565231493    -2.6009777880
   19      C      -0.0595826108    -2.4927196537    -2.7766086308
   20      S       3.5153550101    -4.0388086780    -3.1784192025
   21      C       0.9586982099    -3.2880013285    -3.1209881132
   22      C      -1.3542765583    -2.5462869409    -3.2658449012
   23      C       2.3191387900    -4.9313825120    -4.1279979015
   24      C       1.0740090861    -4.3617219940    -4.0579770855
   25      N      -1.7708351899    -3.7135248913    -3.6669277771
   26      S      -2.6544295567    -1.3426301593    -3.1071044438
   27      C      -3.0853857705    -3.7102134949    -4.0932630978
   28      C      -3.7598273215    -2.4791229468    -3.7880522579
   29      C      10.9851672364     0.0280908903     2.7089867802
   30      H       9.3882196858     1.9340175439     1.7105980224
   31      H       7.0471190109     1.6534282196     0.8159879056
   32      H       7.7714784737    -2.6740777926     1.2246492359
   33      H       6.4041149256    -2.6804833235    -0.4130350733
   34      H       2.6662779441    -5.9015353113    -4.4549718358
   35      H       0.2474752987    -4.8471410145    -4.5636798370
   36      H      -3.4788173306    -4.6388844973    -4.4843484808
   37      H      -4.7968200950    -2.2985587307    -4.0350189592
   38      H      10.8421733302     0.9041954053     3.3537934346
   39      C      12.0712214951     0.4060992921     1.6901748274
   40      H      11.2345328450    -0.8348392209     3.3395955468
   41      H      13.0626129296     0.3937275827     2.1618431053
   42      H      11.9604017306     1.4353360960     1.3271891784
   43      C      12.3321271215    -0.5124254283     0.4656334471
   44      H      11.5346246270    -0.3596636680    -0.2725525837
   45      C      12.5521054537    -2.0206863350     0.7788866523
   46      H      13.2267984880    -0.0669449015     0.0130141301
   47      H      12.8482937246    -2.5400434850    -0.1412957530
   48      H      11.6200246936    -2.4857626991     1.1221874419
   49      C      13.6486433354    -2.1675180200     1.8414007135
   50      H      14.6555497341    -2.0082881226     1.4397213091
   51      C      13.6856706521    -3.6695499376     2.3427100954
   52      H      13.4760437157    -1.6159745590     2.7737028008
   53      H      12.8195295035    -3.9532843807     2.9541602377
   54      H      14.5009392762    -3.7518356458     3.0719803696
   55      H      13.7563002010    -4.4054785161     1.5331851767
   56      C      -0.0876034814     5.4304838414     0.1485811418
   57      C      -1.3761391228     5.7576167112    -0.3060362646
   58      N       0.2157372754     4.2688849622     0.7896134569
   59      C      -2.4696358730     5.0058354776     0.1130220058
   60      C      -0.8792073557     3.5599285872     1.1915563796
   61      C      -2.2084366992     3.8419265583     0.8642530084
   62      C      -3.3097168822     2.8703837048     1.1807722688
   63      C      -4.4197511283     2.5913379803     0.3524574396
   64      C      -3.4506002626     2.1419347625     2.4603991721
   65      N      -5.4094628954     1.7203856006     0.5495654562
   66      N      -2.5845749634     2.3121276597     3.4731501577
   67      C      -4.5245978734     1.2885780054     2.7045740626
   68      C      -5.4124478267     0.9698749165     1.6220419376
   69      S      -3.3124603855     1.3903407912     4.6632223326
   70      N      -4.6865541857     0.8416693835     3.9080959097
   71      C      -6.5152709273    -0.0227041488     1.6198040849
   72      S      -8.0530415535     0.0654823450     0.7729666487
   73      C      -6.3733829985    -1.3082249257     2.1956800679
   74      C      -8.4794335946    -1.5518526425     1.2523739552
   75      S      -4.9874582356    -2.0876277678     3.0684364837
   76      C      -7.5184209180    -2.0851095940     2.0431796577
   77      C      -9.5824738928    -2.2178244298     0.5995051481
   78      C      -6.0350961506    -3.5294596150     3.1999915055
   79      C      -7.2523514021    -3.4306320186     2.5819917005
   80      N     -10.2967861247    -3.0522104282     1.3627836299
   81      S     -10.3628247800    -1.5390330424    -0.7822371381
   82      C     -11.5187144957    -3.3313397489     0.6865796085
   83      C     -11.6853486686    -2.6069724704    -0.4416362832
   84      C       1.1071883251     6.2233269103    -0.3288572388
   85      H      -1.5603982812     6.6807811903    -0.8482879655
   86      H      -3.4876071080     5.2020793365    -0.2093192924
   87      H      -0.6351917867     2.6852967334     1.7926957333
   88      H      -4.4437560401     3.0667400674    -0.6274944060
   89      H      -5.6378710271    -4.4099764319     3.6841684735
   90      H      -7.9654216192    -4.2396487122     2.4744516848
   91      H     -12.2538824152    -3.9857312932     1.1372400538
   92      H     -12.5086549666    -2.6085048942    -1.1430872018
   93      H       0.8373207680     7.2566658686    -0.5788474366
   94      C       1.8043766830     5.6005627982    -1.5799700452
   95      H       1.9035100198     6.2010413567     0.4255326554
   96      H       2.2360097997     4.6231814334    -1.3340604677
   97      H       2.7070713943     6.1382631744    -1.8957715076
   98      C       0.8817273852     5.3932118265    -2.7591391797
   99      H       1.5130732561     4.9017116792    -3.5107767230
  100      C       0.4073132341     6.7094458112    -3.4077132393
  101      H       0.0081892476     4.7589443101    -2.5671265765
  102      H       1.3205446442     7.2028233626    -3.7606962183
  103      H      -0.0983921096     7.3674375560    -2.6901932263
  104      C      -0.5949946099     6.6021805205    -4.5612626067
  105      H      -0.1908672133     5.8877406988    -5.2892006457
  106      C      -0.8074737502     7.9611942052    -5.2765146040
  107      H      -1.5294068434     6.2246513478    -4.1278338331
  108      H       0.1704084278     8.2887230288    -5.6511188162
  109      H      -1.3379426155     8.7468168711    -4.7261176475
  110      H      -1.3543946983     7.8207918946    -6.2169473063
 ----------------------------------------------------------------

   10   -5663.5321573694      7.60E-06 Convergence criterion met
 Total energy in the final basis set = -5663.5321573694

                    Orbital Energies (a.u.)
 --------------------------------------------------------------

 Alpha MOs
 -- Occupied --
-88.983 -88.981 -88.931 -88.928 -88.928 -88.920 -88.913 -88.899
-14.394 -14.392 -14.379 -14.376 -14.350 -14.347 -14.343 -14.342
-14.338 -14.324 -10.270 -10.263 -10.262 -10.262 -10.258 -10.256
-10.252 -10.245 -10.242 -10.239 -10.238 -10.237 -10.236 -10.236
-10.236 -10.235 -10.234 -10.234 -10.232 -10.232 -10.231 -10.228
-10.228 -10.227 -10.224 -10.223 -10.222 -10.219 -10.218 -10.218
-10.215 -10.209 -10.209 -10.207 -10.203 -10.200 -10.194 -10.189
-10.189 -10.184 -10.183 -10.182 -10.177 -10.177 -10.176 -10.175
-10.173 -10.169 -10.167 -10.163  -8.038  -8.037  -7.993  -7.989
 -7.988  -7.979  -7.972  -7.958  -6.003  -6.003  -5.998  -5.997
 -5.996  -5.995  -5.957  -5.954  -5.952  -5.952  -5.950  -5.949
 -5.948  -5.946  -5.944  -5.943  -5.940  -5.937  -5.935  -5.933
 -5.928  -5.923  -5.919  -5.915  -1.047  -1.033  -0.970  -0.970
 -0.966  -0.958  -0.943  -0.935  -0.923  -0.911  -0.909  -0.896
 -0.843  -0.837  -0.834  -0.826  -0.812  -0.812  -0.809  -0.804
 -0.803  -0.801  -0.799  -0.792  -0.785  -0.778  -0.770  -0.764
 -0.754  -0.742  -0.741  -0.732  -0.728  -0.719  -0.712  -0.703
 -0.696  -0.689  -0.675  -0.671  -0.663  -0.649  -0.648  -0.643
 -0.640  -0.635  -0.631  -0.623  -0.614  -0.608  -0.599  -0.594
 -0.592  -0.588  -0.585  -0.584  -0.582  -0.579  -0.561  -0.557
 -0.548  -0.543  -0.543  -0.535  -0.521  -0.520  -0.515  -0.512
 -0.505  -0.504  -0.501  -0.494  -0.491  -0.483  -0.480  -0.477
 -0.475  -0.473  -0.470  -0.467  -0.462  -0.458  -0.451  -0.444
 -0.443  -0.442  -0.442  -0.439  -0.439  -0.437  -0.436  -0.431
 -0.428  -0.426  -0.424  -0.422  -0.419  -0.414  -0.411  -0.411
 -0.410  -0.409  -0.407  -0.404  -0.398  -0.398  -0.395  -0.394
 -0.392  -0.390  -0.390  -0.387  -0.386  -0.385  -0.384  -0.382
 -0.382  -0.376  -0.373  -0.370  -0.370  -0.364  -0.362  -0.359
 -0.354  -0.347  -0.347  -0.345  -0.342  -0.342  -0.342  -0.339
 -0.337  -0.335  -0.335  -0.331  -0.329  -0.329  -0.328  -0.323
 -0.311  -0.310  -0.307  -0.306  -0.304  -0.303  -0.301  -0.299
 -0.294  -0.292  -0.292  -0.290  -0.289  -0.287  -0.281  -0.278
 -0.276  -0.275  -0.266  -0.265  -0.265  -0.257  -0.251  -0.246
 -0.245  -0.241  -0.235  -0.228  -0.200  -0.190

          Ground-State Mulliken Net Atomic Charges

     Atom                 Charge (a.u.)
  ----------------------------------------
      1 C                     0.287288
      2 C                    -0.111843
      3 N                    -0.482222
      4 C                    -0.064563
      5 C                     0.055027
      6 C                     0.026072
      7 C                     0.046168
      8 C                     0.061973
      9 C                     0.223359
     10 N                    -0.542955
     11 N                    -0.556471
     12 C                     0.198493
     13 C                     0.325198
     14 S                     0.623852
     15 N                    -0.560385
     16 C                    -0.234517
     17 S                     0.308425
     18 C                    -0.114700
     19 C                    -0.219412
     20 S                     0.271731
     21 C                     0.178793
     22 C                     0.045636
     23 C                    -0.310438
     24 C                    -0.054394
     25 N                    -0.415766
     26 S                     0.276940
     27 C                     0.106369
     28 C                    -0.311706
     29 C                    -0.224598
     30 H                     0.091314
     31 H                     0.112434
     32 H                     0.107294
     33 H                     0.109748
     34 H                     0.136264
     35 H                     0.117143
     36 H                     0.117358
     37 H                     0.140291
     38 H                     0.101639
     39 C                    -0.187069
     40 H                     0.115892
     41 H                     0.097179
     42 H                     0.086741
     43 C                    -0.180027
     44 H                     0.085914
     45 C                    -0.172630
     46 H                     0.084755
     47 H                     0.086996
     48 H                     0.124800
     49 C                    -0.175092
     50 H                     0.095118
     51 C                    -0.331854
     52 H                     0.099857
     53 H                     0.103383
     54 H                     0.089865
     55 H                     0.100044
     56 C                     0.268594
     57 C                    -0.110969
     58 N                    -0.479512
     59 C                    -0.078009
     60 C                     0.082300
     61 C                     0.054785
     62 C                     0.047493
     63 C                     0.036663
     64 C                     0.210735
     65 N                    -0.491137
     66 N                    -0.535659
     67 C                     0.223557
     68 C                     0.277757
     69 S                     0.571776
     70 N                    -0.533356
     71 C                    -0.225222
     72 S                     0.320543
     73 C                    -0.125838
     74 C                    -0.226801
     75 S                     0.258831
     76 C                     0.160913
     77 C                     0.035959
     78 C                    -0.295776
     79 C                    -0.052856
     80 N                    -0.417381
     81 S                     0.280744
     82 C                     0.114430
     83 C                    -0.302075
     84 C                    -0.227024
     85 H                     0.097711
     86 H                     0.105584
     87 H                     0.118356
     88 H                     0.098811
     89 H                     0.131518
     90 H                     0.121378
     91 H                     0.120822
     92 H                     0.135852
     93 H                     0.099585
     94 C                    -0.179672
     95 H                     0.113819
     96 H                     0.107339
     97 H                     0.092890
     98 C                    -0.181663
     99 H                     0.089744
    100 C                    -0.160094
    101 H                     0.099031
    102 H                     0.084567
    103 H                     0.079534
    104 C                    -0.177904
    105 H                     0.094316
    106 C                    -0.321466
    107 H                     0.089969
    108 H                     0.104184
    109 H                     0.103559
    110 H                     0.100056
  ----------------------------------------
  Sum of atomic charges =     0.000000

                    Cartesian Multipole Moments
 -----------------------------------------------------------------
    Charge (ESU x 10^10)
                 0.0000
    Dipole Moment (Debye)
         X      -4.4055      Y       2.0929      Z      -2.3959
       Tot       5.4341
    Quadrupole Moments (Debye-Ang)
        XX    -414.5280     XY      27.9386     YY    -420.2811
        XZ      20.0296     YZ       0.3528     ZZ    -443.3359

 Total job time:  91.36s(wall), 1080.16s(cpu)
        *  Thank you very much for using Q-Chem.  Have a nice day.  *
