 Q-Chem 4.4, Q-Chem, Inc., Pleasanton, CA (2016)
 Q-Chem 4.4.2 for Intel X86 Linux

User input:
--------------------------------------------------------------
$comment
SP
$end

$rem
MEM_STATIC 5000
MEM_TOTAL 20000
JOBTYPE SP
EXCHANGE B3LYP
BASIS 6-31g(d,p)
$end

$molecule
0 1
C          26.200000     26.098000     -2.199000
C          25.686000     24.819000     -2.498000
N          25.322000     27.086000     -1.913000
C          24.292000     24.627000     -2.521000
C          23.987000     26.928000     -1.825000
C          23.409000     25.667000     -2.015000
C          21.931000     25.418000     -1.831000
C          21.477000     24.189000     -1.317000
C          20.809000     26.246000     -2.139000
N          20.227000     23.723000     -1.029000
N          20.937000     27.456000     -2.674000
C          19.493000     25.796000     -1.948000
C          19.206000     24.545000     -1.341000
S          19.418000     27.966000     -2.824000
N          18.588000     26.694000     -2.361000
C          17.843000     23.995000     -1.257000
S          16.432000     24.491000     -2.227000
C          17.465000     22.890000     -0.495000
C          15.409000     23.201000     -1.612000
S          18.379000     22.081000      0.689000
C          16.167000     22.499000     -0.689000
C          14.009000     22.941000     -2.070000
C          16.959000     21.050000      0.929000
C          15.853000     21.431000      0.145000
N          13.165000     22.364000     -1.209000
S          13.726000     22.617000     -3.768000
C          12.059000     21.931000     -1.907000
C          12.228000     21.893000     -3.265000
C          27.666000     26.378000     -2.014000
H          26.451000     24.075000     -2.700000
H          23.971000     23.652000     -2.876000
H          23.399000     27.795000     -1.528000
H          22.216000     23.395000     -1.220000
H          17.021000     20.212000      1.610000
H          14.875000     20.970000      0.210000
H          11.228000     21.493000     -1.369000
H          11.500000     21.527000     -3.977000
H          27.894000     27.338000     -1.535000
C          28.375000     26.479000     -3.370000
H          28.165000     25.619000     -1.400000
H          27.985000     27.279000     -4.011000
H          28.244000     25.527000     -3.900000
C          29.904000     26.734000     -3.167000
H          29.992000     27.655000     -2.577000
C          30.687000     26.988000     -4.526000
H          30.461000     25.995000     -2.577000
H          30.066000     27.703000     -5.080000
H          30.670000     26.088000     -5.153000
C          32.070000     27.602000     -4.268000
H          32.003000     28.692000     -4.167000
C          32.914000     27.199000     -5.516000
H          32.539000     27.271000     -3.334000
H          32.414000     27.386000     -6.474000
H          33.055000     26.112000     -5.472000
H          33.845000     27.769000     -5.408000
C          14.610000      9.063000      3.582000
C          15.465000      9.402000      4.611000
N          14.063000     10.024000      2.836000
C          15.970000     10.754000      4.727000
C          14.387000     11.325000      2.997000
C          15.365000     11.758000      4.015000
C          15.898000     13.198000      4.075000
C          17.253000     13.506000      4.523000
C          15.105000     14.345000      3.780000
N          17.722000     14.720000      4.482000
N          13.786000     14.247000      3.389000
C          15.661000     15.598000      3.842000
C          16.996000     15.770000      4.127000
S          13.462000     15.788000      2.914000
N          14.856000     16.574000      3.349000
C          17.700000     16.994000      3.836000
S          19.290000     17.059000      3.076000
C          17.380000     18.311000      4.286000
C          19.280000     18.925000      3.184000
S          16.070000     18.603000      5.280000
C          18.189000     19.359000      3.925000
C          20.413000     19.791000      2.921000
C          16.512000     20.348000      5.182000
C          17.724000     20.579000      4.512000
N          21.394000     19.149000      2.287000
S          20.661000     21.500000      3.315000
C          22.438000     20.013000      2.047000
C          22.270000     21.258000      2.641000
C          14.190000      7.701000      3.214000
H          15.856000      8.621000      5.256000
H          16.829000     11.019000      5.337000
H          14.012000     12.037000      2.263000
H          18.068000     12.787000      4.584000
H          15.881000     21.079000      5.668000
H          18.135000     21.575000      4.396000
H          23.371000     19.690000      1.605000
H          22.905000     22.132000      2.708000
H          13.830000      7.787000      2.181000
C          13.069000      7.163000      4.128000
H          14.980000      6.940000      3.188000
H          12.179000      7.797000      4.218000
H          13.457000      7.402000      5.126000
C          12.734000      5.703000      3.911000
H          12.584000      5.565000      2.833000
C          11.503000      5.238000      4.744000
H          13.665000      5.150000      4.089000
H          11.746000      5.231000      5.813000
H          11.447000      4.151000      4.609000
C          10.190000      5.918000      4.353000
H          10.149000      6.983000      4.610000
C           8.967000      5.185000      4.832000
H          10.082000      5.899000      3.263000
H           8.015000      5.567000      4.444000
H           8.929000      5.286000      5.924000
H           8.955000      4.101000      4.661000
$end

--------------------------------------------------------------

             Standard Nuclear Orientation (Angstroms)
    I     Atom           X                Y                Z
 ----------------------------------------------------------------
    1      C     -10.1986190254     2.5365982223    -0.4345787291
    2      C      -9.0283789497     2.6421397756    -1.2148589004
    3      N     -10.3860292960     1.4051407357     0.2820141445
    4      C      -8.1240081201     1.5642875209    -1.2461146133
    5      C      -9.5041092696     0.3899358093     0.3626926699
    6      C      -8.2772384195     0.4625755425    -0.3079908518
    7      C      -7.2156129301    -0.6025821482    -0.1711280944
    8      C      -5.8524928567    -0.2532525235    -0.1961376635
    9      C      -7.3391012894    -2.0199426142    -0.0479536867
   10      N      -4.7147422620    -0.9958698748    -0.0671297034
   11      N      -8.5157671427    -2.6379718646    -0.0335900054
   12      C      -6.2090503150    -2.8513375471     0.0030782716
   13      C      -4.8902510184    -2.3270827481     0.0448433397
   14      S      -8.1252516080    -4.1916539006     0.1198073484
   15      N      -6.5395336739    -4.1492712233     0.0494131577
   16      C      -3.6921551222    -3.1783083022    -0.0406334382
   17      S      -3.6166003573    -4.8546784287    -0.6422243929
   18      C      -2.3856317276    -2.7587096760     0.2073315032
   19      C      -1.8618384255    -4.9240918232    -0.5726087083
   20      S      -1.8780349205    -1.2895673377     0.8970410589
   21      C      -1.4360765702    -3.7065390312    -0.0670505599
   22      C      -1.0431815783    -6.0907608722    -1.0265341389
   23      C      -0.2272617433    -1.9153987402     0.7547597418
   24      C      -0.1697344253    -3.2320044296     0.2584805196
   25      N       0.1439225205    -6.2875626330    -0.4446072316
   26      S      -1.1903818606    -6.6260486245    -2.6878794068
   27      C       0.8567960667    -7.1898557074    -1.2032952538
   28      C       0.3520107923    -7.3941497528    -2.4593305916
   29      C     -11.1576051870     3.6756533869    -0.2232025861
   30      H      -8.9398037716     3.5844496225    -1.7475610595
   31      H      -7.3120376351     1.6698567649    -1.9597322044
   32      H      -9.7535931538    -0.4382633455     1.0241198779
   33      H      -5.6139323070     0.7714546172    -0.4772606614
   34      H       0.6060350354    -1.2784377682     1.0188547980
   35      H       0.7426214595    -3.8096259255     0.1736857847
   36      H       1.8246397093    -7.5291183697    -0.8568439160
   37      H       0.8015619734    -8.0167695567    -3.2216509412
   38      H     -11.8667429131     3.5328472164     0.6012700229
   39      C     -12.0647757385     3.8559772118    -1.4463717930
   40      H     -10.6464393113     4.6215906608    -0.0087495109
   41      H     -12.6760478781     2.9741156342    -1.6736327206
   42      H     -11.4315360833     4.0622746489    -2.3186182642
   43      C     -13.0331634862     5.0644748447    -1.2322838636
   44      H     -13.5994422395     4.8532420445    -0.3164268455
   45      C     -14.0997831893     5.2322394431    -2.3979010600
   46      H     -12.5769966569     6.0428008821    -1.0341425292
   47      H     -14.4906791480     4.2216510427    -2.5702188899
   48      H     -13.6006239095     5.4827538510    -3.3420941255
   49      C     -15.2469866774     6.1609889472    -1.9764778578
   50      H     -16.0175544432     5.6081400311    -1.4256844352
   51      C     -15.8045663186     6.7252276653    -3.3192319726
   52      H     -14.9452342451     6.9618375382    -1.2913026949
   53      H     -15.9861461927     5.9612863000    -4.0848397963
   54      H     -15.0297227158     7.3772555068    -3.7409701437
   55      H     -16.7189393679     7.2575388009    -3.0295911923
   56      C      11.1613193096     2.5957032392    -1.7341274658
   57      C      10.7660390995     3.4222393809    -0.7019556962
   58      N      10.4778532938     1.4772369217    -1.9814194023
   59      C       9.4849752868     3.2250847778    -0.0566723707
   60      C       9.3499083135     1.1655141958    -1.3075744175
   61      C       8.8112020650     2.0466242429    -0.2522367167
   62      C       7.4287645522     1.8155519296     0.3776530429
   63      C       6.5945193985     2.9188949929     0.8448383467
   64      C       6.8833530144     0.5230466622     0.6295248120
   65      N       5.3885069789     2.7159708674     1.2918213923
   66      N       7.5545442749    -0.6359167287     0.3000522784
   67      C       5.6330923196     0.4016039068     1.1818733000
   68      C       4.8616390925     1.5099692037     1.4453505992
   69      S       6.3899465673    -1.7744047470     0.5299200916
   70      N       5.1616871309    -0.8717480628     1.1832551262
   71      C       3.4378756195     1.4315119627     1.6579888702
   72      S       2.2694457494     2.5243824640     0.9161460930
   73      C       2.7444386037     0.6517550574     2.6329315730
   74      C       0.8718191751     1.6479875184     1.7949474686
   75      S       3.5603513155    -0.3162571270     3.7222611180
   76      C       1.3760343032     0.7268277860     2.7032149689
   77      C      -0.5019914254     2.1073293019     1.8617573482
   78      C       1.9413369060    -0.8122372541     4.3409606053
   79      C       0.8813517162    -0.0906878676     3.7691189488
   80      N      -0.7508305040     3.0652777087     0.9690676133
   81      S      -1.8270109944     1.5984231014     2.9213603969
   82      C      -2.0668536691     3.4574256114     1.0603641156
   83      C      -2.7412751688     2.8777613176     2.1281796180
   84      C      12.3215917129     2.8011534298    -2.6164120964
   85      H      11.3634194094     4.2968740517    -0.4631713626
   86      H       9.0083273085     3.9783230585     0.5643306866
   87      H       8.7680094570     0.3135727314    -1.6567369328
   88      H       6.7219253462     3.9613692655     0.5586179500
   89      H       1.8816786133    -1.5603529027     5.1190877571
   90      H      -0.1492371383    -0.2573365017     4.0598212804
   91      H      -2.4728423610     4.2733719910     0.4776234462
   92      H      -3.7410862706     3.0058038188     2.5226068972
   93      H      12.1167606861     2.1825761566    -3.4993002023
   94      C      13.6476527354     2.3685041824    -1.9562168272
   95      H      12.4667856887     3.8196430201    -2.9978497241
   96      H      13.6759458522     1.3447018691    -1.5648291387
   97      H      13.5752696275     2.8448640481    -0.9705642698
   98      C      14.8859694095     2.7324747627    -2.7467933457
   99      H      14.7240842157     2.3848702678    -3.7747001017
  100      C      16.1897100578     2.1511935786    -2.1240193040
  101      H      14.8599023041     3.8233468999    -2.8632943601
  102      H      16.4094671054     2.6437425963    -1.1695763748
  103      H      17.0143124228     2.5907905821    -2.6982278152
  104      C      16.2579716603     0.6232633383    -2.1284390856
  105      H      15.5431389794     0.1459186486    -1.4479162826
  106      C      17.6488083931     0.0826852519    -1.9392103472
  107      H      15.9774518681     0.2503129701    -3.1195705951
  108      H      17.7499125010    -0.9997621774    -2.0836316824
  109      H      17.9467800269     0.2948451351    -0.9046524274
  110      H      18.4352849078     0.5479391761    -2.5470215661
 ----------------------------------------------------------------

   10   -5663.4713572665      4.19E-06 Convergence criterion met
 Total energy in the final basis set = -5663.4713572665

                    Orbital Energies (a.u.)
 --------------------------------------------------------------

 Alpha MOs
 -- Occupied --
-88.992 -88.984 -88.932 -88.928 -88.923 -88.921 -88.910 -88.904
-14.391 -14.389 -14.384 -14.376 -14.350 -14.350 -14.342 -14.337
-14.325 -14.321 -10.274 -10.264 -10.262 -10.258 -10.254 -10.253
-10.252 -10.251 -10.242 -10.241 -10.240 -10.238 -10.237 -10.236
-10.235 -10.233 -10.233 -10.232 -10.231 -10.229 -10.228 -10.227
-10.225 -10.225 -10.225 -10.224 -10.223 -10.221 -10.219 -10.218
-10.216 -10.214 -10.214 -10.209 -10.202 -10.201 -10.198 -10.188
-10.186 -10.184 -10.181 -10.181 -10.180 -10.180 -10.180 -10.179
-10.178 -10.177 -10.173 -10.170  -8.047  -8.041  -7.993  -7.988
 -7.980  -7.980  -7.972  -7.965  -6.012  -6.006  -6.006  -6.005
 -6.000  -5.999  -5.957  -5.953  -5.952  -5.950  -5.949  -5.945
 -5.945  -5.944  -5.941  -5.940  -5.937  -5.937  -5.936  -5.933
 -5.929  -5.928  -5.925  -5.921  -1.054  -1.036  -0.971  -0.969
 -0.959  -0.955  -0.938  -0.930  -0.916  -0.915  -0.912  -0.903
 -0.841  -0.838  -0.830  -0.828  -0.814  -0.809  -0.809  -0.806
 -0.802  -0.801  -0.797  -0.789  -0.786  -0.784  -0.766  -0.765
 -0.751  -0.750  -0.746  -0.742  -0.722  -0.717  -0.711  -0.706
 -0.692  -0.690  -0.674  -0.668  -0.655  -0.650  -0.648  -0.641
 -0.638  -0.632  -0.631  -0.622  -0.608  -0.607  -0.599  -0.594
 -0.593  -0.589  -0.588  -0.581  -0.579  -0.578  -0.577  -0.572
 -0.554  -0.547  -0.540  -0.539  -0.531  -0.521  -0.514  -0.513
 -0.507  -0.506  -0.501  -0.499  -0.486  -0.481  -0.478  -0.475
 -0.473  -0.472  -0.470  -0.465  -0.462  -0.458  -0.451  -0.447
 -0.443  -0.439  -0.437  -0.436  -0.435  -0.433  -0.432  -0.429
 -0.428  -0.428  -0.426  -0.420  -0.417  -0.415  -0.411  -0.409
 -0.408  -0.407  -0.404  -0.404  -0.400  -0.399  -0.396  -0.395
 -0.394  -0.393  -0.391  -0.391  -0.389  -0.384  -0.383  -0.382
 -0.378  -0.377  -0.376  -0.374  -0.366  -0.364  -0.361  -0.359
 -0.359  -0.354  -0.351  -0.351  -0.348  -0.347  -0.344  -0.344
 -0.340  -0.338  -0.336  -0.331  -0.331  -0.328  -0.323  -0.321
 -0.317  -0.316  -0.315  -0.312  -0.306  -0.303  -0.301  -0.299
 -0.297  -0.292  -0.291  -0.287  -0.286  -0.283  -0.281  -0.278
 -0.276  -0.269  -0.268  -0.262  -0.255  -0.251  -0.244  -0.243
 -0.241  -0.234  -0.232  -0.229  -0.192  -0.189

          Ground-State Mulliken Net Atomic Charges

     Atom                 Charge (a.u.)
  ----------------------------------------
      1 C                     0.284310
      2 C                    -0.113736
      3 N                    -0.495442
      4 C                    -0.088211
      5 C                     0.095369
      6 C                     0.019851
      7 C                     0.068015
      8 C                     0.030933
      9 C                     0.192126
     10 N                    -0.508234
     11 N                    -0.545452
     12 C                     0.196245
     13 C                     0.295654
     14 S                     0.595346
     15 N                    -0.538331
     16 C                    -0.224987
     17 S                     0.308786
     18 C                    -0.116513
     19 C                    -0.251703
     20 S                     0.310011
     21 C                     0.188183
     22 C                     0.034227
     23 C                    -0.325317
     24 C                    -0.076438
     25 N                    -0.401248
     26 S                     0.295981
     27 C                     0.118746
     28 C                    -0.303495
     29 C                    -0.222800
     30 H                     0.088584
     31 H                     0.107127
     32 H                     0.119677
     33 H                     0.097535
     34 H                     0.137708
     35 H                     0.117023
     36 H                     0.115852
     37 H                     0.134165
     38 H                     0.121103
     39 C                    -0.185008
     40 H                     0.106268
     41 H                     0.110290
     42 H                     0.091126
     43 C                    -0.192345
     44 H                     0.092148
     45 C                    -0.174812
     46 H                     0.089326
     47 H                     0.094191
     48 H                     0.091298
     49 C                    -0.178449
     50 H                     0.098336
     51 C                    -0.319085
     52 H                     0.095452
     53 H                     0.106823
     54 H                     0.106898
     55 H                     0.094958
     56 C                     0.280693
     57 C                    -0.126317
     58 N                    -0.478240
     59 C                    -0.093926
     60 C                     0.093286
     61 C                     0.041814
     62 C                     0.002493
     63 C                     0.051014
     64 C                     0.220196
     65 N                    -0.485677
     66 N                    -0.542269
     67 C                     0.236107
     68 C                     0.220373
     69 S                     0.610535
     70 N                    -0.540686
     71 C                    -0.171202
     72 S                     0.340538
     73 C                    -0.135070
     74 C                    -0.251700
     75 S                     0.266491
     76 C                     0.165940
     77 C                     0.064876
     78 C                    -0.287208
     79 C                    -0.095447
     80 N                    -0.436741
     81 S                     0.281277
     82 C                     0.129566
     83 C                    -0.313366
     84 C                    -0.224989
     85 H                     0.087398
     86 H                     0.102697
     87 H                     0.120617
     88 H                     0.118128
     89 H                     0.130283
     90 H                     0.127471
     91 H                     0.116114
     92 H                     0.132936
     93 H                     0.121256
     94 C                    -0.175340
     95 H                     0.097663
     96 H                     0.105813
     97 H                     0.085793
     98 C                    -0.179936
     99 H                     0.096575
    100 C                    -0.178596
    101 H                     0.085787
    102 H                     0.093063
    103 H                     0.089387
    104 C                    -0.167620
    105 H                     0.102938
    106 C                    -0.322752
    107 H                     0.099108
    108 H                     0.099641
    109 H                     0.098589
    110 H                     0.102560
  ----------------------------------------
  Sum of atomic charges =     0.000000

                    Cartesian Multipole Moments
 -----------------------------------------------------------------
    Charge (ESU x 10^10)
                 0.0000
    Dipole Moment (Debye)
         X       1.2529      Y      -0.2006      Z      -0.5159
       Tot       1.3698
    Quadrupole Moments (Debye-Ang)
        XX    -426.2218     XY      -8.9993     YY    -413.8545
        XZ       4.9251     YZ       4.2892     ZZ    -436.7417

 Total job time:  88.65s(wall), 1042.84s(cpu)
        *  Thank you very much for using Q-Chem.  Have a nice day.  *
