 Q-Chem 4.4, Q-Chem, Inc., Pleasanton, CA (2016)
 Q-Chem 4.4.2 for Intel X86 Linux

User input:
--------------------------------------------------------------
$comment
SP
$end

$rem
MEM_STATIC 5000
MEM_TOTAL 20000
JOBTYPE SP
EXCHANGE B3LYP
BASIS 6-31g(d,p)
$end

$molecule
0 1
C          14.666000     18.901000     15.731000
C          13.320000     19.055000     15.352000
N          15.639000     18.827000     14.780000
C          12.942000     19.038000     14.021000
C          15.276000     18.822000     13.444000
C          13.920000     18.907000     13.024000
C          13.593000     18.993000     11.559000
C          12.387000     18.435000     11.141000
C          14.382000     19.644000     10.615000
N          11.964000     18.495000      9.880000
N          15.558000     20.148000     10.892000
C          13.853000     19.784000      9.309000
C          12.666000     19.147000      8.944000
S          15.975000     20.878000      9.495000
N          14.684000     20.543000      8.517000
C          12.147000     19.163000      7.552000
S          12.737000     20.184000      6.272000
C          11.242000     18.263000      7.102000
C          11.860000     19.263000      5.075000
S          10.487000     16.872000      7.864000
C          11.120000     18.325000      5.716000
C          11.947000     19.465000      3.661000
C           9.978000     16.392000      6.244000
C          10.401000     17.245000      5.195000
N          10.921000     19.069000      2.945000
S          13.048000     20.539000      2.885000
C          10.987000     19.439000      1.666000
C          12.103000     20.225000      1.401000
C          14.963000     18.803000     17.183000
H          12.537000     19.185000     16.094000
H          11.892000     19.132000     13.759000
H          16.147000     18.804000     12.790000
H          11.691000     18.048000     11.884000
H           9.422000     15.477000      6.090000
H          10.187000     17.070000      4.148000
H          10.215000     19.063000      1.008000
H          12.439000     20.615000      0.449000
H          15.960000     19.237000     17.327000
C          15.102000     17.447000     17.774000
H          14.172000     19.351000     17.708000
H          15.892000     16.865000     17.285000
H          14.183000     16.907000     17.514000
C          15.383000     17.508000     19.257000
H          16.388000     17.912000     19.435000
C          15.391000     16.048000     19.847000
H          14.617000     18.102000     19.771000
H          15.734000     16.300000     20.858000
H          16.115000     15.419000     19.313000
C          13.994000     15.425000     19.959000
H          13.383000     16.086000     20.586000
C          14.094000     14.070000     20.610000
H          13.516000     15.360000     18.975000
H          14.469000     13.311000     19.910000
H          13.159000     13.750000     21.084000
H          14.807000     14.142000     21.440000
C          14.610000      9.063000      3.582000
C          15.465000      9.402000      4.611000
N          14.063000     10.024000      2.836000
C          15.970000     10.754000      4.727000
C          14.387000     11.325000      2.997000
C          15.365000     11.758000      4.015000
C          15.898000     13.198000      4.075000
C          17.253000     13.506000      4.523000
C          15.105000     14.345000      3.780000
N          17.722000     14.720000      4.482000
N          13.786000     14.247000      3.389000
C          15.661000     15.598000      3.842000
C          16.996000     15.770000      4.127000
S          13.462000     15.788000      2.914000
N          14.856000     16.574000      3.349000
C          17.700000     16.994000      3.836000
S          19.290000     17.059000      3.076000
C          17.380000     18.311000      4.286000
C          19.280000     18.925000      3.184000
S          16.070000     18.603000      5.280000
C          18.189000     19.359000      3.925000
C          20.413000     19.791000      2.921000
C          16.512000     20.348000      5.182000
C          17.724000     20.579000      4.512000
N          21.394000     19.149000      2.287000
S          20.661000     21.500000      3.315000
C          22.438000     20.013000      2.047000
C          22.270000     21.258000      2.641000
C          14.190000      7.701000      3.214000
H          15.856000      8.621000      5.256000
H          16.829000     11.019000      5.337000
H          14.012000     12.037000      2.263000
H          18.068000     12.787000      4.584000
H          15.881000     21.079000      5.668000
H          18.135000     21.575000      4.396000
H          23.371000     19.690000      1.605000
H          22.905000     22.132000      2.708000
H          13.830000      7.787000      2.181000
C          13.069000      7.163000      4.128000
H          14.980000      6.940000      3.188000
H          12.179000      7.797000      4.218000
H          13.457000      7.402000      5.126000
C          12.734000      5.703000      3.911000
H          12.584000      5.565000      2.833000
C          11.503000      5.238000      4.744000
H          13.665000      5.150000      4.089000
H          11.746000      5.231000      5.813000
H          11.447000      4.151000      4.609000
C          10.190000      5.918000      4.353000
H          10.149000      6.983000      4.610000
C           8.967000      5.185000      4.832000
H          10.082000      5.899000      3.263000
H           8.015000      5.567000      4.444000
H           8.929000      5.286000      5.924000
H           8.955000      4.101000      4.661000
$end

--------------------------------------------------------------

             Standard Nuclear Orientation (Angstroms)
    I     Atom           X                Y                Z
 ----------------------------------------------------------------
    1      C      -8.9632559595    -0.8630979559     0.6366919919
    2      C      -8.7091118458    -1.1540052081    -0.7160299825
    3      N      -8.0210318340    -0.2257946727     1.3868014656
    4      C      -7.4765181934    -0.8923062559    -1.2878346226
    5      C      -6.7877027509     0.0538568695     0.8234326808
    6      C      -6.4705116236    -0.2869134544    -0.5203032960
    7      C      -5.1493063338     0.1267787127    -1.1066695406
    8      C      -4.5942736842    -0.7040769596    -2.0773093346
    9      C      -4.4843306055     1.3076613728    -0.7892086392
   10      N      -3.4563517731    -0.4172889045    -2.7062261302
   11      N      -4.8893956334     2.1256434695     0.1491668787
   12      C      -3.3371036596     1.6345001008    -1.5521790060
   13      C      -2.8019084118     0.7266485999    -2.4672389488
   14      S      -3.8435206388     3.3696226570     0.0185557132
   15      N      -2.8516889615     2.8757702888    -1.2093570533
   16      C      -1.5290435122     0.9791750244    -3.1906519376
   17      S      -0.6929499671     2.5044422447    -3.2493757880
   18      C      -0.8098205340    -0.0121278088    -3.7664661441
   19      C       0.7297528472     1.7474280174    -3.9224472267
   20      S      -1.0339621090    -1.7537086794    -3.8134408792
   21      C       0.4530831940     0.4385415889    -4.1428904627
   22      C       1.9740825208     2.4115256222    -4.1640813197
   23      C       0.6326012739    -1.8479886586    -4.3857683871
   24      C       1.3099684530    -0.6085752775    -4.4951629726
   25      N       2.7527710824     1.8882616432    -5.0816797789
   26      S       2.3379413886     4.0264621396    -3.6871748622
   27      C       3.8094528423     2.6440623707    -5.3804872730
   28      C       3.8036611016     3.8538450618    -4.6950171451
   29      C     -10.2689211809    -1.2950099027     1.1977689919
   30      H      -9.4714218100    -1.5990686246    -1.3495558887
   31      H      -7.3000195711    -1.1524544350    -2.3276188124
   32      H      -6.1454365099     0.6019938914     1.5117065222
   33      H      -5.1658354545    -1.5565993129    -2.4416673724
   34      H       1.0928696741    -2.8063039508    -4.5854225896
   35      H       2.3412412927    -0.5072670844    -4.8095560070
   36      H       4.5348292988     2.2220328261    -6.0631614705
   37      H       4.5572833714     4.6306001072    -4.6972696495
   38      H     -10.5302794037    -0.5664918870     1.9749783459
   39      C     -10.3187776137    -2.5895709660     1.9250680979
   40      H     -10.9823796572    -1.3156751056     0.3658074831
   41      H      -9.6264145824    -2.6100124428     2.7748684150
   42      H      -9.9083218198    -3.3397957492     1.2377182482
   43      C     -11.7118945009    -2.9019142993     2.4186650801
   44      H     -11.9936676611    -2.2067919210     3.2201223562
   45      C     -11.7269130533    -4.3381709911     3.0641921192
   46      H     -12.4311490006    -2.8695522736     1.5907679464
   47      H     -12.7487976156    -4.3097618599     3.4619594664
   48      H     -10.9775761695    -4.4110325123     3.8630403108
   49      C     -11.6471601657    -5.4729004063     2.0354498623
   50      H     -12.4911707939    -5.3569068348     1.3443908554
   51      C     -11.7544209296    -6.8017455146     2.7372274671
   52      H     -10.7229662710    -5.4046687538     1.4504925250
   53      H     -10.8140725645    -7.0735873038     3.2357783611
   54      H     -12.1077061978    -7.6069391845     2.0828929401
   55      H     -12.5305488590    -6.7191837729     3.5074624937
   56      C       5.9327104303    -5.3851098511     2.0681858737
   57      C       4.8783178751    -5.0807914227     2.9051050058
   58      N       6.2583500478    -4.5437020880     1.0857207009
   59      C       4.2920879925    -3.7569597890     2.8913452701
   60      C       5.6432282761    -3.3512956605     0.9331096998
   61      C       4.5685656216    -2.9132062896     1.8460581551
   62      C       4.0031465668    -1.4846834281     1.8158467846
   63      C       3.5162417291    -0.8170886497     3.0195219446
   64      C       3.8335411887    -0.7291750107     0.6192164963
   65      N       3.1253766799     0.4247283700     2.9960059310
   66      N       4.1917956896    -1.2208984759    -0.6185669040
   67      C       3.3353268742     0.5480125292     0.6789114288
   68      C       3.0491387238     1.1437164077     1.8856704071
   69      S       4.0603306270     0.1196462378    -1.5624624532
   70      N       3.4120407768     1.2162100704    -0.5006126375
   71      C       2.8945511933     2.5698554655     2.0295560674
   72      S       3.6276100867     3.5142723967     3.3259457924
   73      C       1.9845594826     3.4220303818     1.3330634268
   74      C       2.8448369516     5.0719844181     2.6517651953
   75      S       0.9121041249     2.8209552601     0.2025997149
   76      C       1.9627053630     4.7626637579     1.6251773571
   77      C       2.8084784918     6.3564540979     3.3237992005
   78      C       0.3793494745     4.5245610631    -0.0501704387
   79      C       0.9561744818     5.4289571668     0.8556692815
   80      N       3.6636441894     6.4087638806     4.3447969068
   81      S       1.8251022484     7.7920404206     2.9929154235
   82      C       3.6038327991     7.6480740888     4.9402503519
   83      C       2.5909538968     8.4537363875     4.4342171616
   84      C       6.7596905408    -6.6018120936     2.1192500499
   85      H       4.5759656402    -5.7987669274     3.6613862371
   86      H       3.6546585332    -3.3792028701     3.6858195583
   87      H       6.0540957574    -2.6571766343     0.2011864181
   88      H       3.7477982389    -1.1220147649     4.0384962559
   89      H      -0.3597000705     4.7378266493    -0.8098029550
   90      H       0.7129399037     6.4849568564     0.8459432590
   91      H       4.1622907029     7.8919719605     5.8340179939
   92      H       2.2290796297     9.4370122007     4.7058891881
   93      H       7.6779763900    -6.3408074636     1.5782207695
   94      C       6.0709270108    -7.8107389747     1.4517310646
   95      H       7.0867497290    -6.9247361336     3.1155679468
   96      H       5.7276136380    -7.6576037123     0.4217594536
   97      H       5.0672967504    -7.7710426335     1.8931146857
   98      C       6.7959121886    -9.1255815941     1.6427791689
   99      H       7.8445055223    -8.9567078504     1.3678943216
  100      C       6.1523772963   -10.2904558364     0.8338256215
  101      H       6.8615873843    -9.2792481271     2.7273654335
  102      H       5.1680638567   -10.5428425972     1.2452706064
  103      H       6.6734913189   -11.1996487040     1.1574589094
  104      C       6.2264750939   -10.1140756618    -0.6836227468
  105      H       5.5968683645    -9.3023227333    -1.0665163996
  106      C       6.0104630176   -11.3908466224    -1.4489028897
  107      H       7.2440549304    -9.8225095057    -0.9658380067
  108      H       6.2019887521   -11.3242642572    -2.5267046719
  109      H       4.9564808780   -11.6720026221    -1.3298148837
  110      H       6.5653490294   -12.2680492227    -1.0924507725
 ----------------------------------------------------------------

   10   -5663.4898552509      5.82E-06 Convergence criterion met
 Total energy in the final basis set = -5663.4898552509

                    Orbital Energies (a.u.)
 --------------------------------------------------------------

 Alpha MOs
 -- Occupied --
-88.990 -88.988 -88.930 -88.927 -88.924 -88.920 -88.913 -88.906
-14.397 -14.388 -14.387 -14.385 -14.349 -14.339 -14.337 -14.336
-14.328 -14.323 -10.265 -10.264 -10.263 -10.258 -10.255 -10.255
-10.249 -10.247 -10.239 -10.237 -10.237 -10.237 -10.235 -10.234
-10.233 -10.233 -10.232 -10.231 -10.231 -10.227 -10.227 -10.226
-10.226 -10.224 -10.223 -10.223 -10.221 -10.219 -10.219 -10.215
-10.212 -10.211 -10.210 -10.206 -10.200 -10.199 -10.195 -10.193
-10.180 -10.179 -10.179 -10.179 -10.179 -10.179 -10.177 -10.177
-10.176 -10.174 -10.170 -10.169  -8.046  -8.043  -7.991  -7.988
 -7.984  -7.977  -7.972  -7.967  -6.011  -6.008  -6.005  -6.004
 -6.002  -6.001  -5.955  -5.952  -5.952  -5.949  -5.949  -5.948
 -5.945  -5.945  -5.941  -5.941  -5.938  -5.936  -5.933  -5.933
 -5.932  -5.928  -5.928  -5.924  -1.046  -1.032  -0.981  -0.968
 -0.966  -0.959  -0.936  -0.926  -0.921  -0.915  -0.911  -0.899
 -0.846  -0.835  -0.834  -0.826  -0.815  -0.812  -0.811  -0.807
 -0.804  -0.801  -0.799  -0.794  -0.788  -0.785  -0.773  -0.763
 -0.753  -0.748  -0.744  -0.743  -0.726  -0.719  -0.712  -0.709
 -0.695  -0.687  -0.678  -0.670  -0.657  -0.653  -0.647  -0.645
 -0.636  -0.635  -0.628  -0.624  -0.612  -0.605  -0.601  -0.597
 -0.596  -0.591  -0.586  -0.584  -0.579  -0.576  -0.571  -0.564
 -0.556  -0.545  -0.543  -0.536  -0.528  -0.525  -0.514  -0.512
 -0.505  -0.505  -0.502  -0.498  -0.490  -0.483  -0.478  -0.477
 -0.472  -0.470  -0.469  -0.467  -0.462  -0.457  -0.454  -0.451
 -0.449  -0.445  -0.442  -0.436  -0.434  -0.432  -0.430  -0.429
 -0.426  -0.426  -0.424  -0.421  -0.419  -0.417  -0.415  -0.415
 -0.412  -0.411  -0.406  -0.403  -0.401  -0.399  -0.399  -0.394
 -0.394  -0.392  -0.391  -0.389  -0.389  -0.388  -0.387  -0.384
 -0.381  -0.379  -0.376  -0.374  -0.370  -0.365  -0.360  -0.359
 -0.358  -0.357  -0.351  -0.349  -0.347  -0.347  -0.343  -0.341
 -0.338  -0.336  -0.336  -0.331  -0.330  -0.328  -0.326  -0.322
 -0.317  -0.315  -0.311  -0.310  -0.307  -0.304  -0.302  -0.299
 -0.298  -0.294  -0.293  -0.288  -0.284  -0.283  -0.281  -0.279
 -0.273  -0.267  -0.266  -0.259  -0.255  -0.250  -0.248  -0.245
 -0.241  -0.237  -0.231  -0.229  -0.193  -0.186

          Ground-State Mulliken Net Atomic Charges

     Atom                 Charge (a.u.)
  ----------------------------------------
      1 C                     0.286810
      2 C                    -0.121738
      3 N                    -0.503664
      4 C                    -0.070335
      5 C                     0.070887
      6 C                     0.029614
      7 C                     0.025489
      8 C                     0.059033
      9 C                     0.256818
     10 N                    -0.532712
     11 N                    -0.554812
     12 C                     0.202198
     13 C                     0.317823
     14 S                     0.603219
     15 N                    -0.573057
     16 C                    -0.220926
     17 S                     0.308940
     18 C                    -0.101646
     19 C                    -0.213071
     20 S                     0.291265
     21 C                     0.158442
     22 C                     0.047090
     23 C                    -0.318507
     24 C                    -0.056707
     25 N                    -0.423078
     26 S                     0.279505
     27 C                     0.139721
     28 C                    -0.328075
     29 C                    -0.222059
     30 H                     0.084570
     31 H                     0.098058
     32 H                     0.128496
     33 H                     0.110865
     34 H                     0.124655
     35 H                     0.123497
     36 H                     0.118507
     37 H                     0.131443
     38 H                     0.112979
     39 C                    -0.163300
     40 H                     0.094457
     41 H                     0.105821
     42 H                     0.088257
     43 C                    -0.180500
     44 H                     0.094647
     45 C                    -0.177965
     46 H                     0.088064
     47 H                     0.089083
     48 H                     0.093919
     49 C                    -0.166585
     50 H                     0.090516
     51 C                    -0.314549
     52 H                     0.096546
     53 H                     0.103981
     54 H                     0.096743
     55 H                     0.101217
     56 C                     0.281232
     57 C                    -0.126825
     58 N                    -0.479344
     59 C                    -0.094011
     60 C                     0.092895
     61 C                     0.042347
     62 C                     0.001850
     63 C                     0.050603
     64 C                     0.219729
     65 N                    -0.486152
     66 N                    -0.544735
     67 C                     0.236316
     68 C                     0.219662
     69 S                     0.615610
     70 N                    -0.541675
     71 C                    -0.171084
     72 S                     0.336416
     73 C                    -0.143915
     74 C                    -0.250280
     75 S                     0.282639
     76 C                     0.185643
     77 C                     0.065374
     78 C                    -0.299172
     79 C                    -0.101370
     80 N                    -0.435961
     81 S                     0.265550
     82 C                     0.126134
     83 C                    -0.316212
     84 C                    -0.225160
     85 H                     0.086712
     86 H                     0.102623
     87 H                     0.120340
     88 H                     0.116826
     89 H                     0.139686
     90 H                     0.118404
     91 H                     0.116870
     92 H                     0.130305
     93 H                     0.120793
     94 C                    -0.175155
     95 H                     0.097298
     96 H                     0.105487
     97 H                     0.085872
     98 C                    -0.179886
     99 H                     0.096434
    100 C                    -0.178647
    101 H                     0.085681
    102 H                     0.093028
    103 H                     0.089163
    104 C                    -0.167250
    105 H                     0.102878
    106 C                    -0.322730
    107 H                     0.098990
    108 H                     0.099406
    109 H                     0.098439
    110 H                     0.102442
  ----------------------------------------
  Sum of atomic charges =     0.000000

                    Cartesian Multipole Moments
 -----------------------------------------------------------------
    Charge (ESU x 10^10)
                 0.0000
    Dipole Moment (Debye)
         X      -1.2396      Y       0.7130      Z      -1.3396
       Tot       1.9595
    Quadrupole Moments (Debye-Ang)
        XX    -430.0667     XY       7.7353     YY    -400.2966
        XZ      -0.0457     YZ      -7.0986     ZZ    -443.9259

 Total job time:  91.55s(wall), 1083.79s(cpu)
        *  Thank you very much for using Q-Chem.  Have a nice day.  *
