 Q-Chem 4.4, Q-Chem, Inc., Pleasanton, CA (2016)
 Q-Chem 4.4.2 for Intel X86 Linux

User input:
--------------------------------------------------------------
$comment
SP
$end

$rem
MEM_STATIC 5000
MEM_TOTAL 20000
JOBTYPE SP
EXCHANGE B3LYP
BASIS 6-31g(d,p)
$end

$molecule
0 1
C          10.259000     -2.606000      3.818000
C          11.579000     -2.937000      4.006000
N           9.780000     -1.310000      3.648000
C          12.498000     -1.897000      3.968000
C          10.673000     -0.337000      3.667000
C          12.101000     -0.566000      3.784000
C          13.124000      0.484000      3.651000
C          14.274000      0.470000      4.478000
C          13.047000      1.604000      2.812000
N          15.246000      1.389000      4.517000
N          11.998000      1.870000      2.010000
C          14.069000      2.534000      2.714000
C          15.167000      2.447000      3.602000
S          12.345000      3.133000      1.025000
N          13.762000      3.504000      1.763000
C          16.147000      3.503000      3.761000
S          16.378000      4.816000      2.557000
C          16.786000      3.858000      4.971000
C          17.449000      5.718000      3.582000
S          16.583000      3.210000      6.593000
C          17.546000      5.040000      4.747000
C          18.057000      6.981000      3.299000
C          17.821000      4.535000      7.067000
C          18.234000      5.303000      5.994000
N          17.853000      7.444000      2.073000
S          18.900000      7.962000      4.425000
C          18.514000      8.700000      1.944000
C          19.254000      9.013000      3.014000
C           9.206000     -3.648000      3.878000
H          11.879000     -3.964000      4.189000
H          13.568000     -2.062000      4.044000
H          10.391000      0.714000      3.635000
H          14.346000     -0.337000      5.207000
H          18.073000      4.680000      8.108000
H          18.983000      6.075000      6.128000
H          18.528000      9.348000      1.079000
H          19.852000      9.884000      3.250000
H           8.570000     -3.580000      2.987000
C           8.423000     -3.562000      5.190000
H           9.665000     -4.645000      3.865000
H           7.954000     -2.576000      5.294000
H           8.996000     -3.843000      6.082000
C           7.265000     -4.609000      5.056000
H           6.587000     -4.159000      4.320000
C           6.616000     -4.847000      6.453000
H           7.659000     -5.550000      4.654000
H           5.623000     -5.259000      6.236000
H           6.342000     -3.945000      7.014000
C           7.268000     -5.971000      7.338000
H           6.821000     -6.906000      6.977000
C           7.059000     -5.756000      8.825000
H           8.344000     -6.058000      7.147000
H           5.981000     -5.669000      9.009000
H           7.470000     -4.893000      9.363000
H           7.482000     -6.619000      9.354000
C          14.610000      9.063000      3.582000
C          15.465000      9.402000      4.611000
N          14.063000     10.024000      2.836000
C          15.970000     10.754000      4.727000
C          14.387000     11.325000      2.997000
C          15.365000     11.758000      4.015000
C          15.898000     13.198000      4.075000
C          17.253000     13.506000      4.523000
C          15.105000     14.345000      3.780000
N          17.722000     14.720000      4.482000
N          13.786000     14.247000      3.389000
C          15.661000     15.598000      3.842000
C          16.996000     15.770000      4.127000
S          13.462000     15.788000      2.914000
N          14.856000     16.574000      3.349000
C          17.700000     16.994000      3.836000
S          19.290000     17.059000      3.076000
C          17.380000     18.311000      4.286000
C          19.280000     18.925000      3.184000
S          16.070000     18.603000      5.280000
C          18.189000     19.359000      3.925000
C          20.413000     19.791000      2.921000
C          16.512000     20.348000      5.182000
C          17.724000     20.579000      4.512000
N          21.394000     19.149000      2.287000
S          20.661000     21.500000      3.315000
C          22.438000     20.013000      2.047000
C          22.270000     21.258000      2.641000
C          14.190000      7.701000      3.214000
H          15.856000      8.621000      5.256000
H          16.829000     11.019000      5.337000
H          14.012000     12.037000      2.263000
H          18.068000     12.787000      4.584000
H          15.881000     21.079000      5.668000
H          18.135000     21.575000      4.396000
H          23.371000     19.690000      1.605000
H          22.905000     22.132000      2.708000
H          13.830000      7.787000      2.181000
C          13.069000      7.163000      4.128000
H          14.980000      6.940000      3.188000
H          12.179000      7.797000      4.218000
H          13.457000      7.402000      5.126000
C          12.734000      5.703000      3.911000
H          12.584000      5.565000      2.833000
C          11.503000      5.238000      4.744000
H          13.665000      5.150000      4.089000
H          11.746000      5.231000      5.813000
H          11.447000      4.151000      4.609000
C          10.190000      5.918000      4.353000
H          10.149000      6.983000      4.610000
C           8.967000      5.185000      4.832000
H          10.082000      5.899000      3.263000
H           8.015000      5.567000      4.444000
H           8.929000      5.286000      5.924000
H           8.955000      4.101000      4.661000
$end

--------------------------------------------------------------

             Standard Nuclear Orientation (Angstroms)
    I     Atom           X                Y                Z
 ----------------------------------------------------------------
    1      C      11.7477309108    -0.3920968735    -0.8424147315
    2      C      11.5837807364     0.9332899387    -0.5202732434
    3      N      10.7088282696    -1.2974201263    -1.0399700655
    4      C      10.2796386165     1.4030207699    -0.4417157649
    5      C       9.4796091762    -0.8323113264    -0.9086946875
    6      C       9.1774911436     0.5619191836    -0.6438173962
    7      C       7.8208032229     1.1329662371    -0.6484161678
    8      C       7.4598427917     2.1248163163     0.2963409372
    9      C       6.7615005398     0.7265009872    -1.4711638972
   10      N       6.2530701909     2.6810486048     0.4549963222
   11      N       6.8527888003    -0.2672383114    -2.3758791342
   12      C       5.5186372557     1.3376435059    -1.4431696357
   13      C       5.2478915783     2.3026687125    -0.4446005952
   14      S       5.4976649691    -0.3207810821    -3.2959745497
   15      N       4.6764891627     0.7842200188    -2.4044495291
   16      C       3.9175516539     2.8046064232    -0.1634045420
   17      S       2.5461530586     2.6456871042    -1.3127332778
   18      C       3.4215494754     3.1521628851     1.1139491070
   19      C       1.3738080042     3.2081385896    -0.1635921203
   20      S       4.1879677067     3.0527997605     2.6934196083
   21      C       2.0331723232     3.4397428472     0.9930911392
   22      C      -0.0376176981     3.3307468562    -0.3579286837
   23      C       2.5309414380     3.6648265316     3.3200232919
   24      C       1.6068285138     3.8631188274     2.3108565719
   25      N      -0.4615028151     3.0851771723    -1.5904374820
   26      S      -1.1945126915     3.6438143020     0.8686391899
   27      C      -1.8772203942     3.2450744665    -1.6261389036
   28      C      -2.3788498198     3.7145382010    -0.4779051638
   29      C      13.1038831885    -0.9870570793    -0.9134524209
   30      H      12.4387869538     1.5726228902    -0.3242228793
   31      H      10.0464897262     2.4463702246    -0.2547277701
   32      H       8.6041164162    -1.4778814889    -0.9522904722
   33      H       8.2239916479     2.4214012038     1.0146639356
   34      H       2.3620122699     3.7476629213     4.3843592674
   35      H       0.6233668468     4.2585275914     2.5375635609
   36      H      -2.5325699734     3.0993184775    -2.4732499476
   37      H      -3.3935078102     3.9243009689    -0.1642018904
   38      H      13.2234221014    -1.5175360355    -1.8659772371
   39      C      13.3827623737    -1.8648002348     0.3086860135
   40      H      13.8620636147    -0.1935387895    -0.8947397223
   41      H      12.6435112550    -2.6719629418     0.3791781982
   42      H      13.4842222456    -1.3140936912     1.2517566350
   43      C      14.7711232630    -2.5369955361     0.0334833286
   44      H      14.5596200703    -3.2616496976    -0.7627721239
   45      C      15.3068859612    -3.1791780901     1.3487832559
   46      H      15.4793861865    -1.7881081095    -0.3404849233
   47      H      16.0402865919    -3.9253429364     1.0197794003
   48      H      14.5998816160    -3.8174735213     1.8929567562
   49      C      16.1625034811    -2.2437506774     2.2786215297
   50      H      17.1745547808    -2.2786432368     1.8556680144
   51      C      16.1216336546    -2.6545098937     3.7383069490
   52      H      15.8398453414    -1.1988226579     2.2021809718
   53      H      16.4446331862    -3.7006371536     3.8075749708
   54      H      15.1994700816    -2.6427917367     4.3321175498
   55      H      16.7985458892    -1.9940780429     4.2943272698
   56      C      -0.6980283860    -0.6514536144    -0.4085165801
   57      C      -1.2680888073    -0.0814208621     0.7116980322
   58      N      -1.4327891211    -1.4425550611    -1.1917988811
   59      C      -2.7024445111    -0.1239726998     0.9045660077
   60      C      -2.7511597894    -1.6378610293    -0.9744228021
   61      C      -3.4540974989    -0.9877356206     0.1496379300
   62      C      -4.9835660877    -1.0316563468     0.2913623306
   63      C      -5.7396690028     0.0661934709     0.8868681322
   64      C      -5.7762935512    -2.1607821912    -0.0666055397
   65      N      -7.0413596491     0.0558483536     0.9174040109
   66      N      -5.2253203651    -3.3081111062    -0.5979349188
   67      C      -7.1402717882    -2.1146276864     0.0763004807
   68      C      -7.7717438769    -0.9699547580     0.5052537277
   69      S      -6.5654416213    -4.1321419690    -1.0778621588
   70      N      -7.7807088513    -3.1733675280    -0.4827704592
   71      C      -9.1824255013    -0.7434339627     0.3125397325
   72      S      -9.8656318632     0.7736285204    -0.2719904118
   73      C     -10.2644560740    -1.5670649214     0.7486943879
   74      C     -11.5900386939     0.0659157261    -0.1331247107
   75      S     -10.0022469925    -2.9786333189     1.6019944856
   76      C     -11.5538114627    -1.1720041140     0.4945376645
   77      C     -12.8231251657     0.8186527832    -0.2584190680
   78      C     -11.7906993895    -3.2045561552     1.5822487062
   79      C     -12.4851435597    -2.1066730246     1.0497030027
   80      N     -12.6199492857     2.0216416072    -0.7950925731
   81      S     -14.4799512014     0.3808892413     0.1895893791
   82      C     -13.8174015337     2.6906723987    -0.9070653995
   83      C     -14.8800248661     2.0207954961    -0.3127745710
   84      C       0.7005826969    -0.5031914275    -0.8429971466
   85      H      -0.6492493075     0.5083873943     1.3810491315
   86      H      -3.2284761606     0.5159890823     1.6073786578
   87      H      -3.3166650094    -2.1791471715    -1.7317458233
   88      H      -5.3657118368     1.0795018362     1.0220317174
   89      H     -12.2126051033    -4.1029494810     2.0107379134
   90      H     -13.5672369897    -2.0832608264     0.9956782152
   91      H     -13.8824759177     3.7137424311    -1.2524275764
   92      H     -15.9203701439     2.2793706366    -0.1630728694
   93      H       0.6947255032    -0.7718732593    -1.9068865988
   94      C       1.6606471314    -1.4263247231    -0.0635215536
   95      H       1.1178652926     0.5105752035    -0.7977262593
   96      H       1.4014546370    -2.4916629407    -0.0580687648
   97      H       1.3523159869    -1.2484001954     0.9742374587
   98      C       3.1276806005    -1.1773281853    -0.3405188906
   99      H       3.2508044178    -1.1649798528    -1.4306179889
  100      C       4.0555725145    -2.2215960988     0.3479548713
  101      H       3.3115187348    -0.1288563128    -0.0737525640
  102      H       4.0327375760    -2.0936064017     1.4365118073
  103      H       5.0786605674    -1.8598111051     0.1887931470
  104      C       3.8813658592    -3.6504067856    -0.1691544618
  105      H       2.9209191281    -4.1051157253     0.1005432523
  106      C       5.0357197489    -4.5555123526     0.1635766756
  107      H       3.8779012211    -3.6420050672    -1.2646189329
  108      H       5.0067916332    -5.5408065222    -0.3171837257
  109      H       5.0164046360    -4.7293733251     1.2468625514
  110      H       6.0379535404    -4.1507982325    -0.0266203493
 ----------------------------------------------------------------

   10   -5663.4553423700      4.74E-06 Convergence criterion met
 Total energy in the final basis set = -5663.4553423700

                    Orbital Energies (a.u.)
 --------------------------------------------------------------

 Alpha MOs
 -- Occupied --
-88.995 -88.991 -88.930 -88.929 -88.923 -88.922 -88.920 -88.909
-14.390 -14.388 -14.382 -14.372 -14.356 -14.348 -14.342 -14.338
-14.332 -14.321 -10.271 -10.266 -10.266 -10.257 -10.256 -10.251
-10.251 -10.250 -10.244 -10.241 -10.240 -10.239 -10.239 -10.238
-10.238 -10.237 -10.236 -10.234 -10.234 -10.231 -10.230 -10.229
-10.228 -10.228 -10.226 -10.224 -10.223 -10.219 -10.218 -10.214
-10.213 -10.212 -10.212 -10.211 -10.208 -10.208 -10.197 -10.196
-10.182 -10.181 -10.179 -10.177 -10.176 -10.176 -10.175 -10.172
-10.170 -10.168 -10.168 -10.166  -8.049  -8.046  -7.991  -7.990
 -7.981  -7.979  -7.978  -7.971  -6.015  -6.010  -6.009  -6.007
 -6.005  -6.004  -5.955  -5.954  -5.952  -5.950  -5.948  -5.946
 -5.945  -5.944  -5.942  -5.942  -5.940  -5.939  -5.938  -5.936
 -5.935  -5.934  -5.932  -5.927  -1.035  -1.028  -0.970  -0.967
 -0.960  -0.952  -0.936  -0.934  -0.914  -0.911  -0.902  -0.887
 -0.840  -0.837  -0.832  -0.828  -0.815  -0.812  -0.809  -0.806
 -0.803  -0.802  -0.801  -0.794  -0.786  -0.780  -0.770  -0.763
 -0.754  -0.746  -0.744  -0.742  -0.722  -0.721  -0.716  -0.706
 -0.696  -0.687  -0.681  -0.673  -0.655  -0.651  -0.646  -0.644
 -0.636  -0.635  -0.627  -0.623  -0.609  -0.603  -0.600  -0.596
 -0.594  -0.593  -0.587  -0.584  -0.577  -0.575  -0.567  -0.565
 -0.549  -0.546  -0.542  -0.539  -0.530  -0.524  -0.517  -0.514
 -0.507  -0.504  -0.501  -0.499  -0.492  -0.478  -0.477  -0.473
 -0.471  -0.471  -0.467  -0.463  -0.459  -0.453  -0.451  -0.450
 -0.449  -0.442  -0.441  -0.438  -0.437  -0.436  -0.434  -0.429
 -0.428  -0.427  -0.420  -0.419  -0.417  -0.415  -0.415  -0.412
 -0.410  -0.409  -0.407  -0.404  -0.401  -0.400  -0.398  -0.395
 -0.393  -0.391  -0.390  -0.389  -0.389  -0.386  -0.381  -0.380
 -0.378  -0.377  -0.375  -0.371  -0.368  -0.363  -0.359  -0.359
 -0.356  -0.353  -0.350  -0.347  -0.344  -0.342  -0.340  -0.339
 -0.337  -0.334  -0.332  -0.330  -0.329  -0.328  -0.324  -0.320
 -0.312  -0.308  -0.308  -0.304  -0.302  -0.300  -0.297  -0.296
 -0.294  -0.291  -0.290  -0.288  -0.287  -0.286  -0.283  -0.283
 -0.282  -0.268  -0.265  -0.262  -0.258  -0.254  -0.252  -0.243
 -0.240  -0.238  -0.232  -0.229  -0.199  -0.188

          Ground-State Mulliken Net Atomic Charges

     Atom                 Charge (a.u.)
  ----------------------------------------
      1 C                     0.259464
      2 C                    -0.108594
      3 N                    -0.491142
      4 C                    -0.082919
      5 C                     0.125419
      6 C                     0.028603
      7 C                     0.047627
      8 C                     0.059358
      9 C                     0.227195
     10 N                    -0.512734
     11 N                    -0.579231
     12 C                     0.240600
     13 C                     0.251703
     14 S                     0.631817
     15 N                    -0.577218
     16 C                    -0.224467
     17 S                     0.356091
     18 C                    -0.113223
     19 C                    -0.198257
     20 S                     0.275850
     21 C                     0.121846
     22 C                     0.082128
     23 C                    -0.297718
     24 C                    -0.086057
     25 N                    -0.455760
     26 S                     0.253441
     27 C                     0.130200
     28 C                    -0.292694
     29 C                    -0.224408
     30 H                     0.095389
     31 H                     0.094594
     32 H                     0.113694
     33 H                     0.109529
     34 H                     0.129134
     35 H                     0.117409
     36 H                     0.128477
     37 H                     0.129893
     38 H                     0.115883
     39 C                    -0.168966
     40 H                     0.090291
     41 H                     0.121117
     42 H                     0.096458
     43 C                    -0.183308
     44 H                     0.097456
     45 C                    -0.190917
     46 H                     0.088667
     47 H                     0.087922
     48 H                     0.093932
     49 C                    -0.172610
     50 H                     0.101306
     51 C                    -0.319792
     52 H                     0.089179
     53 H                     0.101449
     54 H                     0.107146
     55 H                     0.097821
     56 C                     0.287009
     57 C                    -0.126187
     58 N                    -0.479372
     59 C                    -0.092802
     60 C                     0.092279
     61 C                     0.038718
     62 C                     0.003923
     63 C                     0.050584
     64 C                     0.218957
     65 N                    -0.486452
     66 N                    -0.540665
     67 C                     0.235883
     68 C                     0.218729
     69 S                     0.610865
     70 N                    -0.539974
     71 C                    -0.170240
     72 S                     0.335319
     73 C                    -0.138659
     74 C                    -0.249296
     75 S                     0.267662
     76 C                     0.188159
     77 C                     0.065050
     78 C                    -0.289844
     79 C                    -0.096585
     80 N                    -0.436227
     81 S                     0.268168
     82 C                     0.126515
     83 C                    -0.316368
     84 C                    -0.226233
     85 H                     0.090385
     86 H                     0.097461
     87 H                     0.118582
     88 H                     0.110251
     89 H                     0.127225
     90 H                     0.120434
     91 H                     0.117113
     92 H                     0.131134
     93 H                     0.118013
     94 C                    -0.179795
     95 H                     0.114890
     96 H                     0.099935
     97 H                     0.082055
     98 C                    -0.182586
     99 H                     0.099784
    100 C                    -0.182796
    101 H                     0.094552
    102 H                     0.093252
    103 H                     0.084017
    104 C                    -0.165880
    105 H                     0.103091
    106 C                    -0.323289
    107 H                     0.095058
    108 H                     0.098472
    109 H                     0.098147
    110 H                     0.103506
  ----------------------------------------
  Sum of atomic charges =     0.000000

                    Cartesian Multipole Moments
 -----------------------------------------------------------------
    Charge (ESU x 10^10)
                 0.0000
    Dipole Moment (Debye)
         X      -1.6536      Y       0.5351      Z       2.4211
       Tot       2.9804
    Quadrupole Moments (Debye-Ang)
        XX    -361.0816     XY      15.6917     YY    -439.8060
        XZ      -2.3899     YZ       3.7556     ZZ    -440.9767

 Total job time:  95.87s(wall), 1145.44s(cpu)
        *  Thank you very much for using Q-Chem.  Have a nice day.  *
