 Q-Chem 4.4, Q-Chem, Inc., Pleasanton, CA (2016)
 Q-Chem 4.4.2 for Intel X86 Linux

User input:
--------------------------------------------------------------
$comment
SP
$end

$rem
MEM_STATIC 5000
MEM_TOTAL 20000
JOBTYPE SP
EXCHANGE B3LYP
BASIS 6-31g(d,p)
$end

$molecule
0 1
C          10.789000     11.407000      8.300000
C          11.740000     10.784000      7.510000
N           9.908000     12.365000      7.844000
C          11.666000     11.001000      6.180000
C           9.948000     12.683000      6.552000
C          10.763000     11.956000      5.639000
C          10.732000     12.197000      4.238000
C          10.674000     13.533000      3.799000
C          10.628000     11.174000      3.161000
N          10.506000     13.858000      2.464000
N          10.545000      9.845000      3.441000
C          10.516000     11.529000      1.819000
C          10.450000     12.928000      1.480000
S          10.423000      9.161000      1.944000
N          10.435000     10.488000      0.967000
C          10.235000     13.378000      0.094000
S          10.309000     12.389000     -1.398000
C           9.839000     14.630000     -0.303000
C           9.909000     13.725000     -2.454000
S           9.329000     15.994000      0.682000
C           9.563000     14.823000     -1.664000
C           9.833000     13.714000     -3.849000
C           8.860000     16.818000     -0.766000
C           9.016000     16.123000     -1.934000
N           9.586000     12.530000     -4.307000
S          10.553000     14.914000     -4.924000
C          10.030000     12.480000     -5.582000
C          10.679000     13.619000     -6.049000
C          10.666000     11.165000      9.757000
H          12.362000      9.960000      7.846000
H          12.410000     10.581000      5.509000
H           9.184000     13.419000      6.306000
H          10.593000     14.350000      4.515000
H           8.228000     17.690000     -0.664000
H           8.775000     16.446000     -2.940000
H          10.002000     11.556000     -6.142000
H          11.124000     13.796000     -7.021000
H           9.784000     11.670000     10.168000
C          11.953000     11.438000     10.580000
H          10.360000     10.132000      9.964000
H          12.868000     10.944000     10.231000
H          11.817000     10.835000     11.488000
C          12.169000     12.972000     10.856000
H          13.227000     13.038000     11.139000
C          11.374000     13.454000     12.083000
H          12.039000     13.587000      9.958000
H          11.577000     12.770000     12.917000
H          10.309000     13.466000     11.821000
C          11.852000     14.881000     12.410000
H          12.912000     14.937000     12.688000
C          11.075000     15.535000     13.663000
H          11.738000     15.575000     11.569000
H           9.992000     15.364000     13.694000
H          11.143000     16.630000     13.660000
H          11.560000     15.196000     14.587000
C          14.610000      9.063000      3.582000
C          15.465000      9.402000      4.611000
N          14.063000     10.024000      2.836000
C          15.970000     10.754000      4.727000
C          14.387000     11.325000      2.997000
C          15.365000     11.758000      4.015000
C          15.898000     13.198000      4.075000
C          17.253000     13.506000      4.523000
C          15.105000     14.345000      3.780000
N          17.722000     14.720000      4.482000
N          13.786000     14.247000      3.389000
C          15.661000     15.598000      3.842000
C          16.996000     15.770000      4.127000
S          13.462000     15.788000      2.914000
N          14.856000     16.574000      3.349000
C          17.700000     16.994000      3.836000
S          19.290000     17.059000      3.076000
C          17.380000     18.311000      4.286000
C          19.280000     18.925000      3.184000
S          16.070000     18.603000      5.280000
C          18.189000     19.359000      3.925000
C          20.413000     19.791000      2.921000
C          16.512000     20.348000      5.182000
C          17.724000     20.579000      4.512000
N          21.394000     19.149000      2.287000
S          20.661000     21.500000      3.315000
C          22.438000     20.013000      2.047000
C          22.270000     21.258000      2.641000
C          14.190000      7.701000      3.214000
H          15.856000      8.621000      5.256000
H          16.829000     11.019000      5.337000
H          14.012000     12.037000      2.263000
H          18.068000     12.787000      4.584000
H          15.881000     21.079000      5.668000
H          18.135000     21.575000      4.396000
H          23.371000     19.690000      1.605000
H          22.905000     22.132000      2.708000
H          13.830000      7.787000      2.181000
C          13.069000      7.163000      4.128000
H          14.980000      6.940000      3.188000
H          12.179000      7.797000      4.218000
H          13.457000      7.402000      5.126000
C          12.734000      5.703000      3.911000
H          12.584000      5.565000      2.833000
C          11.503000      5.238000      4.744000
H          13.665000      5.150000      4.089000
H          11.746000      5.231000      5.813000
H          11.447000      4.151000      4.609000
C          10.190000      5.918000      4.353000
H          10.149000      6.983000      4.610000
C           8.967000      5.185000      4.832000
H          10.082000      5.899000      3.263000
H           8.015000      5.567000      4.444000
H           8.929000      5.286000      5.924000
H           8.955000      4.101000      4.661000
$end

--------------------------------------------------------------

             Standard Nuclear Orientation (Angstroms)
    I     Atom           X                Y                Z
 ----------------------------------------------------------------
    1      C      -3.0213589095     5.0738158793    -1.5220161306
    2      C      -2.9076981126     4.5518971453    -0.2447878587
    3      N      -2.9438244296     4.3237060969    -2.6766523152
    4      C      -2.9069912709     3.2069390090    -0.1327516510
    5      C      -2.7890734008     3.0072191793    -2.5545772775
    6      C      -2.8534296057     2.3724789000    -1.2820655657
    7      C      -2.8120395630     0.9585253222    -1.1376178443
    8      C      -1.9024304033     0.2396643974    -1.9356348537
    9      C      -3.7245429027     0.1212261891    -0.3108519666
   10      N      -1.8855904933    -1.1442326218    -1.9605237623
   11      N      -4.7366777160     0.6679782590     0.4159047284
   12      C      -3.6486034833    -1.2693722338    -0.3123455940
   13      C      -2.6896870501    -1.9056883222    -1.1795590105
   14      S      -5.4460059618    -0.6513951887     1.1086212254
   15      N      -4.5404051076    -1.8819315524     0.4911511042
   16      C      -2.6164469558    -3.3713087216    -1.3072842374
   17      S      -3.4186837295    -4.5976453316    -0.2766651624
   18      C      -1.9920203368    -4.0707714080    -2.3086694518
   19      C      -2.7893303120    -5.9546760238    -1.1835355921
   20      S      -1.2476397697    -3.4672475433    -3.7826021220
   21      C      -2.1470593219    -5.4641589574    -2.3220877354
   22      C      -2.9633668706    -7.3140324845    -0.9119047971
   23      C      -1.0742386119    -5.1027237099    -4.3218522930
   24      C      -1.5780812376    -6.0683202529    -3.4939930509
   25      N      -4.0394534952    -7.5331595251    -0.2287870060
   26      S      -1.6845164797    -8.5299854758    -0.9069047514
   27      C      -3.8835286805    -8.7072597677     0.4211645864
   28      C      -2.6471657953    -9.3287634475     0.2736824106
   29      C      -3.1621754027     6.5243690481    -1.7914752550
   30      H      -3.0700950567     5.1267644435     0.6618051161
   31      H      -2.7727615717     2.7328217054     0.8354281724
   32      H      -2.7793743971     2.5219695353    -3.5294345554
   33      H      -1.2956030375     0.7494905129    -2.6829927867
   34      H      -0.8470804497    -5.2642718231    -5.3670859399
   35      H      -1.5845745043    -7.1412210546    -3.6465961545
   36      H      -4.6294828733    -9.0555481695     1.1214556197
   37      H      -2.2982942294   -10.2575553556     0.7093109472
   38      H      -3.3477513924     6.7120578578    -2.8555262231
   39      C      -2.0298228117     7.4137852531    -1.2127322862
   40      H      -4.1117499805     6.9109246858    -1.4010180099
   41      H      -1.8088940201     7.2877068678    -0.1457942797
   42      H      -2.4906698567     8.4077856533    -1.1342962893
   43      C      -0.7315628743     7.3777791784    -2.1011087253
   44      H       0.0501117282     7.7612217857    -1.4334519402
   45      C      -0.8084925168     8.3718791860    -3.2740217677
   46      H      -0.4394811625     6.3599458588    -2.3843623345
   47      H      -1.1077351039     9.3509316070    -2.8783814878
   48      H      -1.5356429968     7.9912684976    -4.0016210278
   49      C       0.5908568570     8.4387612592    -3.9136232987
   50      H       1.3660906379     8.8197311266    -3.2369442425
   51      C       0.6549154730     9.4233031179    -5.1895652339
   52      H       0.9565946245     7.4611351397    -4.2488785088
   53      H      -0.1950451410     9.3639741353    -5.8803170174
   54      H       1.5073449737     9.1935968858    -5.8409153649
   55      H       0.8065354151    10.4485082413    -4.8291656665
   56      C      -2.5746088829     1.4454499023     3.8621528630
   57      C      -1.6664243618     2.4702187957     4.0348855779
   58      N      -2.2947107548     0.4523284941     3.0168050609
   59      C      -0.3216279010     2.3516919106     3.5115703225
   60      C      -1.1052109985     0.3673083907     2.3832753366
   61      C      -0.0461419549     1.3755762873     2.5883743610
   62      C       1.3776823966     1.1871368714     2.0420193458
   63      C       2.5505461626     1.7132907108     2.7342228735
   64      C       1.6668151398     0.5628948578     0.7937376607
   65      N       3.7565449556     1.4678955834     2.3090333360
   66      N       0.6775761351     0.0511963500    -0.0197835920
   67      C       2.9684057499     0.4191550040     0.3836282386
   68      C       4.0141843971     0.8140552931     1.1857721051
   69      S       1.5568788518    -0.7774773970    -1.1357623343
   70      N       3.1071393028    -0.3618502373    -0.7183852887
   71      C       5.3645925483     0.3514178111     0.9836894851
   72      S       6.4164546148    -0.2145076355     2.2810867188
   73      C       6.1577008507     0.4682872015    -0.1981352762
   74      C       7.7939679231    -0.5109066898     1.0529480108
   75      S       5.5760698195     1.2172113888    -1.5729872337
   76      C       7.4430558569    -0.0122903724    -0.1944334424
   77      C       9.1705967882    -0.8197235385     1.3881182985
   78      C       7.1506299143     0.7995765120    -2.3452142843
   79      C       8.0786932200     0.2413571764    -1.4517409082
   80      N       9.3032322858    -1.1827895045     2.6636855955
   81      S      10.6290281673    -0.7750799354     0.3839241633
   82      C      10.6205807139    -1.4792306626     2.9296701038
   83      C      11.4744497215    -1.1895865247     1.8722681030
   84      C      -3.8905222358     1.3316238669     4.5119864428
   85      H      -1.9266225724     3.3086516603     4.6737863705
   86      H       0.5001730614     2.9864425226     3.8308520770
   87      H      -0.8924694876    -0.5407843488     1.8207510029
   88      H       2.5723438919     2.0214194077     3.7780085628
   89      H       7.3061774204     1.0407704904    -3.3874946872
   90      H       9.0789300215    -0.0367953679    -1.7624666763
   91      H      10.9719551222    -1.7300588729     3.9215386607
   92      H      12.5501065641    -1.2380449713     1.7617957715
   93      H      -4.1537451510     0.2694890320     4.4303268488
   94      C      -4.9637089715     2.2028700325     3.8259242376
   95      H      -3.9236192082     1.5614730550     5.5843534234
   96      H      -5.0860232488     2.0506715306     2.7470216314
   97      H      -4.4450485861     3.1646576214     3.7278169574
   98      C      -6.2823918000     2.2663825080     4.5661645790
   99      H      -6.5735515084     1.2330618006     4.7922228455
  100      C      -7.3822372331     3.0306251051     3.7713386382
  101      H      -6.0507908846     2.6658966570     5.5616561464
  102      H      -7.1363055861     4.0971220071     3.7084022971
  103      H      -8.2320919415     3.1261809913     4.4580307432
  104      C      -7.7940319973     2.3528621435     2.4635494961
  105      H      -7.0154074173     2.3690478726     1.6919039910
  106      C      -9.1152081065     2.8321724266     1.9276256762
  107      H      -7.9702986286     1.2872846579     2.6468516973
  108      H      -9.5042342476     2.2632099918     1.0745650633
  109      H      -8.9762765286     3.8651205857     1.5843690414
  110      H      -9.9363027124     2.8972935146     2.6528869341
 ----------------------------------------------------------------

   10   -5663.4764053614      3.85E-06 Convergence criterion met
 Total energy in the final basis set = -5663.4764053614

                    Orbital Energies (a.u.)
 --------------------------------------------------------------

 Alpha MOs
 -- Occupied --
-88.987 -88.979 -88.930 -88.928 -88.921 -88.919 -88.908 -88.906
-14.386 -14.384 -14.384 -14.382 -14.346 -14.341 -14.340 -14.337
-14.331 -14.326 -10.264 -10.263 -10.259 -10.255 -10.255 -10.250
-10.250 -10.247 -10.240 -10.239 -10.237 -10.236 -10.236 -10.235
-10.235 -10.232 -10.230 -10.230 -10.228 -10.228 -10.228 -10.227
-10.225 -10.225 -10.224 -10.223 -10.222 -10.219 -10.218 -10.217
-10.212 -10.207 -10.207 -10.206 -10.202 -10.201 -10.200 -10.191
-10.183 -10.183 -10.182 -10.182 -10.180 -10.179 -10.178 -10.177
-10.176 -10.176 -10.170 -10.170  -8.041  -8.034  -7.991  -7.988
 -7.978  -7.977  -7.970  -7.966  -6.006  -6.001  -6.000  -5.999
 -5.994  -5.992  -5.955  -5.952  -5.952  -5.949  -5.948  -5.945
 -5.942  -5.941  -5.939  -5.938  -5.935  -5.934  -5.934  -5.931
 -5.930  -5.926  -5.926  -5.922  -1.031  -1.027  -0.986  -0.969
 -0.959  -0.943  -0.940  -0.935  -0.912  -0.908  -0.899  -0.898
 -0.843  -0.836  -0.829  -0.828  -0.816  -0.812  -0.810  -0.806
 -0.801  -0.799  -0.796  -0.794  -0.788  -0.783  -0.765  -0.764
 -0.751  -0.744  -0.744  -0.732  -0.720  -0.719  -0.711  -0.707
 -0.689  -0.687  -0.671  -0.667  -0.655  -0.650  -0.648  -0.637
 -0.637  -0.633  -0.631  -0.619  -0.611  -0.607  -0.601  -0.598
 -0.593  -0.592  -0.589  -0.581  -0.578  -0.575  -0.573  -0.566
 -0.545  -0.541  -0.537  -0.537  -0.529  -0.521  -0.518  -0.512
 -0.509  -0.504  -0.500  -0.495  -0.486  -0.482  -0.475  -0.471
 -0.470  -0.467  -0.467  -0.464  -0.461  -0.458  -0.451  -0.449
 -0.447  -0.443  -0.438  -0.436  -0.434  -0.432  -0.432  -0.431
 -0.428  -0.426  -0.424  -0.420  -0.418  -0.415  -0.414  -0.407
 -0.407  -0.405  -0.403  -0.400  -0.399  -0.398  -0.396  -0.394
 -0.391  -0.388  -0.387  -0.386  -0.384  -0.382  -0.382  -0.379
 -0.379  -0.377  -0.376  -0.375  -0.367  -0.360  -0.359  -0.359
 -0.354  -0.350  -0.349  -0.347  -0.344  -0.343  -0.341  -0.338
 -0.336  -0.333  -0.332  -0.327  -0.326  -0.326  -0.323  -0.318
 -0.317  -0.315  -0.313  -0.312  -0.305  -0.301  -0.300  -0.296
 -0.295  -0.294  -0.291  -0.289  -0.288  -0.286  -0.284  -0.281
 -0.271  -0.269  -0.263  -0.260  -0.251  -0.250  -0.248  -0.247
 -0.242  -0.239  -0.232  -0.227  -0.190  -0.187

          Ground-State Mulliken Net Atomic Charges

     Atom                 Charge (a.u.)
  ----------------------------------------
      1 C                     0.273898
      2 C                    -0.100871
      3 N                    -0.479305
      4 C                    -0.056875
      5 C                     0.079043
      6 C                     0.012582
      7 C                     0.034353
      8 C                     0.069795
      9 C                     0.234924
     10 N                    -0.562319
     11 N                    -0.560366
     12 C                     0.222486
     13 C                     0.322421
     14 S                     0.608412
     15 N                    -0.565692
     16 C                    -0.226103
     17 S                     0.357948
     18 C                    -0.120122
     19 C                    -0.216523
     20 S                     0.282473
     21 C                     0.130812
     22 C                     0.036006
     23 C                    -0.313508
     24 C                    -0.065217
     25 N                    -0.396894
     26 S                     0.282418
     27 C                     0.113679
     28 C                    -0.306629
     29 C                    -0.240172
     30 H                     0.095152
     31 H                     0.114615
     32 H                     0.107099
     33 H                     0.116498
     34 H                     0.126450
     35 H                     0.103844
     36 H                     0.112026
     37 H                     0.136983
     38 H                     0.120309
     39 C                    -0.195459
     40 H                     0.098269
     41 H                     0.088424
     42 H                     0.087993
     43 C                    -0.171287
     44 H                     0.086253
     45 C                    -0.157463
     46 H                     0.106495
     47 H                     0.093842
     48 H                     0.103240
     49 C                    -0.181012
     50 H                     0.094625
     51 C                    -0.333800
     52 H                     0.097541
     53 H                     0.102313
     54 H                     0.096572
     55 H                     0.102251
     56 C                     0.283982
     57 C                    -0.133652
     58 N                    -0.483318
     59 C                    -0.093663
     60 C                     0.084686
     61 C                     0.043271
     62 C                     0.004484
     63 C                     0.049432
     64 C                     0.226192
     65 N                    -0.486865
     66 N                    -0.556129
     67 C                     0.234169
     68 C                     0.219884
     69 S                     0.631317
     70 N                    -0.543386
     71 C                    -0.170134
     72 S                     0.338191
     73 C                    -0.137595
     74 C                    -0.249106
     75 S                     0.267611
     76 C                     0.187776
     77 C                     0.065231
     78 C                    -0.289536
     79 C                    -0.096243
     80 N                    -0.435951
     81 S                     0.267885
     82 C                     0.126586
     83 C                    -0.316339
     84 C                    -0.226836
     85 H                     0.088727
     86 H                     0.104745
     87 H                     0.127908
     88 H                     0.116333
     89 H                     0.127131
     90 H                     0.120100
     91 H                     0.117071
     92 H                     0.130761
     93 H                     0.120918
     94 C                    -0.190878
     95 H                     0.098927
     96 H                     0.125081
     97 H                     0.080843
     98 C                    -0.181128
     99 H                     0.095611
    100 C                    -0.177811
    101 H                     0.085921
    102 H                     0.092723
    103 H                     0.089858
    104 C                    -0.182358
    105 H                     0.118033
    106 C                    -0.322259
    107 H                     0.096886
    108 H                     0.100960
    109 H                     0.099567
    110 H                     0.101958
  ----------------------------------------
  Sum of atomic charges =     0.000000

                    Cartesian Multipole Moments
 -----------------------------------------------------------------
    Charge (ESU x 10^10)
                 0.0000
    Dipole Moment (Debye)
         X       1.6698      Y      -0.4831      Z       0.7152
       Tot       1.8797
    Quadrupole Moments (Debye-Ang)
        XX    -418.0177     XY      -9.1572     YY    -407.0450
        XZ     -25.5165     YZ      13.2064     ZZ    -431.9617

 Total job time:  96.67s(wall), 1150.28s(cpu)
        *  Thank you very much for using Q-Chem.  Have a nice day.  *
