 Q-Chem 4.4, Q-Chem, Inc., Pleasanton, CA (2016)
 Q-Chem 4.4.2 for Intel X86 Linux

User input:
--------------------------------------------------------------
$comment
SP
$end

$rem
MEM_STATIC 5000
MEM_TOTAL 20000
JOBTYPE SP
EXCHANGE B3LYP
BASIS 6-31g(d,p)
$end

$molecule
0 1
C          14.666000     18.901000     15.731000
C          13.320000     19.055000     15.352000
N          15.639000     18.827000     14.780000
C          12.942000     19.038000     14.021000
C          15.276000     18.822000     13.444000
C          13.920000     18.907000     13.024000
C          13.593000     18.993000     11.559000
C          12.387000     18.435000     11.141000
C          14.382000     19.644000     10.615000
N          11.964000     18.495000      9.880000
N          15.558000     20.148000     10.892000
C          13.853000     19.784000      9.309000
C          12.666000     19.147000      8.944000
S          15.975000     20.878000      9.495000
N          14.684000     20.543000      8.517000
C          12.147000     19.163000      7.552000
S          12.737000     20.184000      6.272000
C          11.242000     18.263000      7.102000
C          11.860000     19.263000      5.075000
S          10.487000     16.872000      7.864000
C          11.120000     18.325000      5.716000
C          11.947000     19.465000      3.661000
C           9.978000     16.392000      6.244000
C          10.401000     17.245000      5.195000
N          10.921000     19.069000      2.945000
S          13.048000     20.539000      2.885000
C          10.987000     19.439000      1.666000
C          12.103000     20.225000      1.401000
C          14.963000     18.803000     17.183000
H          12.537000     19.185000     16.094000
H          11.892000     19.132000     13.759000
H          16.147000     18.804000     12.790000
H          11.691000     18.048000     11.884000
H           9.422000     15.477000      6.090000
H          10.187000     17.070000      4.148000
H          10.215000     19.063000      1.008000
H          12.439000     20.615000      0.449000
H          15.960000     19.237000     17.327000
C          15.102000     17.447000     17.774000
H          14.172000     19.351000     17.708000
H          15.892000     16.865000     17.285000
H          14.183000     16.907000     17.514000
C          15.383000     17.508000     19.257000
H          16.388000     17.912000     19.435000
C          15.391000     16.048000     19.847000
H          14.617000     18.102000     19.771000
H          15.734000     16.300000     20.858000
H          16.115000     15.419000     19.313000
C          13.994000     15.425000     19.959000
H          13.383000     16.086000     20.586000
C          14.094000     14.070000     20.610000
H          13.516000     15.360000     18.975000
H          14.469000     13.311000     19.910000
H          13.159000     13.750000     21.084000
H          14.807000     14.142000     21.440000
C          26.200000     26.098000     -2.199000
C          25.686000     24.819000     -2.498000
N          25.322000     27.086000     -1.913000
C          24.292000     24.627000     -2.521000
C          23.987000     26.928000     -1.825000
C          23.409000     25.667000     -2.015000
C          21.931000     25.418000     -1.831000
C          21.477000     24.189000     -1.317000
C          20.809000     26.246000     -2.139000
N          20.227000     23.723000     -1.029000
N          20.937000     27.456000     -2.674000
C          19.493000     25.796000     -1.948000
C          19.206000     24.545000     -1.341000
S          19.418000     27.966000     -2.824000
N          18.588000     26.694000     -2.361000
C          17.843000     23.995000     -1.257000
S          16.432000     24.491000     -2.227000
C          17.465000     22.890000     -0.495000
C          15.409000     23.201000     -1.612000
S          18.379000     22.081000      0.689000
C          16.167000     22.499000     -0.689000
C          14.009000     22.941000     -2.070000
C          16.959000     21.050000      0.929000
C          15.853000     21.431000      0.145000
N          13.165000     22.364000     -1.209000
S          13.726000     22.617000     -3.768000
C          12.059000     21.931000     -1.907000
C          12.228000     21.893000     -3.265000
C          27.666000     26.378000     -2.014000
H          26.451000     24.075000     -2.700000
H          23.971000     23.652000     -2.876000
H          23.399000     27.795000     -1.528000
H          22.216000     23.395000     -1.220000
H          17.021000     20.212000      1.610000
H          14.875000     20.970000      0.210000
H          11.228000     21.493000     -1.369000
H          11.500000     21.527000     -3.977000
H          27.894000     27.338000     -1.535000
C          28.375000     26.479000     -3.370000
H          28.165000     25.619000     -1.400000
H          27.985000     27.279000     -4.011000
H          28.244000     25.527000     -3.900000
C          29.904000     26.734000     -3.167000
H          29.992000     27.655000     -2.577000
C          30.687000     26.988000     -4.526000
H          30.461000     25.995000     -2.577000
H          30.066000     27.703000     -5.080000
H          30.670000     26.088000     -5.153000
C          32.070000     27.602000     -4.268000
H          32.003000     28.692000     -4.167000
C          32.914000     27.199000     -5.516000
H          32.539000     27.271000     -3.334000
H          32.414000     27.386000     -6.474000
H          33.055000     26.112000     -5.472000
H          33.845000     27.769000     -5.408000
$end

--------------------------------------------------------------

             Standard Nuclear Orientation (Angstroms)
    I     Atom           X                Y                Z
 ----------------------------------------------------------------
    1      C      11.3357246781    -4.4671780323    -1.1596872677
    2      C      11.6500475310    -3.1663611856    -1.5934495013
    3      N      10.1387004203    -4.7158077220    -0.5580875639
    4      C      10.8059502366    -2.1001680977    -1.3375861454
    5      C       9.2786869688    -3.6601978388    -0.3075788066
    6      C       9.5922415285    -2.3212815163    -0.6699979279
    7      C       8.5790949468    -1.2306566779    -0.4587599912
    8      C       9.0643133907     0.0464599453    -0.1866199678
    9      C       7.2031213843    -1.4026997906    -0.5794079198
   10      N       8.2678829414     1.1022916918    -0.0331016874
   11      N       6.6433520053    -2.5700491814    -0.7735074872
   12      C       6.3938035719    -0.2423677114    -0.5184887557
   13      C       6.9409832784     0.9967456016    -0.1821027181
   14      S       5.0687126973    -2.1884198631    -0.9559029725
   15      N       5.0744589700    -0.5454386213    -0.7662463895
   16      C       6.1067813885     2.2096684988     0.0184122502
   17      S       4.4267820478     2.3553861341    -0.4120637488
   18      C       6.5476312053     3.2918068154     0.7011663076
   19      C       4.2789745681     3.8406591696     0.4947416101
   20      S       8.0462480164     3.6106862321     1.5602434700
   21      C       5.5034181047     4.1722886613     0.9733697600
   22      C       3.0558481221     4.5526532012     0.7063903660
   23      C       7.2179031787     4.9926587715     2.2798806912
   24      C       5.8649685295     5.1599978218     1.8945179047
   25      N       3.1575601797     5.8361273398     0.9603525541
   26      S       1.4950422859     3.9893750781     0.2432965333
   27      C       1.9862682680     6.4724703791     0.9758378364
   28      C       0.9262061937     5.6346405477     0.6475291827
   29      C      12.3581961298    -5.5247381631    -1.3652005283
   30      H      12.5683521233    -2.9598498937    -2.1362411392
   31      H      11.0873453462    -1.1019980793    -1.6607786678
   32      H       8.3427144429    -3.9994067308     0.1346584129
   33      H      10.1368614379     0.2311046384    -0.2288221447
   34      H       7.7220196925     5.6228757904     3.0001376243
   35      H       5.2210673819     5.9461277309     2.2687118092
   36      H       1.9994545247     7.5134158803     1.2700870272
   37      H      -0.1317106231     5.8626858403     0.6371680371
   38      H      11.8102126585    -6.4634912113    -1.5120263769
   39      C      13.2660445721    -5.8431374593    -0.2330472286
   40      H      12.9521763151    -5.2288069091    -2.2376810337
   41      H      12.7135791274    -6.1554076479     0.6609406134
   42      H      13.7251172180    -4.8920996041     0.0645099991
   43      C      14.2601598958    -6.9205378386    -0.5976211523
   44      H      13.7461389179    -7.8822388952    -0.7234723028
   45      C      15.2718604246    -7.1212343744     0.5923145353
   46      H      14.8156419688    -6.6432378577    -1.5022384123
   47      H      15.7943103438    -7.9998276060     0.1943270790
   48      H      14.7349526140    -7.3494677109     1.5221599778
   49      C      16.2901326697    -5.9825168107     0.7291573103
   50      H      16.8312889563    -5.9025485511    -0.2216980683
   51      C      17.2637785433    -6.3031812811     1.8332469852
   52      H      15.7846625535    -5.0268937721     0.9087389628
   53      H      16.8201784782    -6.1393055289     2.8247457095
   54      H      18.2197031818    -5.7768931018     1.7306319874
   55      H      17.5297235108    -7.3642115674     1.7561690657
   56      C     -11.1184482861    -4.4142909925     0.2970846616
   57      C     -10.6098359926    -3.7010241593     1.4025266363
   58      N     -10.8350842143    -3.9539798126    -0.9425291575
   59      C      -9.8623287831    -2.5296777107     1.1793462850
   60      C     -10.0432253203    -2.8971558789    -1.2090168027
   61      C      -9.4246399214    -2.1951648794    -0.1674479183
   62      C      -8.4522437435    -1.0671377872    -0.4171308220
   63      C      -7.3582295835    -0.8692152267     0.4458365457
   64      C      -8.4501984167    -0.0547406096    -1.4242950447
   65      N      -6.3354006124     0.0342769138     0.4347528642
   66      N      -9.3914404359     0.0276372829    -2.3591674125
   67      C      -7.4763436857     0.9562313005    -1.4437824729
   68      C      -6.3843605621     0.9669416999    -0.5364362627
   69      S      -8.9479726272     1.3056065223    -3.2309999227
   70      N      -7.6906240724     1.8440530332    -2.4245242772
   71      C      -5.4325898957     2.0867160140    -0.4494702692
   72      S      -5.6771265061     3.7431698667    -1.0611887340
   73      C      -4.2300314472     2.0697783706     0.2563053993
   74      C      -4.1984900791     4.3548784776    -0.3343456339
   75      S      -3.4526179138     0.7283920377     0.9549067907
   76      C      -3.5879025451     3.2788752768     0.2891100384
   77      C      -3.7614797167     5.7845955880    -0.3822510326
   78      C      -2.1678568800     1.8525896490     1.4266374521
   79      C      -2.3750412927     3.1651745297     0.9605381599
   80      N      -2.4510870250     6.0415871395    -0.3238358294
   81      S      -4.8222738657     7.0110186897     0.2802224755
   82      C      -2.2815210289     7.3838217002    -0.0638689910
   83      C      -3.4103908944     8.0201178655     0.3776613215
   84      C     -11.8088182986    -5.7449425340     0.4176529860
   85      H     -10.8643657380    -4.1401416666     2.3627117349
   86      H      -9.6089142456    -1.9717319491     2.0761007661
   87      H      -9.8492942816    -2.6685391256    -2.2558057654
   88      H      -7.3475726376    -1.4519697728     1.3657547858
   89      H      -1.3486098380     1.4961317436     2.0362447402
   90      H      -1.6631820123     3.9723647459     1.0827278473
   91      H      -1.2824376846     7.8001231813    -0.0445157456
   92      H      -3.4649895866     9.0547743809     0.6897332327
   93      H     -11.9135998244    -6.2957858640    -0.5250120965
   94      C     -13.2572278522    -5.5647034340     0.8880162839
   95      H     -11.2889522279    -6.4282923992     1.0994522455
   96      H     -13.8678949760    -4.9591025093     0.2073444217
   97      H     -13.2434555754    -5.0649938147     1.8649838477
   98      C     -13.9553380126    -6.9546731532     1.0451830223
   99      H     -13.8891526107    -7.4502928211     0.0684201866
  100      C     -15.5010483425    -6.8479844189     1.3971533194
  101      H     -13.4906118329    -7.6737511171     1.7317880468
  102      H     -15.8967714556    -6.0946982834     0.7045168954
  103      H     -15.6393526045    -6.3914395820     2.3850079358
  104      C     -16.2203041280    -8.1844030409     1.1671416203
  105      H     -16.5228913390    -8.2920186392     0.1184997068
  106      C     -17.4597863808    -8.1272643679     2.1119526686
  107      H     -15.5987228112    -9.0661151668     1.3623297186
  108      H     -18.0299119133    -7.1927022882     2.0465034799
  109      H     -17.0819815193    -8.1627463482     3.1412196484
  110      H     -18.0548080247    -9.0047290107     1.8302967726
 ----------------------------------------------------------------

   10   -5663.5238287194      5.92E-06 Convergence criterion met
 Total energy in the final basis set = -5663.5238287194

                    Orbital Energies (a.u.)
 --------------------------------------------------------------

 Alpha MOs
 -- Occupied --
-88.987 -88.986 -88.939 -88.927 -88.926 -88.919 -88.911 -88.909
-14.392 -14.387 -14.383 -14.379 -14.359 -14.354 -14.345 -14.332
-14.326 -14.322 -10.282 -10.266 -10.261 -10.259 -10.257 -10.255
-10.254 -10.251 -10.246 -10.243 -10.240 -10.239 -10.236 -10.234
-10.233 -10.230 -10.229 -10.229 -10.228 -10.227 -10.226 -10.226
-10.226 -10.225 -10.225 -10.223 -10.220 -10.220 -10.218 -10.215
-10.213 -10.207 -10.205 -10.202 -10.198 -10.195 -10.193 -10.189
-10.186 -10.184 -10.180 -10.180 -10.178 -10.178 -10.177 -10.176
-10.176 -10.174 -10.173 -10.169  -8.044  -8.042  -8.001  -7.987
 -7.986  -7.979  -7.972  -7.968  -6.009  -6.007  -6.003  -6.002
 -6.001  -5.999  -5.964  -5.961  -5.958  -5.951  -5.950  -5.948
 -5.946  -5.944  -5.943  -5.943  -5.940  -5.936  -5.936  -5.933
 -5.933  -5.929  -5.928  -5.924  -1.057  -1.041  -0.978  -0.976
 -0.962  -0.959  -0.931  -0.923  -0.921  -0.917  -0.917  -0.910
 -0.848  -0.842  -0.832  -0.831  -0.817  -0.814  -0.808  -0.808
 -0.805  -0.800  -0.796  -0.793  -0.786  -0.785  -0.770  -0.769
 -0.756  -0.750  -0.746  -0.740  -0.724  -0.722  -0.709  -0.709
 -0.696  -0.692  -0.674  -0.673  -0.655  -0.652  -0.644  -0.644
 -0.636  -0.633  -0.624  -0.621  -0.612  -0.609  -0.600  -0.597
 -0.594  -0.592  -0.585  -0.581  -0.581  -0.580  -0.576  -0.563
 -0.561  -0.552  -0.543  -0.541  -0.528  -0.521  -0.521  -0.509
 -0.508  -0.505  -0.502  -0.499  -0.489  -0.487  -0.481  -0.479
 -0.475  -0.473  -0.472  -0.468  -0.466  -0.463  -0.453  -0.448
 -0.445  -0.443  -0.441  -0.438  -0.435  -0.434  -0.430  -0.430
 -0.429  -0.426  -0.422  -0.418  -0.417  -0.415  -0.415  -0.413
 -0.413  -0.409  -0.408  -0.405  -0.402  -0.400  -0.399  -0.399
 -0.395  -0.393  -0.391  -0.390  -0.389  -0.386  -0.385  -0.384
 -0.383  -0.380  -0.377  -0.375  -0.367  -0.366  -0.361  -0.359
 -0.356  -0.356  -0.354  -0.349  -0.348  -0.347  -0.344  -0.342
 -0.340  -0.337  -0.336  -0.335  -0.332  -0.329  -0.327  -0.324
 -0.319  -0.317  -0.316  -0.310  -0.309  -0.304  -0.303  -0.299
 -0.296  -0.295  -0.292  -0.292  -0.290  -0.282  -0.281  -0.280
 -0.275  -0.270  -0.269  -0.264  -0.262  -0.251  -0.248  -0.244
 -0.242  -0.235  -0.234  -0.227  -0.198  -0.189

          Ground-State Mulliken Net Atomic Charges

     Atom                 Charge (a.u.)
  ----------------------------------------
      1 C                     0.286369
      2 C                    -0.121902
      3 N                    -0.504464
      4 C                    -0.070257
      5 C                     0.071208
      6 C                     0.029977
      7 C                     0.024724
      8 C                     0.057748
      9 C                     0.257026
     10 N                    -0.532594
     11 N                    -0.555801
     12 C                     0.197165
     13 C                     0.315753
     14 S                     0.598318
     15 N                    -0.559827
     16 C                    -0.220935
     17 S                     0.315807
     18 C                    -0.101396
     19 C                    -0.218547
     20 S                     0.287004
     21 C                     0.158318
     22 C                     0.045743
     23 C                    -0.319839
     24 C                    -0.053330
     25 N                    -0.420991
     26 S                     0.273926
     27 C                     0.136993
     28 C                    -0.336019
     29 C                    -0.221900
     30 H                     0.083859
     31 H                     0.097941
     32 H                     0.127320
     33 H                     0.109668
     34 H                     0.120526
     35 H                     0.122162
     36 H                     0.112453
     37 H                     0.141508
     38 H                     0.112510
     39 C                    -0.162320
     40 H                     0.094278
     41 H                     0.105264
     42 H                     0.087980
     43 C                    -0.180805
     44 H                     0.094361
     45 C                    -0.177450
     46 H                     0.088051
     47 H                     0.088763
     48 H                     0.093575
     49 C                    -0.166524
     50 H                     0.090437
     51 C                    -0.314364
     52 H                     0.096668
     53 H                     0.103852
     54 H                     0.096523
     55 H                     0.100994
     56 C                     0.285377
     57 C                    -0.112574
     58 N                    -0.495245
     59 C                    -0.087407
     60 C                     0.096668
     61 C                     0.020426
     62 C                     0.069936
     63 C                     0.034028
     64 C                     0.192487
     65 N                    -0.510193
     66 N                    -0.543368
     67 C                     0.197354
     68 C                     0.296330
     69 S                     0.599024
     70 N                    -0.539856
     71 C                    -0.220921
     72 S                     0.315074
     73 C                    -0.104467
     74 C                    -0.254115
     75 S                     0.294149
     76 C                     0.192800
     77 C                     0.038191
     78 C                    -0.317924
     79 C                    -0.072584
     80 N                    -0.416405
     81 S                     0.304286
     82 C                     0.119743
     83 C                    -0.304050
     84 C                    -0.223561
     85 H                     0.089454
     86 H                     0.106488
     87 H                     0.120265
     88 H                     0.098884
     89 H                     0.128934
     90 H                     0.111480
     91 H                     0.117601
     92 H                     0.137475
     93 H                     0.121749
     94 C                    -0.184611
     95 H                     0.107552
     96 H                     0.110113
     97 H                     0.090767
     98 C                    -0.192451
     99 H                     0.092442
    100 C                    -0.175012
    101 H                     0.089645
    102 H                     0.094072
    103 H                     0.091162
    104 C                    -0.178448
    105 H                     0.098448
    106 C                    -0.319088
    107 H                     0.095687
    108 H                     0.106726
    109 H                     0.106860
    110 H                     0.095098
  ----------------------------------------
  Sum of atomic charges =     0.000000

                    Cartesian Multipole Moments
 -----------------------------------------------------------------
    Charge (ESU x 10^10)
                 0.0000
    Dipole Moment (Debye)
         X      -1.5764      Y       2.6185      Z       1.9384
       Tot       3.6192
    Quadrupole Moments (Debye-Ang)
        XX    -411.4503     XY     -10.4294     YY    -410.0430
        XZ     -21.2514     YZ       5.3673     ZZ    -441.5008

 Total job time:  87.40s(wall), 1014.79s(cpu)
        *  Thank you very much for using Q-Chem.  Have a nice day.  *
