 Q-Chem 4.4, Q-Chem, Inc., Pleasanton, CA (2016)
 Q-Chem 4.4.2 for Intel X86 Linux

User input:
--------------------------------------------------------------
$comment
SP
$end

$rem
MEM_STATIC 5000
MEM_TOTAL 20000
JOBTYPE SP
EXCHANGE B3LYP
BASIS 6-31g(d,p)
$end

$molecule
0 1
C         -21.925000      0.864000    -13.102000
C         -21.351000     -0.341000    -13.591000
N         -21.184000      1.819000    -12.534000
C         -19.975000     -0.562000    -13.350000
C         -19.896000      1.593000    -12.301000
C         -19.219000      0.397000    -12.675000
C         -17.828000      0.244000    -12.280000
C         -17.000000     -0.442000    -13.166000
C         -17.215000      0.629000    -11.060000
N         -15.708000     -0.808000    -12.897000
N         -17.895000      1.442000    -10.170000
C         -15.926000      0.290000    -10.751000
C         -15.170000     -0.562000    -11.683000
S         -16.675000      1.826000     -9.109000
N         -15.451000      0.847000     -9.609000
C         -13.741000     -0.917000    -11.419000
S         -12.907000     -0.863000     -9.814000
C         -12.947000     -1.679000    -12.227000
C         -11.394000     -1.471000    -10.452000
S         -13.178000     -2.135000    -13.883000
C         -11.658000     -1.934000    -11.727000
C         -10.099000     -1.468000     -9.825000
C         -11.575000     -2.899000    -13.883000
C         -10.909000     -2.725000    -12.690000
N          -9.206000     -2.364000    -10.213000
S          -9.749000     -0.551000     -8.438000
C          -8.038000     -2.150000     -9.574000
C          -8.060000     -1.221000     -8.629000
C         -23.361000      1.279000    -13.336000
H         -22.001000     -1.160000    -13.883000
H         -19.476000     -1.518000    -13.475000
H         -19.381000      2.413000    -11.805000
H         -17.378000     -0.886000    -14.086000
H         -11.184000     -3.476000    -14.709000
H          -9.875000     -3.012000    -12.539000
H          -7.147000     -2.647000     -9.935000
H          -7.169000     -0.842000     -8.147000
H         -23.431000      2.230000    -13.878000
C         -24.173000      1.260000    -12.043000
H         -23.719000      0.544000    -14.067000
H         -23.857000      2.089000    -11.397000
H         -23.903000      0.349000    -11.494000
C         -25.684000      1.251000    -12.230000
H         -26.049000      0.480000    -12.919000
C         -26.127000      2.647000    -12.699000
H         -26.133000      1.075000    -11.244000
H         -25.580000      2.924000    -13.609000
H         -25.794000      3.372000    -11.945000
C         -27.691000      2.648000    -12.874000
H         -27.878000      2.260000    -13.883000
C         -28.201000      4.021000    -12.765000
H         -28.174000      2.018000    -12.117000
H         -27.813000      4.675000    -13.556000
H         -28.067000      4.525000    -11.801000
H         -29.274000      4.012000    -12.994000
C         -15.755000      6.192000     -8.897000
C         -15.178000      5.361000     -7.891000
N         -15.638000      5.949000    -10.216000
C         -14.291000      4.304000     -8.349000
C         -14.911000      4.900000    -10.664000
C         -14.139000      4.091000     -9.764000
C         -12.978000      3.201000    -10.212000
C         -11.787000      3.086000     -9.372000
C         -12.855000      2.625000    -11.494000
N         -10.629000      2.617000     -9.855000
N         -13.923000      2.428000    -12.360000
C         -11.697000      1.990000    -11.907000
C         -10.540000      2.013000    -11.109000
S         -13.240000      1.763000    -13.675000
N         -11.751000      1.540000    -13.183000
C          -9.282000      1.391000    -11.456000
S          -8.988000      0.097000    -12.629000
C          -8.117000      1.545000    -10.808000
C          -7.253000     -0.051000    -12.338000
S          -7.599000      2.751000     -9.665000
C          -6.976000      0.879000    -11.364000
C          -6.330000     -0.605000    -13.190000
C          -5.889000      2.306000     -9.936000
C          -5.720000      1.245000    -10.741000
N          -6.769000     -0.980000    -14.378000
S          -4.756000     -1.233000    -12.681000
C          -5.751000     -1.564000    -15.145000
C          -4.603000     -1.828000    -14.301000
C         -16.601000      7.455000     -8.570000
H         -15.091000      5.652000     -6.849000
H         -13.625000      3.686000     -7.754000
H         -14.863000      4.790000    -11.746000
H         -11.692000      3.565000     -8.398000
H          -5.163000      2.843000     -9.338000
H          -4.709000      0.926000    -10.968000
H          -5.934000     -2.010000    -16.114000
H          -3.692000     -2.358000    -14.546000
H         -16.845000      7.591000     -7.509000
C         -17.911000      7.495000     -9.252000
H         -16.044000      8.389000     -8.712000
H         -17.762000      7.781000    -10.301000
H         -18.445000      8.408000     -8.962000
C         -18.742000      6.197000     -9.132000
H         -18.109000      5.370000     -9.477000
C         -20.013000      6.195000    -10.008000
H         -19.042000      5.927000     -8.112000
H         -19.798000      5.945000    -11.055000
H         -20.490000      7.169000     -9.844000
C         -21.056000      5.134000     -9.494000
H         -20.824000      4.099000     -9.772000
C         -22.394000      5.475000    -10.147000
H         -21.195000      5.216000     -8.408000
H         -22.625000      6.512000     -9.873000
H         -23.153000      4.724000     -9.897000
H         -22.287000      5.496000    -11.239000
$end

--------------------------------------------------------------

             Standard Nuclear Orientation (Angstroms)
    I     Atom           X                Y                Z
 ----------------------------------------------------------------
    1      C       7.4949526330     2.7228420632    -0.3287670729
    2      C       6.6758319173     3.8716855132    -0.1560766547
    3      N       6.9760211918     1.4989470941    -0.4573021422
    4      C       5.2843374459     3.6727590334     0.0003502985
    5      C       5.6694039564     1.3242451222    -0.2943922863
    6      C       4.7515529243     2.3839164093    -0.0428624745
    7      C       3.3599234319     2.0419762627     0.2036315252
    8      C       2.4044272903     2.9414345920    -0.2645328021
    9      C       2.8432061391     0.9458654146     0.9411532184
   10      N       1.0638144444     2.8602377888     0.0033202856
   11      N       3.6814296586    -0.0857490512     1.3266683611
   12      C       1.5112988648     0.8211471849     1.2281921984
   13      C       0.5904971957     1.8941075890     0.8196040715
   14      S       2.5717549041    -1.2019259581     1.8599113186
   15      N       1.1663472840    -0.3474155899     1.8244366517
   16      C      -0.8815532412     1.7822026814     1.0610720877
   17      S      -1.6854265300     0.7039568034     2.2717209063
   18      C      -1.8202107903     2.7066537571     0.7029433203
   19      C      -3.2933295893     1.2805868732     1.8869839642
   20      S      -1.6915745081     4.0327293606    -0.4054831324
   21      C      -3.1341882880     2.4081638779     1.1040828564
   22      C      -4.5578298287     0.7007689786     2.2544255973
   23      C      -3.4212526137     4.3685445356    -0.1846963140
   24      C      -4.0350342182     3.4497681238     0.6376193476
   25      N      -5.6222006907     1.4850869210     2.3070472016
   26      S      -4.7035230462    -0.8738743745     2.8760603750
   27      C      -6.7173547527     0.7494413427     2.5859811788
   28      C      -6.4968946969    -0.5247042869     2.8766704948
   29      C       8.9867085747     2.7705668717    -0.5766855132
   30      H       7.1349354080     4.8162898303     0.1186444198
   31      H       4.5917330575     4.4313998046     0.3515273783
   32      H       5.3422462983     0.2904740065    -0.3834211981
   33      H       2.6787825820     3.8781527315    -0.7479666663
   34      H      -3.9265713074     5.2242592593    -0.6095390253
   35      H      -5.1066321623     3.4154166652     0.7951751266
   36      H      -7.6940941111     1.1941198082     2.4465097190
   37      H      -7.2859842075    -1.2586730039     2.9687230161
   38      H       9.2596379575     2.3070937184    -1.5325972184
   39      C       9.7749274949     2.2182435638     0.6087274517
   40      H       9.1789221697     3.8365917973    -0.7481346074
   41      H       9.6439717395     1.1300121845     0.6636460757
   42      H       9.3152520814     2.6094941832     1.5251571910
   43      C      11.2488427604     2.5989418378     0.6372513772
   44      H      11.4401368095     3.6723906545     0.5210566066
   45      C      11.9815987899     1.7993346697    -0.4530343551
   46      H      11.6489919354     2.2789171444     1.6079407370
   47      H      11.5073842800     1.9776259709    -1.4263641094
   48      H      11.8116407108     0.7332456094    -0.2540409712
   49      C      13.5094179940     2.1747464887    -0.4135825389
   50      H      13.6093093879     3.0807545081    -1.0241275234
   51      C      14.3023347503     1.0871219322    -1.0013459622
   52      H      13.8454005690     2.3570081438     0.6145878742
   53      H      14.0643095521     0.9210451686    -2.0595064007
   54      H      14.2791462227     0.1208908696    -0.4845018601
   55      H      15.3484955448     1.4126448371    -1.0599414443
   56      C       2.6107935037    -5.0408230592    -0.4236484102
   57      C       1.8681982530    -5.0216789323     0.7944286793
   58      N       2.4451011059    -4.1363815277    -1.4070255227
   59      C       0.7751498415    -4.0665021580     0.8760650686
   60      C       1.5100313142    -3.1646216927    -1.3023292592
   61      C       0.5817731575    -3.1398249248    -0.2077120134
   62      C      -0.7430201798    -2.3752404367    -0.2402415990
   63      C      -1.9314142282    -2.9577705819     0.3807931953
   64      C      -0.9861130183    -1.2209451881    -1.0141520272
   65      N      -3.1628383785    -2.5163822665     0.0927221671
   66      N       0.0151577157    -0.3918561067    -1.5034956821
   67      C      -2.2532299503    -0.6829007926    -1.1544406900
   68      C      -3.3787545195    -1.3486322518    -0.6387100739
   69      S      -0.7939625227     0.7529987316    -2.3235998456
   70      N      -2.2963955036     0.3970765957    -1.9701474852
   71      C      -4.7407842028    -0.8754614059    -0.7428325617
   72      S      -5.3051559898     0.7731730943    -1.0595181640
   73      C      -5.8458998011    -1.5666451216    -0.4237250789
   74      C      -7.0316236232     0.4229856846    -0.9433790721
   75      S      -6.0934617467    -3.2722595037    -0.1812345373
   76      C      -7.1029882293    -0.9214432121    -0.6645905596
   77      C      -8.0515727706     1.1791492683    -1.4655566008
   78      C      -7.8589732238    -3.0660604043    -0.3710164007
   79      C      -8.2514341482    -1.7878549744    -0.4913172805
   80      N      -7.7026659232     2.2183455235    -2.2024590062
   81      S      -9.7240145869     1.1286468523    -0.8899448594
   82      C      -8.8218907260     2.9350888574    -2.6488711858
   83      C     -10.0002915121     2.4794496666    -1.9391525688
   84      C       3.7081177948    -6.0989423024    -0.7303682616
   85      H       1.8451212411    -5.8489636676     1.4966262429
   86      H      -0.0083832274    -4.0101816003     1.6260043493
   87      H       1.4401555842    -2.4869035889    -2.1514132092
   88      H      -1.9218879586    -3.9021708589     0.9240789093
   89      H      -8.4530466762    -3.9632270394    -0.2476561070
   90      H      -9.3072217571    -1.5835691133    -0.6291244357
   91      H      -8.7383859961     3.8655820720    -3.1952916628
   92      H     -11.0037190532     2.8834709810    -1.9664646019
   93      H       3.9750159640    -6.7512101515     0.1105033222
   94      C       4.9965351498    -5.5211483241    -1.1650622206
   95      H       3.3647951107    -6.8812848920    -1.4180008721
   96      H       4.9130467153    -5.2023555973    -2.2118663468
   97      H       5.7139916800    -6.3294826959    -1.3512789504
   98      C       5.5292997290    -4.3810790587    -0.2671930914
   99      H       4.7336557830    -3.6301942390    -0.1849392251
  100      C       6.7707195581    -3.6690561155    -0.8457439847
  101      H       5.7637176518    -4.6699100921     0.7647588802
  102      H       6.5076525462    -2.9264340029    -1.6101013260
  103      H       7.4456805519    -4.4678048573    -1.1766958004
  104      C       7.5612087502    -2.9014529897     0.2783904728
  105      H       7.1124956740    -1.9463168320     0.5762234719
  106      C       8.9416020957    -2.5799002256    -0.2908652093
  107      H       7.7139449853    -3.5422869376     1.1567096025
  108      H       9.3897703765    -3.5346390277    -0.5932309016
  109      H       9.5214513518    -1.9700966192     0.4123391720
  110      H       8.8422440765    -2.0139594316    -1.2258480978
 ----------------------------------------------------------------

   10   -5663.4842117913      3.66E-06 Convergence criterion met
 Total energy in the final basis set = -5663.4842117913

                    Orbital Energies (a.u.)
 --------------------------------------------------------------

 Alpha MOs
 -- Occupied --
-88.987 -88.981 -88.934 -88.923 -88.920 -88.912 -88.905 -88.904
-14.386 -14.384 -14.378 -14.376 -14.350 -14.348 -14.346 -14.333
-14.332 -14.320 -10.268 -10.265 -10.263 -10.261 -10.253 -10.251
-10.251 -10.248 -10.246 -10.243 -10.241 -10.240 -10.239 -10.237
-10.235 -10.234 -10.233 -10.233 -10.230 -10.226 -10.225 -10.225
-10.225 -10.224 -10.222 -10.221 -10.218 -10.217 -10.217 -10.216
-10.214 -10.211 -10.211 -10.208 -10.205 -10.203 -10.202 -10.189
-10.183 -10.179 -10.173 -10.173 -10.171 -10.170 -10.169 -10.168
-10.166 -10.165 -10.163 -10.157  -8.042  -8.036  -7.995  -7.983
 -7.979  -7.970  -7.964  -7.964  -6.007  -6.001  -6.000  -6.000
 -5.995  -5.993  -5.959  -5.956  -5.952  -5.947  -5.944  -5.944
 -5.940  -5.940  -5.936  -5.935  -5.931  -5.929  -5.928  -5.927
 -5.925  -5.924  -5.920  -5.920  -1.040  -1.027  -0.973  -0.966
 -0.947  -0.947  -0.938  -0.936  -0.912  -0.909  -0.898  -0.896
 -0.843  -0.839  -0.834  -0.825  -0.813  -0.810  -0.806  -0.803
 -0.801  -0.797  -0.796  -0.793  -0.782  -0.776  -0.767  -0.764
 -0.751  -0.745  -0.738  -0.738  -0.718  -0.717  -0.708  -0.706
 -0.694  -0.691  -0.673  -0.668  -0.650  -0.648  -0.642  -0.641
 -0.633  -0.629  -0.624  -0.621  -0.611  -0.610  -0.601  -0.592
 -0.589  -0.586  -0.579  -0.577  -0.574  -0.568  -0.564  -0.562
 -0.546  -0.543  -0.538  -0.536  -0.520  -0.517  -0.516  -0.508
 -0.505  -0.502  -0.500  -0.493  -0.483  -0.482  -0.476  -0.474
 -0.472  -0.469  -0.467  -0.464  -0.463  -0.458  -0.454  -0.446
 -0.444  -0.441  -0.441  -0.437  -0.434  -0.431  -0.429  -0.426
 -0.426  -0.425  -0.425  -0.422  -0.421  -0.416  -0.414  -0.412
 -0.407  -0.403  -0.402  -0.399  -0.398  -0.397  -0.396  -0.396
 -0.394  -0.391  -0.387  -0.387  -0.384  -0.382  -0.380  -0.380
 -0.377  -0.373  -0.371  -0.371  -0.367  -0.357  -0.353  -0.351
 -0.348  -0.347  -0.344  -0.343  -0.342  -0.338  -0.336  -0.335
 -0.331  -0.329  -0.327  -0.327  -0.323  -0.323  -0.317  -0.315
 -0.313  -0.311  -0.310  -0.305  -0.302  -0.300  -0.298  -0.293
 -0.293  -0.291  -0.287  -0.285  -0.284  -0.282  -0.280  -0.274
 -0.271  -0.269  -0.267  -0.263  -0.251  -0.251  -0.250  -0.243
 -0.242  -0.235  -0.231  -0.227  -0.194  -0.193

          Ground-State Mulliken Net Atomic Charges

     Atom                 Charge (a.u.)
  ----------------------------------------
      1 C                     0.256877
      2 C                    -0.139301
      3 N                    -0.471430
      4 C                    -0.078629
      5 C                     0.086119
      6 C                     0.038034
      7 C                     0.041659
      8 C                     0.032990
      9 C                     0.212247
     10 N                    -0.525303
     11 N                    -0.547480
     12 C                     0.232408
     13 C                     0.304723
     14 S                     0.606299
     15 N                    -0.564483
     16 C                    -0.238664
     17 S                     0.298049
     18 C                    -0.120603
     19 C                    -0.228983
     20 S                     0.276051
     21 C                     0.157609
     22 C                     0.058093
     23 C                    -0.306860
     24 C                    -0.040110
     25 N                    -0.425007
     26 S                     0.273152
     27 C                     0.146954
     28 C                    -0.307437
     29 C                    -0.205356
     30 H                     0.096032
     31 H                     0.102084
     32 H                     0.122411
     33 H                     0.112919
     34 H                     0.127387
     35 H                     0.128452
     36 H                     0.112841
     37 H                     0.126202
     38 H                     0.119401
     39 C                    -0.179935
     40 H                     0.084380
     41 H                     0.116423
     42 H                     0.082959
     43 C                    -0.174526
     44 H                     0.088559
     45 C                    -0.174446
     46 H                     0.089666
     47 H                     0.093103
     48 H                     0.093317
     49 C                    -0.169345
     50 H                     0.095298
     51 C                    -0.313118
     52 H                     0.094076
     53 H                     0.099457
     54 H                     0.103504
     55 H                     0.089134
     56 C                     0.263097
     57 C                    -0.129853
     58 N                    -0.461076
     59 C                    -0.105000
     60 C                     0.082142
     61 C                     0.035663
     62 C                     0.026471
     63 C                     0.075954
     64 C                     0.199070
     65 N                    -0.520104
     66 N                    -0.550153
     67 C                     0.192395
     68 C                     0.285600
     69 S                     0.649686
     70 N                    -0.533514
     71 C                    -0.205428
     72 S                     0.362036
     73 C                    -0.108521
     74 C                    -0.230269
     75 S                     0.257730
     76 C                     0.098180
     77 C                     0.072686
     78 C                    -0.306481
     79 C                    -0.062342
     80 N                    -0.422980
     81 S                     0.273901
     82 C                     0.107626
     83 C                    -0.312797
     84 C                    -0.217034
     85 H                     0.103248
     86 H                     0.109546
     87 H                     0.125322
     88 H                     0.115809
     89 H                     0.127572
     90 H                     0.116217
     91 H                     0.126414
     92 H                     0.133370
     93 H                     0.093745
     94 C                    -0.174324
     95 H                     0.110421
     96 H                     0.110442
     97 H                     0.081090
     98 C                    -0.176723
     99 H                     0.105711
    100 C                    -0.172241
    101 H                     0.082273
    102 H                     0.103549
    103 H                     0.087586
    104 C                    -0.192207
    105 H                     0.111229
    106 C                    -0.311157
    107 H                     0.086636
    108 H                     0.093639
    109 H                     0.093002
    110 H                     0.105295
  ----------------------------------------
  Sum of atomic charges =     0.000000

                    Cartesian Multipole Moments
 -----------------------------------------------------------------
    Charge (ESU x 10^10)
                 0.0000
    Dipole Moment (Debye)
         X      -4.5005      Y      -0.0747      Z       1.0168
       Tot       4.6145
    Quadrupole Moments (Debye-Ang)
        XX    -387.2851     XY       7.4335     YY    -418.2494
        XZ       4.5210     YZ     -16.1760     ZZ    -450.4938

 Total job time:  113.96s(wall), 1347.01s(cpu)
        *  Thank you very much for using Q-Chem.  Have a nice day.  *
