 Q-Chem 4.4, Q-Chem, Inc., Pleasanton, CA (2016)
 Q-Chem 4.4.2 for Intel X86 Linux

User input:
--------------------------------------------------------------
$comment
SP
$end

$rem
MEM_STATIC 5000
MEM_TOTAL 20000
JOBTYPE SP
EXCHANGE B3LYP
BASIS 6-31g(d,p)
$end

$molecule
0 1
C          -3.007000     -9.849000      0.738000
C          -2.560000     -9.543000     -0.515000
N          -3.744000     -8.994000      1.499000
C          -2.940000     -8.368000     -1.116000
C          -4.132000     -7.860000      0.912000
C          -3.762000     -7.496000     -0.449000
C          -4.409000     -6.350000     -1.154000
C          -5.838000     -6.132000     -1.156000
C          -3.692000     -5.240000     -1.661000
N          -6.451000     -5.107000     -1.712000
N          -2.356000     -5.254000     -1.821000
C          -4.388000     -4.197000     -2.310000
C          -5.784000     -4.152000     -2.365000
S          -2.113000     -3.829000     -2.605000
N          -3.663000     -3.365000     -3.019000
C          -6.478000     -3.107000     -3.154000
S          -5.759000     -1.826000     -4.153000
C          -7.828000     -2.909000     -3.133000
C          -7.300000     -1.063000     -4.466000
S          -9.046000     -3.805000     -2.209000
C          -8.257000     -1.763000     -3.793000
C          -7.491000      0.175000     -5.186000
C         -10.208000     -2.586000     -2.722000
C          -9.676000     -1.586000     -3.526000
N          -8.759000      0.507000     -5.442000
S          -6.232000      1.294000     -5.696000
C          -8.789000      1.789000     -6.015000
C          -7.541000      2.423000     -6.098000
C          -2.768000    -11.184000      1.413000
H          -1.960000    -10.235000     -1.098000
H          -2.792000     -8.266000     -2.186000
H          -4.879000     -7.334000      1.506000
H          -6.478000     -6.848000     -0.643000
H         -11.217000     -2.514000     -2.338000
H         -10.209000     -0.685000     -3.807000
H          -9.739000      2.157000     -6.379000
H          -7.310000      3.400000     -6.502000
H          -1.841000    -11.592000      0.993000
C          -3.910000    -12.251000      1.398000
H          -2.597000    -11.036000      2.488000
H          -3.851000    -12.751000      0.423000
H          -4.753000    -11.557000      1.502000
C          -3.876000    -13.291000      2.541000
H          -3.085000    -14.017000      2.315000
C          -5.268000    -14.109000      2.568000
H          -3.599000    -12.842000      3.503000
H          -5.013000    -14.981000      3.183000
H          -5.565000    -14.486000      1.580000
C          -6.205000    -13.212000      3.342000
H          -5.865000    -13.076000      4.375000
C          -7.617000    -13.709000      3.462000
H          -6.099000    -12.187000      2.965000
H          -8.291000    -12.935000      3.849000
H          -7.664000    -14.506000      4.215000
H          -8.048000    -14.143000      2.551000
C         -15.755000      6.192000     -8.897000
C         -15.178000      5.361000     -7.891000
N         -15.638000      5.949000    -10.216000
C         -14.291000      4.304000     -8.349000
C         -14.911000      4.900000    -10.664000
C         -14.139000      4.091000     -9.764000
C         -12.978000      3.201000    -10.212000
C         -11.787000      3.086000     -9.372000
C         -12.855000      2.625000    -11.494000
N         -10.629000      2.617000     -9.855000
N         -13.923000      2.428000    -12.360000
C         -11.697000      1.990000    -11.907000
C         -10.540000      2.013000    -11.109000
S         -13.240000      1.763000    -13.675000
N         -11.751000      1.540000    -13.183000
C          -9.282000      1.391000    -11.456000
S          -8.988000      0.097000    -12.629000
C          -8.117000      1.545000    -10.808000
C          -7.253000     -0.051000    -12.338000
S          -7.599000      2.751000     -9.665000
C          -6.976000      0.879000    -11.364000
C          -6.330000     -0.605000    -13.190000
C          -5.889000      2.306000     -9.936000
C          -5.720000      1.245000    -10.741000
N          -6.769000     -0.980000    -14.378000
S          -4.756000     -1.233000    -12.681000
C          -5.751000     -1.564000    -15.145000
C          -4.603000     -1.828000    -14.301000
C         -16.601000      7.455000     -8.570000
H         -15.091000      5.652000     -6.849000
H         -13.625000      3.686000     -7.754000
H         -14.863000      4.790000    -11.746000
H         -11.692000      3.565000     -8.398000
H          -5.163000      2.843000     -9.338000
H          -4.709000      0.926000    -10.968000
H          -5.934000     -2.010000    -16.114000
H          -3.692000     -2.358000    -14.546000
H         -16.845000      7.591000     -7.509000
C         -17.911000      7.495000     -9.252000
H         -16.044000      8.389000     -8.712000
H         -17.762000      7.781000    -10.301000
H         -18.445000      8.408000     -8.962000
C         -18.742000      6.197000     -9.132000
H         -18.109000      5.370000     -9.477000
C         -20.013000      6.195000    -10.008000
H         -19.042000      5.927000     -8.112000
H         -19.798000      5.945000    -11.055000
H         -20.490000      7.169000     -9.844000
C         -21.056000      5.134000     -9.494000
H         -20.824000      4.099000     -9.772000
C         -22.394000      5.475000    -10.147000
H         -21.195000      5.216000     -8.408000
H         -22.625000      6.512000     -9.873000
H         -23.153000      4.724000     -9.897000
H         -22.287000      5.496000    -11.239000
$end

--------------------------------------------------------------

             Standard Nuclear Orientation (Angstroms)
    I     Atom           X                Y                Z
 ----------------------------------------------------------------
    1      C      12.5061576376    -0.5575636080    -0.4101937371
    2      C      11.8239849892     0.6074997595    -0.6119902372
    3      N      12.0030855646    -1.6062226139     0.2973002760
    4      C      10.5230658289     0.7282887910    -0.1886164683
    5      C      10.7329769806    -1.5010267201     0.6933141756
    6      C       9.9132973496    -0.3220975805     0.4484297407
    7      C       8.4390253173    -0.3336031367     0.6836734378
    8      C       7.5781345384    -1.4043617554     0.2343271938
    9      C       7.7837689529     0.5490426556     1.5751965740
   10      N       6.2842839287    -1.4896256549     0.4671590375
   11      N       8.3727968609     1.6584957120     2.0577440214
   12      C       6.3841304485     0.4629031946     1.7396898875
   13      C       5.6236396316    -0.5495522869     1.1476986583
   14      S       7.1169752157     2.3703054327     2.8455059885
   15      N       5.8018763834     1.4824682362     2.3244952651
   16      C       4.1448941169    -0.5418193136     1.2448269438
   17      S       3.1013614164     0.6683247649     2.0210445757
   18      C       3.3497020772    -1.5685490329     0.8257318431
   19      C       1.6511391320    -0.2768530563     1.7795632880
   20      S       3.8478260498    -3.1009782840     0.0884062039
   21      C       2.0100639879    -1.4459088469     1.1768531534
   22      C       0.3366106130     0.0650034369     2.2721827261
   23      C       2.1754213414    -3.6255538678     0.2535029877
   24      C       1.3325296149    -2.6869468634     0.8348724303
   25      N      -0.6614239352    -0.7162458497     1.8512782324
   26      S      -0.0544856177     1.3570257769     3.4013700495
   27      C      -1.8414041937    -0.3499943895     2.5193047718
   28      C      -1.6789819880     0.6479959977     3.4908927575
   29      C      13.8831680487    -0.8344805982    -0.9777589830
   30      H      12.2514352111     1.4371560129    -1.1667062087
   31      H       9.9280237160     1.5462105718    -0.5812191229
   32      H      10.3470943325    -2.4498119853     1.0653653850
   33      H       8.0164674981    -2.2297761505    -0.3242247669
   34      H       1.8383130691    -4.6365361347     0.0664365054
   35      H       0.3150525617    -2.8945419524     1.1455100411
   36      H      -2.7644329999    -0.8207146152     2.2080809101
   37      H      -2.4325531649     1.0963383392     4.1251053609
   38      H      14.3796944580     0.1357916391    -1.0970330809
   39      C      14.0032748640    -1.6918150367    -2.2790775503
   40      H      14.4766910412    -1.4138588139    -0.2574664449
   41      H      13.8126674184    -1.0085226828    -3.1162671111
   42      H      13.1830749994    -2.3880952039    -2.0656130078
   43      C      15.3470461227    -2.4290263829    -2.4790856379
   44      H      16.0935362173    -1.6916162670    -2.7997285230
   45      C      15.2018147227    -3.4998457443    -3.6789901074
   46      H      15.7323232628    -2.8516638581    -1.5427560539
   47      H      16.2488275179    -3.7212543064    -3.9206023077
   48      H      14.7445627047    -3.0744802223    -4.5825756123
   49      C      14.5781785096    -4.7070293519    -3.0191116252
   50      H      15.2406862141    -5.1317968012    -2.2563264946
   51      C      14.2643234091    -5.8515204863    -3.9393224810
   52      H      13.7455855261    -4.3700325680    -2.3888639821
   53      H      13.6355706946    -6.6068038602    -3.4521489501
   54      H      15.1882964543    -6.3902876112    -4.1851492429
   55      H      13.8206767099    -5.5781326873    -4.9049697859
   56      C      -9.8496084597    -3.6467810292     1.4159683377
   57      C      -8.4480200214    -3.8837831263     1.5380578764
   58      N     -10.3736283311    -2.6908100729     0.6260178929
   59      C      -7.5664607246    -2.9239774776     0.8935360979
   60      C      -9.5719229810    -1.8577761279    -0.0760910573
   61      C      -8.1466764480    -1.8781230160     0.0933885118
   62      C      -7.2318437886    -0.7175902720    -0.3028058286
   63      C      -6.0863244582    -0.3776197472     0.5395192309
   64      C      -7.5132068046     0.2156741101    -1.3227477124
   65      N      -5.4693461100     0.8072969076     0.4419270243
   66      N      -8.4066623317    -0.0173398820    -2.3604522468
   67      C      -6.7477473027     1.3530146064    -1.5105943158
   68      C      -5.7335982569     1.6963031127    -0.5997503587
   69      S      -8.3673260306     1.3577917235    -3.2238204898
   70      N      -7.1972806825     2.1503652598    -2.5084638845
   71      C      -4.8893942145     2.8653672139    -0.7020521772
   72      S      -4.5518501694     3.8491828363    -2.1355694734
   73      C      -4.0417415966     3.3147217269     0.2362497790
   74      C      -3.4208711968     4.9598536426    -1.3583263172
   75      S      -3.9312003316     2.9601848076     1.9366300899
   76      C      -3.3449190723     4.5333565450    -0.0534751760
   77      C      -3.0735502298     6.2108621270    -1.8045268526
   78      C      -2.9338972288     4.4202925572     2.1993806957
   79      C      -2.6050203168     5.0693783495     1.0711809745
   80      N      -3.7158814414     6.6614614389    -2.8670996146
   81      S      -1.5851800885     7.0526848904    -1.3495216246
   82      C      -3.2533727507     7.9275397675    -3.2528461334
   83      C      -2.0292504518     8.2312999325    -2.5392703775
   84      C     -10.9197087138    -4.4876217213     2.1680895890
   85      H      -8.0091578939    -4.5033139434     2.3136838170
   86      H      -6.4915367280    -2.8211777468     1.0096206233
   87      H     -10.0845484401    -1.1088778265    -0.6773351614
   88      H      -5.8052634071    -0.9446960721     1.4264076835
   89      H      -2.5861840049     4.5759444666     3.2132431109
   90      H      -2.0162348318     5.9762139060     1.1511304959
   91      H      -3.5974287670     8.4254626718    -4.1500998540
   92      H      -1.3620823947     9.0730784086    -2.6701970014
   93      H     -10.5342637721    -5.3697450166     2.6944389871
   94      C     -11.9866844344    -5.0218815632     1.2969103692
   95      H     -11.3341042917    -3.9674789638     3.0401542752
   96      H     -12.6903174919    -4.2155094609     1.0538824841
   97      H     -12.6911750895    -5.6067933866     1.9005626497
   98      C     -11.4828617640    -5.7364968003     0.0220563463
   99      H     -10.8162002566    -5.0401782959    -0.5017241182
  100      C     -12.6118713357    -6.1138274791    -0.9606846908
  101      H     -10.8817772109    -6.6370827198     0.1979607565
  102      H     -12.9290648572    -5.2636947718    -1.5784197876
  103      H     -13.3987826370    -6.5722711909    -0.3493738312
  104      C     -12.1483332879    -7.2456718906    -1.9515563811
  105      H     -11.5083440328    -6.8966626633    -2.7706652339
  106      C     -13.4108222237    -7.8175659928    -2.5934230519
  107      H     -11.6606849887    -8.0658329172    -1.4084394263
  108      H     -14.0538756309    -8.1631681939    -1.7743702856
  109      H     -13.1571803313    -8.5592151127    -3.3603678826
  110      H     -13.9855767698    -7.0166269053    -3.0756136675
 ----------------------------------------------------------------

    9   -5663.4802994868      8.56E-06 Convergence criterion met
 Total energy in the final basis set = -5663.4802994868

                    Orbital Energies (a.u.)
 --------------------------------------------------------------

 Alpha MOs
 -- Occupied --
-88.993 -88.982 -88.935 -88.929 -88.922 -88.916 -88.907 -88.905
-14.391 -14.389 -14.384 -14.382 -14.354 -14.348 -14.347 -14.344
-14.333 -14.331 -10.271 -10.266 -10.265 -10.261 -10.256 -10.256
-10.254 -10.250 -10.250 -10.243 -10.242 -10.241 -10.240 -10.239
-10.238 -10.237 -10.236 -10.234 -10.234 -10.234 -10.233 -10.232
-10.227 -10.226 -10.226 -10.226 -10.224 -10.224 -10.222 -10.217
-10.216 -10.214 -10.213 -10.207 -10.204 -10.203 -10.195 -10.191
-10.184 -10.182 -10.180 -10.180 -10.179 -10.173 -10.172 -10.171
-10.170 -10.169 -10.166 -10.165  -8.049  -8.038  -7.996  -7.990
 -7.981  -7.975  -7.966  -7.965  -6.013  -6.008  -6.007  -6.003
 -5.997  -5.995  -5.960  -5.956  -5.954  -5.953  -5.950  -5.946
 -5.945  -5.941  -5.940  -5.937  -5.936  -5.932  -5.931  -5.930
 -5.927  -5.926  -5.922  -5.922  -1.046  -1.043  -0.967  -0.965
 -0.958  -0.952  -0.943  -0.935  -0.921  -0.915  -0.910  -0.903
 -0.846  -0.839  -0.833  -0.828  -0.817  -0.811  -0.805  -0.805
 -0.804  -0.802  -0.799  -0.798  -0.784  -0.779  -0.767  -0.766
 -0.747  -0.747  -0.740  -0.735  -0.722  -0.720  -0.709  -0.707
 -0.697  -0.690  -0.677  -0.674  -0.654  -0.651  -0.645  -0.643
 -0.634  -0.632  -0.629  -0.626  -0.613  -0.612  -0.603  -0.598
 -0.594  -0.588  -0.583  -0.579  -0.577  -0.571  -0.567  -0.566
 -0.551  -0.547  -0.541  -0.539  -0.523  -0.519  -0.519  -0.509
 -0.508  -0.505  -0.503  -0.495  -0.494  -0.484  -0.478  -0.476
 -0.475  -0.474  -0.470  -0.468  -0.466  -0.457  -0.456  -0.453
 -0.444  -0.444  -0.442  -0.439  -0.435  -0.435  -0.430  -0.428
 -0.428  -0.427  -0.424  -0.423  -0.420  -0.417  -0.412  -0.412
 -0.412  -0.409  -0.407  -0.404  -0.402  -0.401  -0.400  -0.398
 -0.397  -0.393  -0.392  -0.387  -0.387  -0.386  -0.383  -0.380
 -0.379  -0.378  -0.376  -0.371  -0.363  -0.360  -0.357  -0.353
 -0.351  -0.351  -0.350  -0.348  -0.346  -0.341  -0.341  -0.337
 -0.335  -0.333  -0.332  -0.331  -0.328  -0.325  -0.323  -0.320
 -0.315  -0.313  -0.307  -0.304  -0.302  -0.302  -0.302  -0.299
 -0.296  -0.295  -0.294  -0.290  -0.287  -0.286  -0.284  -0.282
 -0.275  -0.272  -0.268  -0.261  -0.254  -0.252  -0.251  -0.248
 -0.246  -0.239  -0.234  -0.232  -0.196  -0.192

          Ground-State Mulliken Net Atomic Charges

     Atom                 Charge (a.u.)
  ----------------------------------------
      1 C                     0.262580
      2 C                    -0.108629
      3 N                    -0.467115
      4 C                    -0.047371
      5 C                     0.072787
      6 C                     0.023763
      7 C                    -0.044726
      8 C                     0.072038
      9 C                     0.242598
     10 N                    -0.528576
     11 N                    -0.516095
     12 C                     0.214539
     13 C                     0.325009
     14 S                     0.573154
     15 N                    -0.562679
     16 C                    -0.218204
     17 S                     0.319977
     18 C                    -0.125073
     19 C                    -0.243071
     20 S                     0.289601
     21 C                     0.176902
     22 C                     0.067261
     23 C                    -0.309715
     24 C                    -0.056443
     25 N                    -0.435620
     26 S                     0.268226
     27 C                     0.129249
     28 C                    -0.299848
     29 C                    -0.230075
     30 H                     0.090968
     31 H                     0.104719
     32 H                     0.105287
     33 H                     0.112683
     34 H                     0.123438
     35 H                     0.117484
     36 H                     0.119213
     37 H                     0.134884
     38 H                     0.085163
     39 C                    -0.168328
     40 H                     0.113714
     41 H                     0.092482
     42 H                     0.115367
     43 C                    -0.196227
     44 H                     0.084530
     45 C                    -0.171442
     46 H                     0.097531
     47 H                     0.091335
     48 H                     0.096349
     49 C                    -0.164739
     50 H                     0.095680
     51 C                    -0.321943
     52 H                     0.101432
     53 H                     0.098246
     54 H                     0.100005
     55 H                     0.098786
     56 C                     0.263305
     57 C                    -0.129016
     58 N                    -0.464537
     59 C                    -0.096433
     60 C                     0.084968
     61 C                     0.048728
     62 C                     0.003056
     63 C                     0.073771
     64 C                     0.197010
     65 N                    -0.523190
     66 N                    -0.533596
     67 C                     0.181418
     68 C                     0.288130
     69 S                     0.627233
     70 N                    -0.524985
     71 C                    -0.200661
     72 S                     0.339473
     73 C                    -0.104132
     74 C                    -0.222685
     75 S                     0.261897
     76 C                     0.091017
     77 C                     0.072297
     78 C                    -0.306009
     79 C                    -0.051655
     80 N                    -0.422810
     81 S                     0.287578
     82 C                     0.107402
     83 C                    -0.312030
     84 C                    -0.217805
     85 H                     0.101491
     86 H                     0.102331
     87 H                     0.122286
     88 H                     0.113713
     89 H                     0.125573
     90 H                     0.117458
     91 H                     0.127587
     92 H                     0.134633
     93 H                     0.093821
     94 C                    -0.173695
     95 H                     0.110000
     96 H                     0.109826
     97 H                     0.080475
     98 C                    -0.174820
     99 H                     0.107994
    100 C                    -0.171270
    101 H                     0.083142
    102 H                     0.101007
    103 H                     0.089040
    104 C                    -0.184910
    105 H                     0.094701
    106 C                    -0.311349
    107 H                     0.091233
    108 H                     0.099153
    109 H                     0.093599
    110 H                     0.098186
  ----------------------------------------
  Sum of atomic charges =     0.000000

                    Cartesian Multipole Moments
 -----------------------------------------------------------------
    Charge (ESU x 10^10)
                 0.0000
    Dipole Moment (Debye)
         X       0.8450      Y       3.4464      Z       1.1845
       Tot       3.7409
    Quadrupole Moments (Debye-Ang)
        XX    -464.2142     XY      17.3398     YY    -411.3240
        XZ     -22.8517     YZ      -8.3519     ZZ    -432.6622

 Total job time:  79.66s(wall), 930.35s(cpu)
        *  Thank you very much for using Q-Chem.  Have a nice day.  *
