 Q-Chem 4.4, Q-Chem, Inc., Pleasanton, CA (2016)
 Q-Chem 4.4.2 for Intel X86 Linux

User input:
--------------------------------------------------------------
$comment
SP
$end

$rem
MEM_STATIC 5000
MEM_TOTAL 20000
JOBTYPE SP
EXCHANGE B3LYP
BASIS 6-31g(d,p)
$end

$molecule
0 1
C           3.777000      8.511000      2.355000
C           2.393000      8.414000      2.221000
N           4.364000      9.673000      2.136000
C           1.640000      9.507000      1.831000
C           3.651000     10.783000      1.822000
C           2.252000     10.784000      1.679000
C           1.500000     12.028000      1.237000
C           2.142000     13.183000      0.735000
C           0.149000     12.280000      1.645000
N           1.520000     14.389000      0.539000
N          -0.696000     11.344000      2.224000
C          -0.472000     13.503000      1.492000
C           0.208000     14.576000      0.905000
S          -2.126000     12.072000      2.405000
N          -1.699000     13.583000      1.979000
C          -0.334000     15.885000      0.540000
S          -1.812000     16.586000      1.224000
C           0.226000     16.845000     -0.290000
C          -1.739000     18.028000      0.289000
S           1.633000     16.687000     -1.242000
C          -0.525000     17.981000     -0.336000
C          -2.734000     19.055000      0.220000
C           1.470000     18.483000     -1.421000
C           0.255000     18.948000     -1.043000
N          -2.426000     20.128000     -0.414000
S          -4.142000     18.943000      1.291000
C          -3.334000     21.124000     -0.117000
C          -4.292000     20.718000      0.795000
C           4.734000      7.370000      2.701000
H           1.918000      7.438000      2.254000
H           0.580000      9.341000      1.666000
H           4.254000     11.689000      1.867000
H           3.193000     13.159000      0.451000
H           2.183000     19.006000     -2.045000
H          -0.024000     19.970000     -1.276000
H          -3.144000     22.065000     -0.617000
H          -4.926000     21.351000      1.403000
H           4.969000      6.786000      1.803000
C           4.072000      6.385000      3.655000
H           5.648000      7.797000      3.131000
H           3.151000      5.966000      3.233000
H           3.919000      6.941000      4.589000
C           4.929000      5.189000      4.176000
H           5.250000      4.618000      3.296000
C           4.050000      4.293000      5.088000
H           5.835000      5.495000      4.714000
H           3.199000      4.083000      4.427000
H           3.648000      4.824000      5.959000
C           4.831000      2.964000      5.444000
H           4.241000      2.527000      6.260000
C           6.302000      3.245000      5.700000
H           4.757000      2.269000      4.598000
H           6.814000      3.394000      4.741000
H           6.780000      2.354000      6.127000
H           6.520000      4.105000      6.345000
C           6.160000     14.959000      6.899000
C           5.638000     13.727000      6.543000
N           6.822000     15.726000      5.996000
C           5.763000     13.193000      5.233000
C           7.007000     15.172000      4.734000
C           6.529000     13.889000      4.315000
C           6.761000     13.356000      2.994000
C           7.199000     12.010000      2.845000
C           6.387000     13.988000      1.860000
N           7.371000     11.414000      1.648000
N           5.822000     15.200000      1.839000
C           6.506000     13.374000      0.612000
C           7.003000     12.019000      0.489000
S           5.511000     15.578000      0.259000
N           6.084000     14.149000     -0.463000
C           7.053000     11.321000     -0.794000
S           6.816000     12.010000     -2.418000
C           7.308000      9.969000     -0.929000
C           7.216000     10.487000     -3.174000
S           7.415000      8.764000      0.287000
C           7.450000      9.519000     -2.224000
C           7.230000     10.294000     -4.587000
C           7.936000      7.581000     -0.988000
C           7.876000      8.194000     -2.250000
N           7.765000      9.216000     -5.027000
S           6.274000     11.211000     -5.706000
C           7.584000      9.103000     -6.365000
C           6.987000     10.190000     -6.965000
C           5.837000     15.593000      8.297000
H           5.040000     13.241000      7.306000
H           5.229000     12.307000      4.903000
H           7.446000     15.844000      4.000000
H           7.399000     11.445000      3.756000
H           8.324000      6.580000     -0.850000
H           8.216000      7.629000     -3.109000
H           8.007000      8.285000     -6.933000
H           6.737000     10.224000     -8.017000
H           5.463000     16.615000      8.160000
C           7.094000     15.619000      9.111000
H           5.101000     15.017000      8.872000
H           7.867000     16.105000      8.503000
H           7.306000     14.560000      9.307000
C           6.992000     16.469000     10.451000
H           8.007000     16.561000     10.856000
C           6.000000     15.801000     11.401000
H           6.605000     17.428000     10.085000
H           6.405000     14.831000     11.715000
H           5.038000     15.570000     10.927000
C           5.691000     16.641000     12.705000
H           5.055000     17.515000     12.514000
C           6.842000     17.045000     13.609000
H           5.005000     16.011000     13.283000
H           7.629000     16.302000     13.795000
H           6.362000     17.197000     14.585000
H           7.345000     17.920000     13.179000
$end

--------------------------------------------------------------

             Standard Nuclear Orientation (Angstroms)
    I     Atom           X                Y                Z
 ----------------------------------------------------------------
    1      C      -3.4798195863     0.5142767762    -2.7905900523
    2      C      -2.7356635492     0.0725362281    -3.8832556373
    3      N      -2.9406608628     0.4715676767    -1.5863235520
    4      C      -1.4608636716    -0.4372109430    -3.7135467874
    5      C      -1.6682366256     0.0453539554    -1.3905087815
    6      C      -0.8386294790    -0.4051091887    -2.4328551434
    7      C       0.5490911657    -0.9600873542    -2.1596617174
    8      C       1.0184395317    -1.2665429826    -0.8619752918
    9      C       1.6084375013    -0.8543492041    -3.1197522261
   10      N       2.3246956649    -1.5542305900    -0.5608660838
   11      N       1.4430202747    -0.5104614545    -4.4538213235
   12      C       2.9322364659    -1.0993309863    -2.8159114327
   13      C       3.3045598420    -1.4829839512    -1.5226660167
   14      S       2.9009930611    -0.6270390017    -5.1381969731
   15      N       3.7895872460    -0.8949769196    -3.8019576058
   16      C       4.6252948328    -1.9139858705    -1.0640088138
   17      S       6.1461668924    -1.5520788791    -1.9004970133
   18      C       4.9541400735    -2.5649943999     0.1158846993
   19      C       7.1380695545    -2.3970743944    -0.7775412315
   20      S       3.8754680229    -3.1850729230     1.2833118843
   21      C       6.2994681318    -2.7376396809     0.2458809392
   22      C       8.5420943896    -2.6501627064    -0.8966024290
   23      C       5.3723975382    -3.3337397849     2.2939187271
   24      C       6.5145441414    -3.2196301894     1.5743256915
   25      N       9.1338180485    -3.1623502751     0.1210792530
   26      S       9.4212371254    -1.9236801021    -2.2535770330
   27      C      10.5010427335    -3.0405497761    -0.0222745031
   28      C      10.8589209638    -2.3790459740    -1.1836012840
   29      C      -4.9205016261     1.0248700470    -2.8248795818
   30      H      -3.2159876304    -0.0346502759    -4.8512896399
   31      H      -0.9701838754    -0.8394733269    -4.5943414922
   32      H      -1.3118893815     0.2545925690    -0.3826864538
   33      H       0.3338482334    -1.3103192415    -0.0162499265
   34      H       5.2864348758    -3.7650883773     3.2827679636
   35      H       7.4643869827    -3.4734292518     2.0325817475
   36      H      11.0744831518    -3.4529779408     0.7978779800
   37      H      11.8082599521    -1.9058126023    -1.4006604033
   38      H      -5.6221374787     0.1820236045    -2.8262954826
   39      C      -5.1938955928     1.7731467622    -4.1225400522
   40      H      -5.0878463990     1.6618681313    -1.9480362847
   41      H      -5.0151294450     1.1426625906    -5.0014134071
   42      H      -4.5599160844     2.6683414478    -4.0825718422
   43      C      -6.5984216013     2.4301088291    -4.3014633154
   44      H      -7.3397301537     1.6243774469    -4.2326115196
   45      C      -6.6751558504     3.0922700209    -5.7024827339
   46      H      -6.8446219345     3.1663795124    -3.5260880019
   47      H      -6.3998604731     2.2517024858    -6.3527754942
   48      H      -5.9175247080     3.8698355142    -5.8560827199
   49      C      -8.1569472741     3.5669711662    -5.9886487686
   50      H      -8.0562389754     4.2157192855    -6.8683695859
   51      C      -8.7949292071     4.1532830959    -4.7406281862
   52      H      -8.7539904639     2.7022307433    -6.3048455910
   53      H      -9.0916734393     3.3379143723    -4.0689566107
   54      H      -9.7401512966     4.6448876831    -5.0043972735
   55      H      -8.1765984063     4.8599054184    -4.1736176801
   56      C       0.6723083658     5.6942775165     2.0910853568
   57      C      -0.0245145374     5.1887825389     1.0066699986
   58      N       0.7791622509     4.9881671635     3.2451791210
   59      C      -0.6655149853     3.9217678299     1.0326151910
   60      C       0.0914210764     3.7805756516     3.2953769034
   61      C      -0.6791537460     3.2217233935     2.2257823089
   62      C      -1.3851644915     1.9678245266     2.3364189170
   63      C      -2.7287871681     1.8736070065     1.8764600473
   64      C      -0.7848885658     0.8015535545     2.6600496209
   65      N      -3.4347067271     0.7250063233     1.8782054978
   66      N       0.5109166704     0.6972604614     2.9740906068
   67      C      -1.4786288053    -0.4091480849     2.6202121973
   68      C      -2.8621187439    -0.4652205975     2.1948012628
   69      S       0.8236100169    -0.8983209752     3.2779783327
   70      N      -0.7299788241    -1.5236731520     2.9831048542
   71      C      -3.5843800017    -1.7282706953     2.0575564964
   72      S      -3.0756123118    -3.3395287716     2.6172607481
   73      C      -4.8207327870    -1.8497576336     1.4510693044
   74      C      -4.6027278970    -4.0397320431     2.1390365664
   75      S      -5.7032882864    -0.6827561423     0.5558970808
   76      C      -5.4040183692    -3.0954765703     1.5385407867
   77      C      -4.9187672606    -5.4200217793     2.3091346702
   78      C      -7.0919706619    -1.8499924723     0.4805604376
   79      C      -6.7103057692    -3.0717945116     1.0580937151
   80      N      -6.1412819528    -5.7669463755     2.1447870145
   81      S      -3.7404655229    -6.6912890777     2.3588385005
   82      C      -6.2681989729    -7.1147713188     2.1998687003
   83      C      -5.1153721809    -7.7946391901     2.5265919246
   84      C       1.5214626973     7.0064465302     1.9575248796
   85      H       0.0365098243     5.7824199111     0.1012200013
   86      H      -1.0790232531     3.4508798931     0.1458641191
   87      H       0.2764368680     3.1862495379     4.1873447433
   88      H      -3.1956118665     2.7862117247     1.5044743898
   89      H      -8.1014639392    -1.6637868766     0.1372824175
   90      H      -7.4560396631    -3.8526316558     1.1410413708
   91      H      -7.2318554047    -7.6023478169     2.1341995303
   92      H      -5.0531486086    -8.8740759452     2.5627100484
   93      H       2.5391969591     6.8250540498     2.3241892225
   94      C       0.8725907529     8.0800396342     2.7758671349
   95      H       1.5740771087     7.3831073442     0.9282264025
   96      H       0.7229489847     7.6763485687     3.7848417950
   97      H      -0.0700870468     8.2816087529     2.2509200362
   98      C       1.7525278092     9.3923079368     2.9552178495
   99      H       1.2569383517    10.0158484971     3.7090760984
  100      C       1.9282185680    10.0742305737     1.5998941706
  101      H       2.7032116708     8.9827256079     3.3183273525
  102      H       0.9522716770    10.4367711320     1.2540430328
  103      H       2.2744759317     9.3904508919     0.8150169924
  104      C       2.9212634170    11.3050363070     1.6217155958
  105      H       3.9743597574    11.0076464866     1.7077411309
  106      C       2.6447478064    12.4557911725     2.5727862329
  107      H       2.9013837046    11.6938772162     0.5970265970
  108      H       1.6033921076    12.7864167554     2.6835970294
  109      H       3.1617233313    13.3052310951     2.1066659432
  110      H       2.9848138655    12.1789063781     3.5783825167
 ----------------------------------------------------------------

   10   -5663.4988720434      4.59E-06 Convergence criterion met
 Total energy in the final basis set = -5663.4988720434

                    Orbital Energies (a.u.)
 --------------------------------------------------------------

 Alpha MOs
 -- Occupied --
-88.990 -88.981 -88.929 -88.924 -88.923 -88.919 -88.905 -88.903
-14.386 -14.381 -14.381 -14.374 -14.349 -14.344 -14.343 -14.335
-14.329 -14.322 -10.271 -10.263 -10.263 -10.261 -10.257 -10.251
-10.250 -10.243 -10.242 -10.240 -10.239 -10.238 -10.237 -10.237
-10.235 -10.234 -10.229 -10.227 -10.227 -10.226 -10.225 -10.225
-10.224 -10.222 -10.221 -10.220 -10.219 -10.215 -10.208 -10.206
-10.206 -10.205 -10.201 -10.199 -10.193 -10.192 -10.190 -10.189
-10.183 -10.182 -10.181 -10.179 -10.179 -10.177 -10.176 -10.175
-10.175 -10.173 -10.170 -10.170  -8.046  -8.035  -7.990  -7.985
 -7.982  -7.979  -7.965  -7.962  -6.011  -6.006  -6.004  -6.000
 -5.995  -5.993  -5.953  -5.951  -5.949  -5.946  -5.946  -5.946
 -5.943  -5.942  -5.942  -5.940  -5.939  -5.936  -5.929  -5.927
 -5.926  -5.923  -5.921  -5.918  -1.043  -1.016  -0.984  -0.980
 -0.949  -0.947  -0.939  -0.922  -0.920  -0.913  -0.902  -0.890
 -0.848  -0.839  -0.834  -0.829  -0.808  -0.805  -0.805  -0.801
 -0.800  -0.798  -0.796  -0.793  -0.785  -0.773  -0.770  -0.763
 -0.751  -0.747  -0.741  -0.736  -0.722  -0.720  -0.711  -0.706
 -0.695  -0.691  -0.674  -0.669  -0.653  -0.649  -0.645  -0.639
 -0.638  -0.635  -0.626  -0.622  -0.612  -0.611  -0.601  -0.593
 -0.592  -0.589  -0.579  -0.578  -0.576  -0.572  -0.560  -0.556
 -0.552  -0.547  -0.535  -0.534  -0.525  -0.517  -0.511  -0.506
 -0.504  -0.501  -0.500  -0.493  -0.487  -0.483  -0.480  -0.474
 -0.472  -0.469  -0.468  -0.464  -0.459  -0.447  -0.447  -0.445
 -0.444  -0.443  -0.441  -0.439  -0.438  -0.436  -0.433  -0.432
 -0.429  -0.427  -0.420  -0.420  -0.416  -0.414  -0.414  -0.410
 -0.409  -0.408  -0.403  -0.400  -0.400  -0.399  -0.397  -0.395
 -0.392  -0.391  -0.389  -0.387  -0.386  -0.383  -0.383  -0.380
 -0.380  -0.374  -0.374  -0.370  -0.369  -0.359  -0.356  -0.353
 -0.352  -0.349  -0.348  -0.348  -0.345  -0.341  -0.338  -0.337
 -0.335  -0.334  -0.333  -0.332  -0.328  -0.327  -0.318  -0.317
 -0.312  -0.309  -0.309  -0.303  -0.303  -0.298  -0.297  -0.295
 -0.293  -0.292  -0.290  -0.288  -0.286  -0.281  -0.281  -0.275
 -0.271  -0.270  -0.264  -0.258  -0.251  -0.249  -0.247  -0.244
 -0.243  -0.240  -0.232  -0.229  -0.194  -0.189

          Ground-State Mulliken Net Atomic Charges

     Atom                 Charge (a.u.)
  ----------------------------------------
      1 C                     0.281186
      2 C                    -0.111116
      3 N                    -0.486148
      4 C                    -0.074795
      5 C                     0.054625
      6 C                     0.046859
      7 C                     0.034849
      8 C                     0.054618
      9 C                     0.220358
     10 N                    -0.543689
     11 N                    -0.550485
     12 C                     0.227898
     13 C                     0.302360
     14 S                     0.605333
     15 N                    -0.566431
     16 C                    -0.232977
     17 S                     0.303358
     18 C                    -0.090762
     19 C                    -0.225347
     20 S                     0.269311
     21 C                     0.161292
     22 C                     0.108657
     23 C                    -0.295471
     24 C                    -0.063803
     25 N                    -0.433674
     26 S                     0.245433
     27 C                     0.134210
     28 C                    -0.313694
     29 C                    -0.217865
     30 H                     0.085459
     31 H                     0.121433
     32 H                     0.095206
     33 H                     0.118461
     34 H                     0.115140
     35 H                     0.120697
     36 H                     0.123416
     37 H                     0.131212
     38 H                     0.116281
     39 C                    -0.191957
     40 H                     0.124620
     41 H                     0.091250
     42 H                     0.098900
     43 C                    -0.183203
     44 H                     0.086441
     45 C                    -0.181339
     46 H                     0.097058
     47 H                     0.087709
     48 H                     0.093967
     49 C                    -0.176801
     50 H                     0.092545
     51 C                    -0.316041
     52 H                     0.096425
     53 H                     0.111064
     54 H                     0.095017
     55 H                     0.107190
     56 C                     0.279244
     57 C                    -0.128201
     58 N                    -0.490268
     59 C                    -0.077663
     60 C                     0.075983
     61 C                     0.039715
     62 C                    -0.011631
     63 C                     0.081617
     64 C                     0.273141
     65 N                    -0.536399
     66 N                    -0.562677
     67 C                     0.181673
     68 C                     0.326190
     69 S                     0.613256
     70 N                    -0.589068
     71 C                    -0.206850
     72 S                     0.328952
     73 C                    -0.131905
     74 C                    -0.255737
     75 S                     0.304408
     76 C                     0.206849
     77 C                     0.081192
     78 C                    -0.321463
     79 C                    -0.068911
     80 N                    -0.424406
     81 S                     0.258653
     82 C                     0.114288
     83 C                    -0.299116
     84 C                    -0.212692
     85 H                     0.082414
     86 H                     0.112631
     87 H                     0.112836
     88 H                     0.117133
     89 H                     0.124027
     90 H                     0.122923
     91 H                     0.111996
     92 H                     0.127282
     93 H                     0.113095
     94 C                    -0.183138
     95 H                     0.095186
     96 H                     0.111564
     97 H                     0.085467
     98 C                    -0.173866
     99 H                     0.096633
    100 C                    -0.173022
    101 H                     0.093711
    102 H                     0.090721
    103 H                     0.090850
    104 C                    -0.186632
    105 H                     0.092784
    106 C                    -0.311419
    107 H                     0.084265
    108 H                     0.099900
    109 H                     0.102478
    110 H                     0.107768
  ----------------------------------------
  Sum of atomic charges =     0.000000

                    Cartesian Multipole Moments
 -----------------------------------------------------------------
    Charge (ESU x 10^10)
                 0.0000
    Dipole Moment (Debye)
         X       0.8798      Y      -2.1068      Z      -3.9597
       Tot       4.5707
    Quadrupole Moments (Debye-Ang)
        XX    -394.8641     XY       4.8538     YY    -421.3135
        XZ       8.1748     YZ     -16.8805     ZZ    -436.8316

 Total job time:  94.47s(wall), 1128.05s(cpu)
        *  Thank you very much for using Q-Chem.  Have a nice day.  *
