 Q-Chem 4.4, Q-Chem, Inc., Pleasanton, CA (2016)
 Q-Chem 4.4.2 for Intel X86 Linux

User input:
--------------------------------------------------------------
$comment
SP
$end

$rem
MEM_STATIC 5000
MEM_TOTAL 20000
JOBTYPE SP
EXCHANGE B3LYP
BASIS 6-31g(d,p)
$end

$molecule
0 1
C         -28.022000     -0.605000     -4.779000
C         -27.259000     -1.720000     -4.487000
N         -27.420000      0.479000     -5.192000
C         -25.875000     -1.812000     -4.879000
C         -26.063000      0.507000     -5.335000
C         -25.185000     -0.638000     -5.254000
C         -23.693000     -0.634000     -5.445000
C         -22.980000      0.552000     -5.063000
C         -22.833000     -1.770000     -5.778000
N         -21.647000      0.817000     -5.251000
N         -23.230000     -3.014000     -6.054000
C         -21.462000     -1.591000     -5.727000
C         -20.910000     -0.216000     -5.647000
S         -21.952000     -3.890000     -6.313000
N         -20.812000     -2.692000     -6.067000
C         -19.448000      0.068000     -5.712000
S         -18.233000     -1.247000     -5.842000
C         -18.911000      1.340000     -5.788000
C         -16.962000     -0.027000     -5.845000
S         -19.649000      2.940000     -5.789000
C         -17.512000      1.303000     -5.785000
C         -15.563000     -0.296000     -6.005000
C         -18.011000      3.516000     -6.033000
C         -16.963000      2.593000     -5.966000
N         -14.656000      0.648000     -6.038000
S         -15.022000     -1.963000     -5.974000
C         -13.407000      0.085000     -6.247000
C         -13.417000     -1.284000     -6.209000
C         -29.527000     -0.598000     -4.762000
H         -27.788000     -2.604000     -4.143000
H         -25.351000     -2.746000     -4.700000
H         -25.558000      1.426000     -5.630000
H         -23.501000      1.471000     -4.800000
H         -17.835000      4.584000     -6.059000
H         -15.922000      2.797000     -6.189000
H         -12.563000      0.752000     -6.365000
H         -12.546000     -1.910000     -6.351000
H         -29.951000      0.414000     -4.762000
C         -30.063000     -0.970000     -3.372000
H         -29.972000     -1.253000     -5.522000
H         -29.708000     -0.310000     -2.571000
H         -29.686000     -1.936000     -3.016000
C         -31.648000     -1.058000     -3.345000
H         -32.024000     -0.071000     -3.046000
C         -32.337000     -1.997000     -2.307000
H         -31.998000     -1.443000     -4.310000
H         -33.242000     -1.557000     -1.872000
H         -31.675000     -2.235000     -1.466000
C         -32.875000     -3.331000     -3.009000
H         -33.376000     -3.923000     -2.234000
C         -31.774000     -4.173000     -3.803000
H         -33.614000     -3.076000     -3.779000
H         -31.307000     -3.679000     -4.664000
H         -32.095000     -5.144000     -4.199000
H         -30.917000     -4.357000     -3.143000
C         -15.755000      6.192000     -8.897000
C         -15.178000      5.361000     -7.891000
N         -15.638000      5.949000    -10.216000
C         -14.291000      4.304000     -8.349000
C         -14.911000      4.900000    -10.664000
C         -14.139000      4.091000     -9.764000
C         -12.978000      3.201000    -10.212000
C         -11.787000      3.086000     -9.372000
C         -12.855000      2.625000    -11.494000
N         -10.629000      2.617000     -9.855000
N         -13.923000      2.428000    -12.360000
C         -11.697000      1.990000    -11.907000
C         -10.540000      2.013000    -11.109000
S         -13.240000      1.763000    -13.675000
N         -11.751000      1.540000    -13.183000
C          -9.282000      1.391000    -11.456000
S          -8.988000      0.097000    -12.629000
C          -8.117000      1.545000    -10.808000
C          -7.253000     -0.051000    -12.338000
S          -7.599000      2.751000     -9.665000
C          -6.976000      0.879000    -11.364000
C          -6.330000     -0.605000    -13.190000
C          -5.889000      2.306000     -9.936000
C          -5.720000      1.245000    -10.741000
N          -6.769000     -0.980000    -14.378000
S          -4.756000     -1.233000    -12.681000
C          -5.751000     -1.564000    -15.145000
C          -4.603000     -1.828000    -14.301000
C         -16.601000      7.455000     -8.570000
H         -15.091000      5.652000     -6.849000
H         -13.625000      3.686000     -7.754000
H         -14.863000      4.790000    -11.746000
H         -11.692000      3.565000     -8.398000
H          -5.163000      2.843000     -9.338000
H          -4.709000      0.926000    -10.968000
H          -5.934000     -2.010000    -16.114000
H          -3.692000     -2.358000    -14.546000
H         -16.845000      7.591000     -7.509000
C         -17.911000      7.495000     -9.252000
H         -16.044000      8.389000     -8.712000
H         -17.762000      7.781000    -10.301000
H         -18.445000      8.408000     -8.962000
C         -18.742000      6.197000     -9.132000
H         -18.109000      5.370000     -9.477000
C         -20.013000      6.195000    -10.008000
H         -19.042000      5.927000     -8.112000
H         -19.798000      5.945000    -11.055000
H         -20.490000      7.169000     -9.844000
C         -21.056000      5.134000     -9.494000
H         -20.824000      4.099000     -9.772000
C         -22.394000      5.475000    -10.147000
H         -21.195000      5.216000     -8.408000
H         -22.625000      6.512000     -9.873000
H         -23.153000      4.724000     -9.897000
H         -22.287000      5.496000    -11.239000
$end

--------------------------------------------------------------

             Standard Nuclear Orientation (Angstroms)
    I     Atom           X                Y                Z
 ----------------------------------------------------------------
    1      C      11.6204964098     0.1887977303    -0.7896716849
    2      C      11.1313104656     1.4494444780    -0.5030972799
    3      N      10.8017819123    -0.8289483657    -0.7457575004
    4      C       9.7159084209     1.7115333678    -0.4287301789
    5      C       9.4873644007    -0.6482971809    -0.4258297669
    6      C       8.8195587086     0.6273185109    -0.3020955177
    7      C       7.3651763053     0.8465834801     0.0129532059
    8      C       6.7149237898    -0.1242776903     0.8469131893
    9      C       6.5661983358     2.0441520140    -0.2486740309
   10      N       5.3821652403    -0.1853568639     1.1670412625
   11      N       6.9665292950     3.1421041703    -0.8933112820
   12      C       5.2919239397     2.1113949210     0.2861027027
   13      C       4.6643797575     0.8810632183     0.8285058744
   14      S       5.7784113277     4.1697779637    -0.8951196603
   15      N       4.6819225056     3.2381007256    -0.0436445950
   16      C       3.2534560409     0.8431239310     1.3082765244
   17      S       2.2153479221     2.3075899457     1.3128400207
   18      C       2.5951913740    -0.3145633630     1.6805355169
   19      C       0.9064736306     1.3369600694     1.9825979862
   20      S       3.1139733672    -1.9959978502     1.7715756669
   21      C       1.3003437714    -0.0402083852     2.1351540736
   22      C      -0.4220900932     1.8108249327     2.2385911952
   23      C       1.4456051500    -2.3165761168     2.2053187553
   24      C       0.5917848701    -1.2301563509     2.4184032967
   25      N      -1.3747099952     1.0418696675     2.7034536724
   26      S      -0.7402241614     3.5287077750     2.0964635948
   27      C      -2.5507106338     1.7682622266     2.8035903195
   28      C      -2.3854577638     3.1038045433     2.5491827542
   29      C      13.0240465854    -0.0712117586    -1.2669608743
   30      H      11.8368958119     2.2740925779    -0.5447845730
   31      H       9.3898204136     2.7374624386    -0.2869234330
   32      H       8.8178278265    -1.5032196907    -0.3395785182
   33      H       7.1966837326    -1.0643964937     1.1100766231
   34      H       1.1617124014    -3.3292896617     2.4624027556
   35      H      -0.4757621684    -1.2871751523     2.5976187454
   36      H      -3.4461444166     1.2443391449     3.1115707491
   37      H      -3.1799318382     3.8378968168     2.5736874293
   38      H      13.3126506334    -1.1273423611    -1.1947400045
   39      C      14.0541527888     0.4217442271    -0.2404835945
   40      H      13.2358679369     0.3684228060    -2.2500698025
   41      H      13.9399809035    -0.0314969890     0.7518687525
   42      H      13.9307979588     1.4821096443     0.0093759019
   43      C      15.5454647115     0.2421051185    -0.7546980827
   44      H      15.8982123018    -0.7337177075    -0.3965291983
   45      C      16.6517757681     1.2040570529    -0.2212092617
   46      H      15.5681561622     0.4025590590    -1.8389903085
   47      H      17.6012023834     0.6919189080    -0.0258797382
   48      H      16.3600353644     1.6826010622     0.7211559371
   49      C      17.0412529075     2.2973900641    -1.3233591990
   50      H      17.8434290341     2.9118247101    -0.8978318466
   51      C      15.8241306268     3.1763114213    -1.8689887451
   52      H      17.4279652589     1.8005813306    -2.2220697417
   53      H      15.0332140220     2.6376276167    -2.4053810298
   54      H      16.0828444289     4.0025339298    -2.5421317724
   55      H      15.2813524295     3.6065494938    -1.0179940157
   56      C      -1.9455042029    -4.9931927746     0.8677431038
   57      C      -2.0379893427    -3.9260943277     1.8102256784
   58      N      -2.4971250421    -4.9480373816    -0.3595198836
   59      C      -2.9146453273    -2.8207495680     1.4588437681
   60      C      -3.2224133260    -3.8760793705    -0.7525808558
   61      C      -3.5359830111    -2.8141721840     0.1609245792
   62      C      -4.6810331752    -1.8230187138    -0.0563308467
   63      C      -5.4774051326    -1.3742796173     1.0846033884
   64      C      -5.1904387562    -1.4471270070    -1.3171402609
   65      N      -6.6759060570    -0.7986001751     0.9221142683
   66      N      -4.4851010379    -1.5757329749    -2.5068243400
   67      C      -6.3468157796    -0.6988363518    -1.4498477400
   68      C      -7.1408701656    -0.3967843185    -0.3299262243
   69      S      -5.5172352928    -1.0233536043    -3.6326639871
   70      N      -6.7027598134    -0.4746008557    -2.7369430306
   71      C      -8.3680784809     0.3664296758    -0.3662738464
   72      S      -8.9229392700     1.4869940879    -1.6205728152
   73      C      -9.2364446491     0.5184645046     0.6454922377
   74      C     -10.4161688951     1.9724940080    -0.8135008764
   75      S      -9.4374762847    -0.3832524597     2.1205182706
   76      C     -10.4245624905     1.2711292688     0.3690058044
   77      C     -11.5184783415     2.5318272682    -1.4108359483
   78      C     -11.0760649961     0.2968744402     2.3396539247
   79      C     -11.4084110356     1.2284981025     1.4319477708
   80      N     -11.4932997188     2.6317459648    -2.7276777350
   81      S     -12.7347901536     3.4915604366    -0.5561788115
   82      C     -12.6505755865     3.2500036504    -3.2217819751
   83      C     -13.3900712365     3.8369525231    -2.1224307098
   84      C      -1.1748800142    -6.3128305038     1.1549862470
   85      H      -1.7792208720    -4.0275498999     2.8593966109
   86      H      -3.2578783629    -2.0113849426     2.0965153030
   87      H      -3.6396414650    -3.9340642718    -1.7564167145
   88      H      -5.2697727065    -1.6680579986     2.1130609900
   89      H     -11.5941791020    -0.0061559084     3.2411967031
   90      H     -12.3950768425     1.6742831018     1.4883154914
   91      H     -12.7781096952     3.4975297794    -4.2676461473
   92      H     -14.2682609837     4.4680212368    -2.1595931431
   93      H      -0.5857152448    -6.3168162312     2.0805250028
   94      C      -0.2040581567    -6.6836001165     0.1048153964
   95      H      -1.8399782094    -7.1490177625     1.4023811928
   96      H      -0.7446199663    -7.1041857902    -0.7526801552
   97      H       0.2999883397    -7.6157757017     0.3873234630
   98      C       0.7456765344    -5.5435861567    -0.3289324428
   99      H       0.1211788934    -4.6869982375    -0.6116033346
  100      C       1.6157710434    -5.8979223619    -1.5537599405
  101      H       1.4145679366    -5.1688752226     0.4555903471
  102      H       1.0703829034    -5.7857789632    -2.4997565763
  103      H       2.0157858542    -6.8998777474    -1.3558343062
  104      C       2.8776622286    -4.9613731167    -1.6447112904
  105      H       2.6711499659    -3.9600041390    -2.0408752158
  106      C       3.8534667682    -5.6249453221    -2.6144594169
  107      H       3.3837692425    -4.8909965330    -0.6729377432
  108      H       4.0574219310    -6.6287289270    -2.2212333164
  109      H       4.7255283551    -4.9837713272    -2.7904892352
  110      H       3.3642407082    -5.8018766425    -3.5807446595
 ----------------------------------------------------------------

    9   -5663.4737315931      6.66E-06 Convergence criterion met
 Total energy in the final basis set = -5663.4737315931

                    Orbital Energies (a.u.)
 --------------------------------------------------------------

 Alpha MOs
 -- Occupied --
-88.992 -88.991 -88.935 -88.928 -88.923 -88.916 -88.916 -88.904
-14.385 -14.383 -14.381 -14.381 -14.354 -14.353 -14.347 -14.340
-14.332 -14.325 -10.268 -10.265 -10.265 -10.264 -10.260 -10.258
-10.255 -10.253 -10.248 -10.243 -10.243 -10.241 -10.240 -10.240
-10.238 -10.238 -10.235 -10.234 -10.233 -10.233 -10.230 -10.229
-10.229 -10.227 -10.227 -10.225 -10.224 -10.222 -10.221 -10.221
-10.220 -10.214 -10.212 -10.210 -10.209 -10.203 -10.195 -10.194
-10.188 -10.185 -10.183 -10.183 -10.183 -10.181 -10.177 -10.170
-10.169 -10.169 -10.167 -10.162  -8.048  -8.047  -7.996  -7.986
 -7.985  -7.975  -7.975  -7.965  -6.012  -6.012  -6.007  -6.007
 -6.006  -6.004  -5.959  -5.956  -5.953  -5.951  -5.949  -5.947
 -5.945  -5.943  -5.942  -5.940  -5.940  -5.936  -5.936  -5.932
 -5.931  -5.929  -5.925  -5.921  -1.051  -1.045  -0.969  -0.967
 -0.959  -0.950  -0.940  -0.934  -0.914  -0.909  -0.905  -0.902
 -0.845  -0.843  -0.834  -0.827  -0.816  -0.811  -0.805  -0.804
 -0.803  -0.798  -0.797  -0.790  -0.777  -0.775  -0.766  -0.760
 -0.746  -0.746  -0.739  -0.736  -0.725  -0.719  -0.708  -0.706
 -0.696  -0.693  -0.676  -0.673  -0.654  -0.649  -0.645  -0.644
 -0.632  -0.631  -0.626  -0.625  -0.612  -0.608  -0.602  -0.597
 -0.593  -0.592  -0.581  -0.578  -0.573  -0.569  -0.564  -0.562
 -0.550  -0.546  -0.540  -0.538  -0.522  -0.522  -0.518  -0.508
 -0.508  -0.503  -0.502  -0.497  -0.487  -0.483  -0.477  -0.475
 -0.474  -0.471  -0.469  -0.466  -0.465  -0.461  -0.455  -0.445
 -0.443  -0.442  -0.441  -0.438  -0.434  -0.432  -0.431  -0.428
 -0.427  -0.427  -0.425  -0.423  -0.419  -0.412  -0.412  -0.411
 -0.409  -0.409  -0.404  -0.403  -0.400  -0.397  -0.397  -0.397
 -0.396  -0.394  -0.391  -0.389  -0.386  -0.384  -0.382  -0.382
 -0.381  -0.378  -0.377  -0.374  -0.364  -0.361  -0.359  -0.355
 -0.352  -0.351  -0.350  -0.346  -0.344  -0.341  -0.340  -0.339
 -0.335  -0.333  -0.330  -0.328  -0.328  -0.320  -0.320  -0.314
 -0.313  -0.312  -0.310  -0.308  -0.307  -0.303  -0.301  -0.299
 -0.297  -0.295  -0.293  -0.290  -0.286  -0.285  -0.281  -0.281
 -0.279  -0.274  -0.267  -0.263  -0.256  -0.252  -0.250  -0.248
 -0.243  -0.240  -0.233  -0.229  -0.195  -0.189

          Ground-State Mulliken Net Atomic Charges

     Atom                 Charge (a.u.)
  ----------------------------------------
      1 C                     0.290436
      2 C                    -0.119730
      3 N                    -0.487625
      4 C                    -0.084140
      5 C                     0.065578
      6 C                     0.045291
      7 C                     0.045946
      8 C                     0.035782
      9 C                     0.205508
     10 N                    -0.494132
     11 N                    -0.539281
     12 C                     0.224181
     13 C                     0.301475
     14 S                     0.599450
     15 N                    -0.573777
     16 C                    -0.230246
     17 S                     0.338689
     18 C                    -0.103445
     19 C                    -0.228318
     20 S                     0.306992
     21 C                     0.130900
     22 C                     0.092725
     23 C                    -0.308107
     24 C                    -0.058196
     25 N                    -0.455821
     26 S                     0.256523
     27 C                     0.126904
     28 C                    -0.309032
     29 C                    -0.223020
     30 H                     0.083811
     31 H                     0.113878
     32 H                     0.097742
     33 H                     0.113183
     34 H                     0.120732
     35 H                     0.129542
     36 H                     0.115791
     37 H                     0.128303
     38 H                     0.127614
     39 C                    -0.205298
     40 H                     0.116215
     41 H                     0.103932
     42 H                     0.092804
     43 C                    -0.178096
     44 H                     0.097966
     45 C                    -0.185166
     46 H                     0.098498
     47 H                     0.094872
     48 H                     0.092918
     49 C                    -0.187728
     50 H                     0.094220
     51 C                    -0.328780
     52 H                     0.098923
     53 H                     0.101859
     54 H                     0.103125
     55 H                     0.100754
     56 C                     0.263090
     57 C                    -0.131435
     58 N                    -0.465635
     59 C                    -0.093968
     60 C                     0.087096
     61 C                     0.047018
     62 C                     0.007197
     63 C                     0.069642
     64 C                     0.195482
     65 N                    -0.519917
     66 N                    -0.531354
     67 C                     0.181510
     68 C                     0.285171
     69 S                     0.627183
     70 N                    -0.525815
     71 C                    -0.201191
     72 S                     0.336226
     73 C                    -0.106751
     74 C                    -0.223237
     75 S                     0.263757
     76 C                     0.092058
     77 C                     0.073966
     78 C                    -0.304932
     79 C                    -0.053673
     80 N                    -0.422748
     81 S                     0.284674
     82 C                     0.107419
     83 C                    -0.312579
     84 C                    -0.217216
     85 H                     0.102880
     86 H                     0.109550
     87 H                     0.122405
     88 H                     0.117517
     89 H                     0.129389
     90 H                     0.116928
     91 H                     0.127320
     92 H                     0.134229
     93 H                     0.090742
     94 C                    -0.175072
     95 H                     0.110729
     96 H                     0.110714
     97 H                     0.080450
     98 C                    -0.176783
     99 H                     0.112227
    100 C                    -0.172402
    101 H                     0.080321
    102 H                     0.101246
    103 H                     0.088280
    104 C                    -0.185233
    105 H                     0.098358
    106 C                    -0.312202
    107 H                     0.093710
    108 H                     0.098245
    109 H                     0.094943
    110 H                     0.097343
  ----------------------------------------
  Sum of atomic charges =     0.000000

                    Cartesian Multipole Moments
 -----------------------------------------------------------------
    Charge (ESU x 10^10)
                 0.0000
    Dipole Moment (Debye)
         X      -3.4351      Y       3.9472      Z       1.2090
       Tot       5.3705
    Quadrupole Moments (Debye-Ang)
        XX    -371.7841     XY      -6.4048     YY    -429.7650
        XZ      -6.0678     YZ     -12.6192     ZZ    -440.1298

 Total job time:  82.20s(wall), 964.85s(cpu)
        *  Thank you very much for using Q-Chem.  Have a nice day.  *
