 Q-Chem 4.4, Q-Chem, Inc., Pleasanton, CA (2016)
 Q-Chem 4.4.2 for Intel X86 Linux

User input:
--------------------------------------------------------------
$comment
SP
$end

$rem
MEM_STATIC 5000
MEM_TOTAL 20000
JOBTYPE SP
EXCHANGE B3LYP
BASIS 6-31g(d,p)
$end

$molecule
0 1
C          -0.137000    -18.893000     -4.765000
C           0.444000    -18.403000     -3.564000
N          -1.057000    -19.859000     -4.703000
C           0.141000    -18.957000     -2.328000
C          -1.411000    -20.460000     -3.522000
C          -0.875000    -20.013000     -2.264000
C          -1.379000    -20.588000     -0.928000
C          -2.754000    -20.602000     -0.646000
C          -0.522000    -20.910000      0.106000
N          -3.244000    -21.031000      0.493000
N           0.849000    -20.855000     -0.032000
C          -0.997000    -21.214000      1.380000
C          -2.426000    -21.240000      1.562000
S           1.364000    -21.297000      1.468000
N          -0.101000    -21.433000      2.273000
C          -3.296000    -21.572000      2.639000
S          -5.022000    -21.047000      2.797000
C          -2.988000    -22.295000      3.752000
C          -5.151000    -21.727000      4.392000
S          -1.498000    -23.147000      4.159000
C          -4.015000    -22.357000      4.715000
C          -6.261000    -21.585000      5.256000
C          -2.266000    -23.541000      5.772000
C          -3.506000    -23.008000      5.902000
N          -7.450000    -21.650000      4.698000
S          -6.203000    -21.462000      6.979000
C          -8.371000    -21.446000      5.703000
C          -7.910000    -21.252000      6.934000
C           0.276000    -18.243000     -6.050000
H           1.251000    -17.685000     -3.674000
H           0.685000    -18.563000     -1.476000
H          -2.041000    -21.342000     -3.633000
H          -3.464000    -20.310000     -1.418000
H          -1.657000    -24.139000      6.437000
H          -4.126000    -23.153000      6.781000
H          -9.405000    -21.505000      5.388000
H          -8.390000    -21.019000      7.875000
H           0.803000    -17.310000     -5.814000
C          -0.841000    -18.198000     -7.195000
H           1.071000    -18.816000     -6.543000
H          -1.806000    -18.122000     -6.679000
H          -0.829000    -19.169000     -7.705000
C          -0.608000    -17.068000     -8.163000
H          -0.836000    -16.108000     -7.685000
C          -1.381000    -17.299000     -9.477000
H           0.457000    -17.037000     -8.424000
H          -2.467000    -17.302000     -9.321000
H          -1.081000    -18.277000     -9.875000
C          -0.930000    -16.290000    -10.570000
H          -1.262000    -15.274000    -10.322000
C          -1.519000    -16.782000    -11.956000
H           0.149000    -16.196000    -10.747000
H          -1.209000    -17.803000    -12.208000
H          -1.124000    -16.184000    -12.786000
H          -2.616000    -16.773000    -11.966000
C          10.431000    -16.374000     -9.547000
C          11.006000    -17.363000     -8.768000
N           9.123000    -16.105000     -9.428000
C          10.253000    -18.102000     -7.832000
C           8.354000    -16.776000     -8.545000
C           8.884000    -17.796000     -7.692000
C           7.963000    -18.571000     -6.845000
C           8.252000    -19.928000     -6.556000
C           6.703000    -18.158000     -6.273000
N           7.536000    -20.755000     -5.813000
N           6.274000    -16.874000     -6.293000
C           5.949000    -19.003000     -5.472000
C           6.438000    -20.289000     -5.241000
S           4.944000    -16.891000     -5.380000
N           4.926000    -18.462000     -4.877000
C           5.808000    -21.365000     -4.414000
S           6.772000    -22.552000     -3.515000
C           4.456000    -21.545000     -4.182000
C           5.293000    -23.299000     -2.847000
S           3.069000    -20.868000     -4.955000
C           4.216000    -22.579000     -3.286000
C           5.263000    -24.445000     -1.969000
C           2.029000    -21.875000     -3.914000
C           2.792000    -22.745000     -3.088000
N           4.140000    -24.815000     -1.425000
S           6.647000    -25.349000     -1.397000
C           4.350000    -25.943000     -0.674000
C           5.650000    -26.311000     -0.522000
C          11.185000    -15.569000    -10.614000
H          12.030000    -17.670000     -8.955000
H          10.681000    -18.937000     -7.286000
H           7.278000    -16.606000     -8.546000
H           9.081000    -20.400000     -7.080000
H           0.949000    -21.808000     -3.898000
H           2.376000    -23.463000     -2.391000
H           3.566000    -26.477000     -0.154000
H           6.134000    -27.077000      0.069000
H          11.073000    -16.201000    -11.504000
C          12.673000    -15.365000    -10.195000
H          10.650000    -14.631000    -10.808000
H          13.162000    -16.294000     -9.873000
H          12.661000    -14.606000     -9.404000
C          13.658000    -14.548000    -11.150000
H          13.710000    -15.137000    -12.074000
C          15.129000    -14.315000    -10.775000
H          13.086000    -13.635000    -11.360000
H          15.669000    -15.198000    -10.411000
H          15.067000    -13.551000     -9.988000
C          16.007000    -13.616000    -11.874000
H          17.017000    -13.543000    -11.452000
C          15.621000    -12.178000    -12.209000
H          16.022000    -14.158000    -12.827000
H          15.660000    -11.622000    -11.265000
H          14.565000    -12.137000    -12.506000
H          16.356000    -11.821000    -12.940000
$end

--------------------------------------------------------------

             Standard Nuclear Orientation (Angstroms)
    I     Atom           X                Y                Z
 ----------------------------------------------------------------
    1      C      -0.4629979600     3.3648053490    -0.7571247271
    2      C      -0.6940810917     2.6449744477     0.4464142460
    3      N      -1.4202311356     3.4140530297    -1.6870060708
    4      C      -1.8604213464     1.9209487514     0.6510070156
    5      C      -2.6000193555     2.7257032918    -1.5622968304
    6      C      -2.9117176026     1.9835339841    -0.3699470825
    7      C      -4.2916524645     1.3316611200    -0.1690029463
    8      C      -5.4572964190     2.0985722716    -0.3221905989
    9      C      -4.4381698272     0.0640276384     0.3591324707
   10      N      -6.6601144339     1.6167644956    -0.1159090192
   11      N      -3.3575053557    -0.7498966510     0.6263431576
   12      C      -5.6838356114    -0.4266186785     0.7447487901
   13      C      -6.8264361647     0.4198552710     0.5128289151
   14      S      -4.0818732193    -2.0897394114     1.2514044149
   15      N      -5.6833513848    -1.5926658767     1.2819263186
   16      C      -8.2334366719     0.2758567990     0.6761292909
   17      S      -9.4226357373     1.6360916374     0.7995463373
   18      C      -8.9308059601    -0.8867314846     0.8118737517
   19      C     -10.7316834060     0.5464394412     1.1490006151
   20      S      -8.3641912674    -2.5536396392     0.7022471385
   21      C     -10.3026010764    -0.7200162565     1.0881457036
   22      C     -12.0431779075     0.9306391806     1.5111231535
   23      C     -10.0624401672    -3.0688514320     1.1464728500
   24      C     -10.8852217596    -2.0139813476     1.3675351856
   25      N     -12.5462487162     1.9671590067     0.8772016982
   26      S     -13.0842396865     0.0948983245     2.6088251138
   27      C     -13.7976369941     2.1888310572     1.4108409770
   28      C     -14.2138534273     1.3706873634     2.3715296763
   29      C       0.8394368805     4.0930665274    -0.8897638700
   30      H       0.1465250823     2.5583711113     1.1281430208
   31      H      -1.9178888353     1.3480299573     1.5705381695
   32      H      -3.2159243842     2.7148780120    -2.4610119181
   33      H      -5.3838780135     3.1201956841    -0.6913021550
   34      H     -10.2214584032    -4.1381900543     1.1904968367
   35      H     -11.9352692059    -2.1220571780     1.6200940408
   36      H     -14.3460464273     3.0033979895     0.9552207332
   37      H     -15.1018675429     1.3466296156     2.9887995973
   38      H       1.3148713015     4.1378958926     0.0980956541
   39      C       0.7975705361     5.4369278980    -1.7575327481
   40      H       1.5695135719     3.4948726342    -1.4488301370
   41      H      -0.2032068054     5.8628092991    -1.6149608544
   42      H       0.8731233857     5.1495424839    -2.8133672004
   43      C       1.8966717280     6.3906658664    -1.3694947890
   44      H       1.6850280778     6.8319744718    -0.3884128963
   45      C       2.1344044381     7.4379643763    -2.4759011292
   46      H       2.8325514943     5.8291458451    -1.2593524776
   47      H       1.2591516328     8.0816241899    -2.6287918454
   48      H       2.3406416417     6.8985971372    -3.4094091352
   49      C       3.4368993884     8.2424741322    -2.2068250112
   50      H       3.3153055747     8.8994137895    -1.3364060138
   51      C       3.7815380260     9.0593995225    -3.5197751687
   52      H       4.3454355350     7.6641967509    -1.9957247019
   53      H       3.8886986275     8.4163698736    -4.4012934477
   54      H       4.7624252065     9.5425802157    -3.4365540370
   55      H       3.0091963332     9.8003345939    -3.7608011624
   56      C      10.8427232217     0.1125711526     0.8237453793
   57      C      10.4796707446    -1.2069323965     0.6171291102
   58      N       9.9070659032     1.0727055978     0.8151879660
   59      C       9.1369599429    -1.5825268571     0.4043322488
   60      C       8.6057148492     0.7718718890     0.6221192894
   61      C       8.1542922710    -0.5718870744     0.4235279898
   62      C       6.7398074310    -0.8107134741     0.0941807747
   63      C       6.3906025660    -1.8965901228    -0.7469011869
   64      C       5.5840369809    -0.0305600444     0.4695583082
   65      N       5.1753608147    -2.2484782369    -1.1316039829
   66      N       5.6395582524     0.9733166122     1.3763361459
   67      C       4.2992953345    -0.3961680139     0.0955105646
   68      C       4.1493312314    -1.5470448864    -0.6786155183
   69      S       4.0965504357     1.3918384150     1.5924943708
   70      N       3.3321180898     0.2851000801     0.6374302647
   71      C       2.8734389570    -2.1356993257    -1.1926095409
   72      S       2.6560399477    -3.8838145018    -1.4006888571
   73      C       1.7115493099    -1.4505452972    -1.5003503493
   74      C       0.9676616308    -3.6455407350    -1.9338663802
   75      S       1.4078460984     0.2349640246    -1.7158722400
   76      C       0.6801115648    -2.3105427852    -1.8554735656
   77      C       0.0670732424    -4.6981854590    -2.3412723691
   78      C      -0.2799061423    -0.1498775592    -2.1433290561
   79      C      -0.5072429342    -1.5526268691    -2.1875710781
   80      N      -1.1852701830    -4.4270013644    -2.5694392632
   81      S       0.4372557301    -6.4059631160    -2.4207481513
   82      C      -1.8278187942    -5.5658860419    -2.9824259137
   83      C      -1.1001815574    -6.7113148087    -2.8983724080
   84      C      12.2888667709     0.5896507621     1.0137292773
   85      H      11.2468010479    -1.9646501021     0.4939667122
   86      H       8.8618442767    -2.6022053563     0.1531507835
   87      H       7.8861482727     1.5830703332     0.5179174367
   88      H       7.1923482361    -2.4461869612    -1.2365420713
   89      H      -1.0412530451     0.5986592083    -2.3199320041
   90      H      -1.4494949775    -2.0212181133    -2.4463612109
   91      H      -2.8676541806    -5.5989648579    -3.2788380611
   92      H      -1.3458487408    -7.7528504440    -3.0569414957
   93      H      12.6140787502     0.7625637400    -0.0199081207
   94      C      13.1325694759    -0.4996798013     1.7436920635
   95      H      12.2877685426     1.5607209829     1.5243430454
   96      H      13.0204622519    -1.4993905232     1.3034007475
   97      H      12.8175841058    -0.4702462550     2.7933700537
   98      C      14.6739542727    -0.2261253667     2.0583980844
   99      H      15.1496368584    -0.1217116201     1.0754307161
  100      C      15.5419037325    -1.2660509419     2.7822582458
  101      H      14.6500886632     0.7638456282     2.5319388557
  102      H      15.4513914076    -2.2954632441     2.4136082340
  103      H      15.1952552356    -1.1985365265     3.8225397574
  104      C      17.0683416902    -0.9139789763     2.8976640175
  105      H      17.5341674124    -1.7585468623     3.4203728107
  106      C      17.4002115785     0.3042845267     3.7548462703
  107      H      17.5491942157    -0.7444385454     1.9269761732
  108      H      16.9674398414     0.1110001430     4.7433515918
  109      H      16.8515886526     1.1796138977     3.3835817048
  110      H      18.4937966187     0.3783350794     3.7798117535
 ----------------------------------------------------------------

   10   -5663.4995206341      3.18E-06 Convergence criterion met
 Total energy in the final basis set = -5663.4995206341

                    Orbital Energies (a.u.)
 --------------------------------------------------------------

 Alpha MOs
 -- Occupied --
-88.990 -88.984 -88.929 -88.920 -88.919 -88.918 -88.907 -88.904
-14.388 -14.388 -14.387 -14.386 -14.345 -14.342 -14.341 -14.338
-14.328 -14.327 -10.264 -10.262 -10.260 -10.260 -10.258 -10.256
-10.253 -10.252 -10.235 -10.235 -10.233 -10.233 -10.233 -10.232
-10.232 -10.232 -10.231 -10.230 -10.228 -10.227 -10.227 -10.227
-10.226 -10.224 -10.223 -10.220 -10.220 -10.219 -10.217 -10.217
-10.215 -10.214 -10.207 -10.206 -10.199 -10.199 -10.195 -10.194
-10.190 -10.190 -10.188 -10.185 -10.182 -10.180 -10.180 -10.177
-10.177 -10.174 -10.172 -10.170  -8.046  -8.040  -7.991  -7.982
 -7.978  -7.978  -7.967  -7.964  -6.011  -6.005  -6.005  -6.004
 -5.999  -5.997  -5.955  -5.952  -5.948  -5.945  -5.943  -5.942
 -5.942  -5.939  -5.939  -5.938  -5.935  -5.934  -5.932  -5.929
 -5.928  -5.925  -5.923  -5.920  -1.052  -1.040  -0.980  -0.979
 -0.969  -0.962  -0.938  -0.930  -0.919  -0.916  -0.911  -0.904
 -0.842  -0.838  -0.831  -0.828  -0.823  -0.817  -0.810  -0.810
 -0.803  -0.803  -0.791  -0.791  -0.786  -0.782  -0.767  -0.764
 -0.748  -0.747  -0.740  -0.736  -0.723  -0.716  -0.712  -0.711
 -0.692  -0.691  -0.677  -0.675  -0.659  -0.654  -0.650  -0.645
 -0.639  -0.638  -0.629  -0.621  -0.611  -0.610  -0.601  -0.594
 -0.593  -0.591  -0.582  -0.581  -0.577  -0.576  -0.572  -0.558
 -0.555  -0.550  -0.544  -0.544  -0.526  -0.523  -0.516  -0.515
 -0.509  -0.505  -0.500  -0.499  -0.487  -0.483  -0.479  -0.479
 -0.475  -0.474  -0.472  -0.468  -0.467  -0.461  -0.449  -0.447
 -0.444  -0.443  -0.442  -0.440  -0.439  -0.434  -0.431  -0.430
 -0.426  -0.426  -0.424  -0.422  -0.420  -0.417  -0.416  -0.415
 -0.413  -0.413  -0.409  -0.402  -0.400  -0.399  -0.398  -0.394
 -0.393  -0.390  -0.387  -0.385  -0.384  -0.383  -0.383  -0.380
 -0.377  -0.375  -0.372  -0.371  -0.369  -0.366  -0.359  -0.357
 -0.353  -0.351  -0.349  -0.347  -0.344  -0.344  -0.342  -0.340
 -0.340  -0.339  -0.334  -0.332  -0.332  -0.332  -0.324  -0.321
 -0.318  -0.317  -0.316  -0.314  -0.309  -0.308  -0.302  -0.298
 -0.294  -0.294  -0.293  -0.291  -0.290  -0.286  -0.280  -0.280
 -0.275  -0.269  -0.269  -0.261  -0.256  -0.247  -0.246  -0.243
 -0.243  -0.239  -0.237  -0.226  -0.196  -0.187

          Ground-State Mulliken Net Atomic Charges

     Atom                 Charge (a.u.)
  ----------------------------------------
      1 C                     0.308474
      2 C                    -0.115621
      3 N                    -0.501003
      4 C                    -0.043260
      5 C                     0.040359
      6 C                     0.009398
      7 C                     0.000105
      8 C                     0.082232
      9 C                     0.204997
     10 N                    -0.492243
     11 N                    -0.532920
     12 C                     0.279719
     13 C                     0.264879
     14 S                     0.589531
     15 N                    -0.587777
     16 C                    -0.213676
     17 S                     0.340874
     18 C                    -0.117756
     19 C                    -0.195596
     20 S                     0.266064
     21 C                     0.144508
     22 C                     0.023201
     23 C                    -0.304904
     24 C                    -0.062894
     25 N                    -0.413113
     26 S                     0.275279
     27 C                     0.123102
     28 C                    -0.300928
     29 C                    -0.257764
     30 H                     0.088219
     31 H                     0.111047
     32 H                     0.115056
     33 H                     0.113490
     34 H                     0.133139
     35 H                     0.109217
     36 H                     0.110074
     37 H                     0.139401
     38 H                     0.097596
     39 C                    -0.170970
     40 H                     0.132047
     41 H                     0.107557
     42 H                     0.107384
     43 C                    -0.175441
     44 H                     0.092957
     45 C                    -0.168290
     46 H                     0.087790
     47 H                     0.097914
     48 H                     0.094910
     49 C                    -0.180416
     50 H                     0.093969
     51 C                    -0.326477
     52 H                     0.094960
     53 H                     0.102104
     54 H                     0.094832
     55 H                     0.103187
     56 C                     0.278011
     57 C                    -0.115563
     58 N                    -0.496748
     59 C                    -0.085597
     60 C                     0.090662
     61 C                     0.038199
     62 C                     0.059037
     63 C                     0.042902
     64 C                     0.177917
     65 N                    -0.487225
     66 N                    -0.526846
     67 C                     0.256135
     68 C                     0.255496
     69 S                     0.590742
     70 N                    -0.558648
     71 C                    -0.222850
     72 S                     0.296027
     73 C                    -0.099475
     74 C                    -0.229584
     75 S                     0.268501
     76 C                     0.148038
     77 C                     0.067931
     78 C                    -0.302020
     79 C                    -0.059737
     80 N                    -0.443278
     81 S                     0.268701
     82 C                     0.112471
     83 C                    -0.300704
     84 C                    -0.219968
     85 H                     0.086028
     86 H                     0.103915
     87 H                     0.119900
     88 H                     0.102381
     89 H                     0.137825
     90 H                     0.126611
     91 H                     0.107087
     92 H                     0.140503
     93 H                     0.121329
     94 C                    -0.196456
     95 H                     0.124210
     96 H                     0.094678
     97 H                     0.107449
     98 C                    -0.186771
     99 H                     0.086013
    100 C                    -0.175805
    101 H                     0.093616
    102 H                     0.093011
    103 H                     0.088809
    104 C                    -0.178587
    105 H                     0.092565
    106 C                    -0.313022
    107 H                     0.092536
    108 H                     0.099213
    109 H                     0.106740
    110 H                     0.105165
  ----------------------------------------
  Sum of atomic charges =     0.000000

                    Cartesian Multipole Moments
 -----------------------------------------------------------------
    Charge (ESU x 10^10)
                 0.0000
    Dipole Moment (Debye)
         X      -1.3280      Y      -3.7477      Z       2.8850
       Tot       4.9125
    Quadrupole Moments (Debye-Ang)
        XX    -368.8943     XY       8.4392     YY    -425.2291
        XZ     -18.0813     YZ       6.2413     ZZ    -448.1401

 Total job time:  90.26s(wall), 1065.56s(cpu)
        *  Thank you very much for using Q-Chem.  Have a nice day.  *
