 Q-Chem 4.4, Q-Chem, Inc., Pleasanton, CA (2016)
 Q-Chem 4.4.2 for Intel X86 Linux

User input:
--------------------------------------------------------------
$comment
SP
$end

$rem
MEM_STATIC 5000
MEM_TOTAL 20000
JOBTYPE SP
EXCHANGE B3LYP
BASIS 6-31g(d,p)
$end

$molecule
0 1
C          14.990000    -25.022000    -11.140000
C          15.272000    -24.067000    -10.156000
N          14.196000    -26.066000    -10.919000
C          14.832000    -24.300000     -8.847000
C          13.778000    -26.331000     -9.661000
C          14.086000    -25.470000     -8.546000
C          13.401000    -25.726000     -7.209000
C          12.225000    -26.375000     -7.123000
C          14.062000    -25.371000     -5.956000
N          11.540000    -26.551000     -5.987000
N          15.268000    -24.775000     -5.769000
C          13.327000    -25.564000     -4.776000
C          12.071000    -26.187000     -4.809000
S          15.424000    -24.570000     -4.170000
N          14.028000    -25.257000     -3.668000
C          11.278000    -26.421000     -3.619000
S          11.699000    -26.248000     -1.886000
C           9.999000    -26.943000     -3.675000
C          10.206000    -27.014000     -1.355000
S           8.884000    -27.267000     -5.032000
C           9.452000    -27.275000     -2.428000
C           9.828000    -27.135000     -0.028000
C           7.680000    -27.851000     -3.875000
C           8.096000    -27.703000     -2.577000
N           8.915000    -28.027000      0.232000
S          10.644000    -26.508000      1.423000
C           8.621000    -28.135000      1.578000
C           9.543000    -27.405000      2.403000
C          15.604000    -24.871000    -12.522000
H          15.795000    -23.167000    -10.463000
H          15.010000    -23.536000     -8.095000
H          13.134000    -27.209000     -9.647000
H          11.795000    -26.756000     -8.049000
H           6.889000    -28.429000     -4.332000
H           7.460000    -28.068000     -1.779000
H           7.836000    -28.825000      1.857000
H           9.478000    -27.383000      3.482000
H          16.610000    -24.476000    -12.333000
C          14.859000    -23.802000    -13.336000
H          15.697000    -25.842000    -13.025000
H          15.205000    -23.801000    -14.378000
H          15.073000    -22.786000    -12.982000
C          13.326000    -23.926000    -13.550000
H          12.811000    -23.634000    -12.626000
C          12.821000    -25.296000    -14.088000
H          13.113000    -23.118000    -14.261000
H          11.750000    -25.221000    -14.315000
H          12.932000    -26.077000    -13.326000
C          13.602000    -25.667000    -15.355000
H          13.282000    -25.098000    -16.235000
C          13.272000    -27.166000    -15.746000
H          14.693000    -25.691000    -15.244000
H          13.702000    -27.907000    -15.060000
H          13.814000    -27.390000    -16.673000
H          12.199000    -27.381000    -15.812000
C          10.431000    -16.374000     -9.547000
C          11.006000    -17.363000     -8.768000
N           9.123000    -16.105000     -9.428000
C          10.253000    -18.102000     -7.832000
C           8.354000    -16.776000     -8.545000
C           8.884000    -17.796000     -7.692000
C           7.963000    -18.571000     -6.845000
C           8.252000    -19.928000     -6.556000
C           6.703000    -18.158000     -6.273000
N           7.536000    -20.755000     -5.813000
N           6.274000    -16.874000     -6.293000
C           5.949000    -19.003000     -5.472000
C           6.438000    -20.289000     -5.241000
S           4.944000    -16.891000     -5.380000
N           4.926000    -18.462000     -4.877000
C           5.808000    -21.365000     -4.414000
S           6.772000    -22.552000     -3.515000
C           4.456000    -21.545000     -4.182000
C           5.293000    -23.299000     -2.847000
S           3.069000    -20.868000     -4.955000
C           4.216000    -22.579000     -3.286000
C           5.263000    -24.445000     -1.969000
C           2.029000    -21.875000     -3.914000
C           2.792000    -22.745000     -3.088000
N           4.140000    -24.815000     -1.425000
S           6.647000    -25.349000     -1.397000
C           4.350000    -25.943000     -0.674000
C           5.650000    -26.311000     -0.522000
C          11.185000    -15.569000    -10.614000
H          12.030000    -17.670000     -8.955000
H          10.681000    -18.937000     -7.286000
H           7.278000    -16.606000     -8.546000
H           9.081000    -20.400000     -7.080000
H           0.949000    -21.808000     -3.898000
H           2.376000    -23.463000     -2.391000
H           3.566000    -26.477000     -0.154000
H           6.134000    -27.077000      0.069000
H          11.073000    -16.201000    -11.504000
C          12.673000    -15.365000    -10.195000
H          10.650000    -14.631000    -10.808000
H          13.162000    -16.294000     -9.873000
H          12.661000    -14.606000     -9.404000
C          13.658000    -14.548000    -11.150000
H          13.710000    -15.137000    -12.074000
C          15.129000    -14.315000    -10.775000
H          13.086000    -13.635000    -11.360000
H          15.669000    -15.198000    -10.411000
H          15.067000    -13.551000     -9.988000
C          16.007000    -13.616000    -11.874000
H          17.017000    -13.543000    -11.452000
C          15.621000    -12.178000    -12.209000
H          16.022000    -14.158000    -12.827000
H          15.660000    -11.622000    -11.265000
H          14.565000    -12.137000    -12.506000
H          16.356000    -11.821000    -12.940000
$end

--------------------------------------------------------------

             Standard Nuclear Orientation (Angstroms)
    I     Atom           X                Y                Z
 ----------------------------------------------------------------
    1      C      -5.0077489447     5.5660076231    -1.1354445633
    2      C      -4.8773443984     4.8954758030     0.0865156375
    3      N      -3.9687835283     5.8288783835    -1.9232661337
    4      C      -3.5915864431     4.6303466137     0.5742686420
    5      C      -2.7149152241     5.6084570868    -1.4685775285
    6      C      -2.4522158565     5.0097632473    -0.1832897285
    7      C      -1.0241910402     4.6028855949     0.1595304865
    8      C      -0.1099654366     4.3387742399    -0.7923149516
    9      C      -0.5664085026     4.5969113889     1.5463810398
   10      N       1.1290294836     3.8959625194    -0.5483756806
   11      N      -1.2649894616     4.8865097726     2.6745381298
   12      C       0.7361710558     4.1297826625     1.7807978631
   13      C       1.5850206215     3.8098010616     0.7113025662
   14      S      -0.2488747847     4.6306449599     3.9095305027
   15      N       1.0920848816     4.2038423050     3.0773912912
   16      C       2.9414300304     3.3357790824     0.8988170414
   17      S       3.9539429424     3.2561223995     2.3749374349
   18      C       3.7333984145     2.9271004656    -0.1581734348
   19      C       5.3992251826     2.8242098182     1.4680875200
   20      S       3.3868975638     2.6337195021    -1.8854588110
   21      C       5.0702909957     2.6770570004     0.1804096298
   22      C       6.6149216618     2.5109523858     2.0532420736
   23      C       5.0771075075     2.1690662349    -2.1233846139
   24      C       5.7811039350     2.1593847235    -0.9469241181
   25      N       7.6608778697     2.5775238842     1.2796938548
   26      S       7.0151874044     2.3717189705     3.7808957979
   27      C       8.8465064462     2.3054126101     1.9354806593
   28      C       8.6829734674     2.2329940556     3.3608302718
   29      C      -6.3852024540     6.0133174387    -1.5961578786
   30      H      -5.7870057477     4.5806729724     0.5877076241
   31      H      -3.4920323150     4.0680330571     1.4988098469
   32      H      -1.9794960118     5.8660110269    -2.2292617929
   33      H      -0.4156718478     4.4707590380    -1.8299375242
   34      H       5.3797551693     2.1632239764    -3.1611631360
   35      H       6.8407810772     1.9337397167    -0.9732620251
   36      H       9.7488317263     2.2971435191     1.3389014852
   37      H       9.5028615045     2.0406841043     4.0388793034
   38      H      -6.8927061217     6.3286007278    -0.6759304747
   39      C      -7.1858294062     4.8265860667    -2.1538738761
   40      H      -6.3187670034     6.8746493279    -2.2730572119
   41      H      -8.1158652635     5.1754496919    -2.6216435579
   42      H      -7.5231927799     4.1447197087    -1.3635497503
   43      C      -6.5946725878     3.9728909187    -3.3084297260
   44      H      -5.8218018382     3.3080630596    -2.9023020094
   45      C      -6.0876065197     4.7622592113    -4.5498606347
   46      H      -7.4282138564     3.3104307641    -3.5732117066
   47      H      -5.8123931319     4.0523653980    -5.3401158877
   48      H      -5.1837593049     5.3329515164    -4.3043071675
   49      C      -7.1955748347     5.6990678406    -5.0475420639
   50      H      -7.9879931488     5.1716439344    -5.5901821274
   51      C      -6.5938857319     6.6796865428    -6.1361830444
   52      H      -7.5912613156     6.3972609842    -4.2997877305
   53      H      -5.9096421447     7.4322024563    -5.7237421235
   54      H      -7.4148609861     7.3102589858    -6.4990149977
   55      H      -6.0542398713     6.1693913521    -6.9425893709
   56      C      -6.0683606764    -4.1183489933     0.6529551908
   57      C      -5.2570775600    -3.0962967982     1.1142750533
   58      N      -5.5259207288    -5.1697543276     0.0223271497
   59      C      -3.8567103564    -3.1286214414     0.9494939487
   60      C      -4.1914889901    -5.2574565101    -0.1590323328
   61      C      -3.2896315361    -4.2496098344     0.3098036844
   62      C      -1.8620544822    -4.3502655163    -0.0339508629
   63      C      -1.1036996816    -3.1688034009    -0.2276936467
   64      C      -1.0760990328    -5.5371875601    -0.2765268175
   65      N       0.1803378762    -3.0865621717    -0.5328459536
   66      N      -1.5354935155    -6.7855263845    -0.0241305244
   67      C       0.2770300898    -5.4726128599    -0.5748784315
   68      C       0.8672218825    -4.2108464035    -0.6516707315
   69      S      -0.2513549581    -7.7318387171    -0.2654583816
   70      N       0.9100905418    -6.6091976531    -0.6002648812
   71      C       2.2986109380    -3.8947031754    -0.9513102337
   72      S       3.1225766035    -2.4894101304    -0.2493857080
   73      C       3.1675992029    -4.6461319966    -1.7222461079
   74      C       4.6539206037    -2.9439353584    -1.0494271883
   75      S       2.8803548277    -5.9475906488    -2.8192069300
   76      C       4.4542230994    -4.1225799437    -1.7142338130
   77      C       5.8884275075    -2.1993020258    -0.9681012736
   78      C       4.6206505475    -5.9713275266    -3.2066825657
   79      C       5.3233454215    -4.9262250763    -2.5468903390
   80      N       6.9806380926    -2.6992045245    -1.4692385101
   81      S       6.1403506562    -0.7018380037    -0.0997740141
   82      C       8.0040565553    -1.7998783894    -1.3133149622
   83      C       7.7156738180    -0.7118608288    -0.5507002596
   84      C      -7.5992545834    -4.1193661326     0.7596923015
   85      H      -5.7036082589    -2.1880707338     1.5061037798
   86      H      -3.2289257417    -2.2883606693     1.2294462882
   87      H      -3.7932776062    -6.0710058094    -0.7642118360
   88      H      -1.6311149329    -2.2169652639    -0.2486295946
   89      H       5.0844061906    -6.7110781429    -3.8460922380
   90      H       6.3843574119    -4.7305317954    -2.6486090491
   91      H       9.0075547935    -1.9563184561    -1.6857794458
   92      H       8.3174913585     0.1058517278    -0.1772637554
   93      H      -7.8964880648    -3.5984662074    -0.1592111349
   94      C      -8.0576029241    -3.3807227100     2.0541588683
   95      H      -7.9685868322    -5.1499071998     0.6870025583
   96      H      -7.5769811489    -2.4022089790     2.1859146558
   97      H      -7.8412482584    -4.0648918457     2.8830190811
   98      C      -9.6150072725    -3.2579297057     2.3845413341
   99      H     -10.0325069037    -2.6612736809     1.5641166598
  100      C     -10.1128003030    -2.5467122793     3.6514773511
  101      H      -9.9671990998    -4.2909642473     2.2676929164
  102      H      -9.6467137544    -1.5760333818     3.8620261748
  103      H      -9.8794394864    -3.2659852584     4.4484077814
  104      C     -11.6705598502    -2.3841605986     3.7708429419
  105      H     -11.8469547177    -1.8500450067     4.7127125641
  106      C     -12.4597174284    -3.6832777270     3.9071881054
  107      H     -12.1163099034    -1.8432245198     2.9276982042
  108      H     -12.0518577275    -4.1994220251     4.7841365234
  109      H     -12.2263722691    -4.3490277193     3.0661453095
  110      H     -13.5101180593    -3.3969235896     4.0363965514
 ----------------------------------------------------------------

   10   -5663.5187323291      3.42E-06 Convergence criterion met
 Total energy in the final basis set = -5663.5187323291

                    Orbital Energies (a.u.)
 --------------------------------------------------------------

 Alpha MOs
 -- Occupied --
-88.992 -88.987 -88.936 -88.926 -88.917 -88.912 -88.905 -88.904
-14.388 -14.385 -14.385 -14.384 -14.348 -14.348 -14.342 -14.334
-14.328 -14.326 -10.271 -10.263 -10.260 -10.258 -10.257 -10.254
-10.253 -10.251 -10.244 -10.244 -10.243 -10.239 -10.234 -10.233
-10.232 -10.232 -10.231 -10.230 -10.230 -10.227 -10.226 -10.225
-10.225 -10.224 -10.223 -10.220 -10.219 -10.219 -10.216 -10.214
-10.214 -10.212 -10.207 -10.199 -10.199 -10.198 -10.195 -10.194
-10.193 -10.190 -10.186 -10.185 -10.183 -10.181 -10.181 -10.175
-10.172 -10.172 -10.169 -10.165  -8.048  -8.043  -7.997  -7.985
 -7.976  -7.976  -7.965  -7.964  -6.013  -6.008  -6.007  -6.005
 -6.002  -6.001  -5.961  -5.957  -5.954  -5.950  -5.946  -5.942
 -5.941  -5.940  -5.937  -5.936  -5.933  -5.933  -5.930  -5.928
 -5.926  -5.924  -5.921  -5.920  -1.050  -1.041  -0.979  -0.974
 -0.967  -0.965  -0.940  -0.937  -0.917  -0.916  -0.904  -0.904
 -0.844  -0.837  -0.832  -0.831  -0.819  -0.817  -0.811  -0.807
 -0.805  -0.803  -0.798  -0.790  -0.785  -0.783  -0.769  -0.763
 -0.747  -0.746  -0.737  -0.735  -0.725  -0.716  -0.711  -0.709
 -0.694  -0.690  -0.678  -0.673  -0.658  -0.654  -0.650  -0.648
 -0.641  -0.636  -0.629  -0.628  -0.614  -0.609  -0.602  -0.594
 -0.594  -0.588  -0.587  -0.584  -0.582  -0.576  -0.559  -0.555
 -0.549  -0.546  -0.543  -0.542  -0.528  -0.521  -0.513  -0.513
 -0.507  -0.506  -0.501  -0.499  -0.488  -0.485  -0.480  -0.477
 -0.474  -0.473  -0.467  -0.467  -0.466  -0.462  -0.456  -0.448
 -0.448  -0.447  -0.443  -0.443  -0.440  -0.438  -0.431  -0.430
 -0.429  -0.426  -0.425  -0.424  -0.422  -0.417  -0.415  -0.413
 -0.412  -0.411  -0.408  -0.403  -0.401  -0.400  -0.399  -0.399
 -0.397  -0.393  -0.392  -0.390  -0.386  -0.385  -0.384  -0.383
 -0.381  -0.374  -0.373  -0.372  -0.367  -0.365  -0.356  -0.353
 -0.351  -0.348  -0.346  -0.345  -0.344  -0.342  -0.342  -0.341
 -0.338  -0.338  -0.335  -0.332  -0.331  -0.330  -0.321  -0.317
 -0.315  -0.315  -0.314  -0.311  -0.305  -0.304  -0.301  -0.299
 -0.297  -0.295  -0.293  -0.289  -0.287  -0.286  -0.283  -0.276
 -0.273  -0.271  -0.270  -0.267  -0.251  -0.250  -0.247  -0.245
 -0.244  -0.239  -0.232  -0.226  -0.197  -0.185

          Ground-State Mulliken Net Atomic Charges

     Atom                 Charge (a.u.)
  ----------------------------------------
      1 C                     0.287802
      2 C                    -0.111803
      3 N                    -0.481217
      4 C                    -0.064521
      5 C                     0.056323
      6 C                     0.025227
      7 C                     0.047870
      8 C                     0.063724
      9 C                     0.224288
     10 N                    -0.541286
     11 N                    -0.552786
     12 C                     0.202260
     13 C                     0.326090
     14 S                     0.608033
     15 N                    -0.557745
     16 C                    -0.233025
     17 S                     0.311739
     18 C                    -0.111880
     19 C                    -0.215622
     20 S                     0.281663
     21 C                     0.182742
     22 C                     0.042105
     23 C                    -0.306628
     24 C                    -0.063903
     25 N                    -0.424422
     26 S                     0.285155
     27 C                     0.100739
     28 C                    -0.312056
     29 C                    -0.224746
     30 H                     0.091681
     31 H                     0.110934
     32 H                     0.108687
     33 H                     0.112808
     34 H                     0.139927
     35 H                     0.120738
     36 H                     0.119111
     37 H                     0.143129
     38 H                     0.101967
     39 C                    -0.186533
     40 H                     0.116960
     41 H                     0.098231
     42 H                     0.085831
     43 C                    -0.180014
     44 H                     0.085019
     45 C                    -0.172693
     46 H                     0.085571
     47 H                     0.088135
     48 H                     0.124298
     49 C                    -0.175603
     50 H                     0.095847
     51 C                    -0.331536
     52 H                     0.099473
     53 H                     0.103040
     54 H                     0.090364
     55 H                     0.100641
     56 C                     0.277488
     57 C                    -0.114900
     58 N                    -0.496528
     59 C                    -0.085329
     60 C                     0.090358
     61 C                     0.038571
     62 C                     0.058468
     63 C                     0.041979
     64 C                     0.179022
     65 N                    -0.486516
     66 N                    -0.527431
     67 C                     0.255366
     68 C                     0.255358
     69 S                     0.597252
     70 N                    -0.558367
     71 C                    -0.221618
     72 S                     0.304519
     73 C                    -0.095198
     74 C                    -0.228562
     75 S                     0.264379
     76 C                     0.149724
     77 C                     0.063334
     78 C                    -0.309274
     79 C                    -0.060855
     80 N                    -0.448224
     81 S                     0.294516
     82 C                     0.110191
     83 C                    -0.314727
     84 C                    -0.219745
     85 H                     0.083918
     86 H                     0.102590
     87 H                     0.120745
     88 H                     0.101818
     89 H                     0.128711
     90 H                     0.128580
     91 H                     0.103335
     92 H                     0.143827
     93 H                     0.121063
     94 C                    -0.196377
     95 H                     0.124286
     96 H                     0.093710
     97 H                     0.107602
     98 C                    -0.186487
     99 H                     0.085694
    100 C                    -0.176081
    101 H                     0.093888
    102 H                     0.092032
    103 H                     0.089121
    104 C                    -0.178625
    105 H                     0.092354
    106 C                    -0.312764
    107 H                     0.092339
    108 H                     0.099277
    109 H                     0.106921
    110 H                     0.105135
  ----------------------------------------
  Sum of atomic charges =     0.000000

                    Cartesian Multipole Moments
 -----------------------------------------------------------------
    Charge (ESU x 10^10)
                 0.0000
    Dipole Moment (Debye)
         X       1.5378      Y       1.0709      Z       3.3141
       Tot       3.8072
    Quadrupole Moments (Debye-Ang)
        XX    -389.6578     XY      -3.0682     YY    -461.3864
        XZ      -3.7951     YZ      13.1705     ZZ    -435.0903

 Total job time:  90.66s(wall), 1074.22s(cpu)
        *  Thank you very much for using Q-Chem.  Have a nice day.  *
