 Q-Chem 4.4, Q-Chem, Inc., Pleasanton, CA (2016)
 Q-Chem 4.4.2 for Intel X86 Linux

User input:
--------------------------------------------------------------
$comment
SP
$end

$rem
MEM_STATIC 5000
MEM_TOTAL 20000
JOBTYPE SP
EXCHANGE B3LYP
BASIS 6-31g(d,p)
$end

$molecule
0 1
C         -17.861000     22.141000     -5.438000
C         -18.497000     22.139000     -4.105000
N         -17.845000     21.041000     -6.233000
C         -19.061000     20.942000     -3.684000
C         -18.499000     19.980000     -5.793000
C         -19.065000     19.852000     -4.538000
C         -19.758000     18.617000     -4.120000
C         -20.673000     18.014000     -5.043000
C         -19.469000     17.822000     -2.959000
N         -21.314000     16.882000     -4.745000
N         -18.533000     18.127000     -2.061000
C         -20.243000     16.705000     -2.692000
C         -21.157000     16.262000     -3.630000
S         -18.674000     16.950000     -0.897000
N         -19.855000     16.101000     -1.540000
C         -22.050000     15.112000     -3.282000
S         -22.400000     14.521000     -1.605000
C         -22.976000     14.574000     -4.095000
C         -23.764000     13.529000     -2.177000
S         -23.126000     14.834000     -5.786000
C         -23.912000     13.768000     -3.550000
C         -24.314000     12.449000     -1.398000
C         -24.488000     13.709000     -5.875000
C         -24.754000     13.185000     -4.599000
N         -25.187000     11.663000     -1.962000
S         -23.718000     11.979000      0.152000
C         -25.397000     10.538000     -1.109000
C         -24.644000     10.527000      0.003000
C         -17.166000     23.370000     -6.018000
H         -18.470000     23.042000     -3.501000
H         -19.638000     20.897000     -2.765000
H         -18.531000     19.182000     -6.532000
H         -20.915000     18.308000     -6.063000
H         -24.912000     13.477000     -6.842000
H         -25.342000     12.277000     -4.532000
H         -26.038000      9.808000     -1.588000
H         -24.417000      9.719000      0.687000
H         -16.150000     23.378000     -5.605000
C         -17.833000     24.675000     -5.700000
H         -17.102000     23.241000     -7.106000
H         -17.218000     25.498000     -6.084000
H         -17.815000     24.768000     -4.608000
C         -19.263000     24.852000     -6.154000
H         -19.912000     24.228000     -5.528000
C         -19.411000     24.522000     -7.598000
H         -19.467000     25.909000     -5.946000
H         -20.473000     24.634000     -7.848000
H         -19.153000     23.476000     -7.809000
C         -18.635000     25.413000     -8.615000
H         -19.019000     26.433000     -8.743000
C         -18.600000     24.759000     -9.973000
H         -17.590000     25.379000     -8.285000
H         -18.264000     25.423000    -10.779000
H         -19.524000     24.269000    -10.305000
H         -17.940000     23.884000     -9.988000
C         -23.936000      9.814000     -8.354000
C         -24.076000      8.493000     -8.488000
N         -24.026000     10.381000     -7.127000
C         -24.252000      7.580000     -7.407000
C         -24.251000      9.592000     -6.097000
C         -24.315000      8.185000     -6.154000
C         -24.604000      7.415000     -4.861000
C         -25.100000      8.001000     -3.665000
C         -24.075000      6.132000     -4.644000
N         -25.358000      7.381000     -2.543000
N         -23.391000      5.439000     -5.556000
C         -24.237000      5.484000     -3.467000
C         -24.899000      6.154000     -2.396000
S         -23.038000      4.048000     -4.824000
N         -23.781000      4.253000     -3.407000
C         -25.200000      5.470000     -1.118000
S         -24.767000      3.824000     -0.546000
C         -25.880000      6.103000     -0.102000
C         -25.583000      4.027000      0.926000
S         -26.630000      7.671000     -0.004000
C         -26.090000      5.316000      0.992000
C         -25.709000      2.908000      1.960000
C         -27.077000      7.342000      1.645000
C         -26.847000      5.971000      2.020000
N         -25.281000      1.715000      1.680000
S         -26.554000      2.998000      3.486000
C         -25.477000      0.778000      2.734000
C         -26.052000      1.395000      3.773000
C         -23.662000     10.737000     -9.508000
H         -23.979000      8.125000     -9.507000
H         -24.583000      6.548000     -7.469000
H         -24.161000     10.151000     -5.165000
H         -25.381000      9.052000     -3.698000
H         -27.540000      8.054000      2.315000
H         -27.266000      5.515000      2.910000
H         -25.086000     -0.228000      2.662000
H         -26.104000      1.024000      4.787000
H         -22.949000     11.501000     -9.174000
C         -25.010000     11.181000    -10.160000
H         -23.149000     10.149000    -10.280000
H         -25.521000     11.787000     -9.403000
H         -25.606000     10.286000    -10.376000
C         -24.916000     11.963000    -11.444000
H         -24.257000     11.390000    -12.109000
C         -24.390000     13.332000    -11.291000
H         -25.871000     11.860000    -11.975000
H         -23.354000     13.090000    -11.024000
H         -24.795000     13.892000    -10.440000
C         -24.473000     14.143000    -12.553000
H         -24.297000     13.509000    -13.431000
C         -23.584000     15.318000    -12.506000
H         -25.516000     14.478000    -12.622000
H         -24.063000     16.243000    -12.161000
H         -23.246000     15.659000    -13.492000
H         -22.730000     15.213000    -11.826000
$end

--------------------------------------------------------------

             Standard Nuclear Orientation (Angstroms)
    I     Atom           X                Y                Z
 ----------------------------------------------------------------
    1      C      11.0545517292     2.0688362850     1.1697188484
    2      C      10.4194807670     3.1937064334     0.4536594779
    3      N      10.3351306436     1.0333612634     1.6722183822
    4      C       9.0361046928     3.1593601860     0.3386074342
    5      C       9.0373627362     1.0341770205     1.4215496905
    6      C       8.3379218980     2.0667893716     0.8246751256
    7      C       6.8796599419     1.9930492980     0.6050562079
    8      C       6.3399981916     0.7759880904     0.0756317918
    9      C       5.8953926058     2.9376213899     1.0550210667
   10      N       5.0286796221     0.6269597588    -0.1227193251
   11      N       6.1847399568     4.0570246381     1.7173951894
   12      C       4.5639912839     2.7359321369     0.7313762532
   13      C       4.1718108423     1.5470437079     0.1446669515
   14      S       4.7195132694     4.8153447854     1.9127597426
   15      N       3.7848027898     3.7426721266     1.2023368499
   16      C       2.7463827450     1.3885072384    -0.2843714233
   17      S       1.5704868967     2.7415049309    -0.5504093872
   18      C       2.2258126607     0.2899625362    -0.8589106514
   19      C       0.4262184905     1.6604327321    -1.3832819557
   20      S       2.9487511950    -1.2663049457    -0.9294258994
   21      C       1.0294844749     0.3987713100    -1.4751220782
   22      C      -0.9629183225     1.9971797313    -1.5639511933
   23      C       1.5324200378    -1.9267289948    -1.7579403099
   24      C       0.5716767241    -0.9167502463    -1.9323628225
   25      N      -1.7664639468     1.0789745351    -2.0213729323
   26      S      -1.6823126289     3.4571398831    -0.9898395428
   27      C      -3.1085045507     1.5436459357    -1.8787492769
   28      C      -3.2283488657     2.7439039840    -1.2882478311
   29      C      12.5599053618     1.9887215657     1.4092143021
   30      H      11.0386785293     4.0061749077     0.0829262728
   31      H       8.5143219199     3.8948632285    -0.2666140230
   32      H       8.5531090340     0.1210701834     1.7616721039
   33      H       6.8487453623    -0.1578498655    -0.1578697895
   34      H       1.4969112802    -2.9865137228    -1.9683790384
   35      H      -0.4492341082    -1.2136386835    -2.1428273762
   36      H      -3.8137955426     0.7680696854    -2.1512710132
   37      H      -4.0919264121     3.2227061066    -0.8441404692
   38      H      12.7660783663     2.5893227296     2.3034513703
   39      C      13.4020607706     2.4944946676     0.2760744886
   40      H      12.8137279101     0.9424964926     1.6224470634
   41      H      14.4574597635     2.4757975688     0.5740566764
   42      H      13.1416477473     3.5519034664     0.1515405995
   43      C      13.2386975804     1.8186740213    -1.0651652073
   44      H      12.2719333791     2.1108258137    -1.4923271313
   45      C      13.3583847646     0.3403594367    -0.9378821883
   46      H      14.0462175655     2.2508589823    -1.6678729583
   47      H      13.1918956186    -0.0845063150    -1.9352078409
   48      H      12.5792065856    -0.0806375515    -0.2891573612
   49      C      14.7290680626    -0.2238999114    -0.4549901870
   50      H      15.5524074882    -0.1552067917    -1.1772321447
   51      C      14.5926161226    -1.6687325657    -0.0464018011
   52      H      14.9338492670     0.2933921856     0.4897608621
   53      H      15.5505129155    -2.1844709130     0.0945793731
   54      H      13.9616685859    -2.3008833322    -0.6838895376
   55      H      14.0339303774    -1.7772085158     0.8903762977
   56      C      -0.9609786942    -5.1745326670     0.4456712871
   57      C      -2.1391370918    -5.6772877728     0.8222042785
   58      N      -0.8779867992    -3.8873908857     0.0315500729
   59      C      -3.3543439313    -4.9349319065     0.8949098843
   60      C      -1.9825294859    -3.1705634536     0.0177701636
   61      C      -3.2370535889    -3.6077244260     0.4889957562
   62      C      -4.4296051574    -2.6511953501     0.3834358999
   63      C      -4.4520925950    -1.4718838647    -0.4093734942
   64      C      -5.4681494778    -2.6753523842     1.3288781945
   65      N      -5.4464242782    -0.6306679581    -0.5255987165
   66      N      -5.5703794940    -3.5764295142     2.3073760379
   67      C      -6.4736924007    -1.7698959766     1.3063144164
   68      C      -6.4355778855    -0.7204804695     0.3411929851
   69      S      -6.9269708532    -3.1798565729     3.0804890869
   70      N      -7.4395755824    -1.9433779055     2.1803113841
   71      C      -7.5507261612     0.2420707735     0.1939502336
   72      S      -9.0569987450     0.4372121099     1.1515784297
   73      C      -7.5338187375     1.2262042146    -0.7686195089
   74      C      -9.6127487841     1.7099691860     0.1794260140
   75      S      -6.4143857681     1.5767398683    -2.0549797161
   76      C      -8.6521499547     2.0069681621    -0.7755438792
   77      C     -10.9799312092     2.3641141588     0.3796747877
   78      C      -7.3798227863     2.9523170432    -2.5055014133
   79      C      -8.6445933624     2.9923437043    -1.8185376178
   80      N     -11.8124562787     1.8744099338     1.2468107520
   81      S     -11.6629328215     3.6520584853    -0.5823591044
   82      C     -13.0469044309     2.5808833253     1.3126446849
   83      C     -13.0173706998     3.6041080401     0.4506853229
   84      C       0.3183908010    -5.9628784845     0.4667797420
   85      H      -2.1092674626    -6.7145768429     1.1482919817
   86      H      -4.3606115136    -5.3331091674     0.9804050398
   87      H      -1.7537155339    -2.1264999722    -0.1985181217
   88      H      -3.5979726421    -1.2842819062    -1.0573978852
   89      H      -7.1113275241     3.6758180194    -3.2635710880
   90      H      -9.4713138917     3.6248963168    -2.1218647662
   91      H     -13.7915822306     2.3288125476     2.0556226776
   92      H     -13.6885098015     4.4514813013     0.4422081504
   93      H       1.1237393395    -5.3001921954     0.8071936283
   94      C       0.4825969271    -6.7381682671    -0.8790679839
   95      H       0.2091189675    -6.7395880678     1.2346852633
   96      H       0.6133303885    -5.9704477894    -1.6503785765
   97      H      -0.4389012010    -7.3000155470    -1.0741726582
   98      C       1.6194092766    -7.7232154094    -0.9587913144
   99      H       1.5368577311    -8.3650609310    -0.0721941293
  100      C       2.9599792930    -7.1104277408    -0.9989074495
  101      H       1.3863010899    -8.4474707580    -1.7498094958
  102      H       2.9968944878    -6.7091036565     0.0212519732
  103      H       3.0542791301    -6.2443859523    -1.6644186525
  104      C       4.0578884338    -8.1035596715    -1.2549123065
  105      H       3.8317578760    -9.0616833626    -0.7704745260
  106      C       5.3780069623    -7.5669739113    -0.8773970183
  107      H       4.0381548771    -8.2952336857    -2.3355170719
  108      H       5.9346836789    -7.0970342823    -1.6979814309
  109      H       6.1066955621    -8.3369520806    -0.5965633606
  110      H       5.3455118665    -6.7778195766    -0.1165287610
 ----------------------------------------------------------------

    9   -5663.4969302997      7.88E-06 Convergence criterion met
 Total energy in the final basis set = -5663.4969302997

                    Orbital Energies (a.u.)
 --------------------------------------------------------------

 Alpha MOs
 -- Occupied --
-88.988 -88.988 -88.928 -88.928 -88.916 -88.916 -88.915 -88.892
-14.386 -14.383 -14.379 -14.376 -14.351 -14.344 -14.338 -14.333
-14.328 -14.324 -10.277 -10.262 -10.259 -10.253 -10.251 -10.247
-10.247 -10.246 -10.245 -10.241 -10.238 -10.237 -10.236 -10.236
-10.234 -10.230 -10.230 -10.229 -10.226 -10.224 -10.223 -10.220
-10.219 -10.219 -10.218 -10.217 -10.215 -10.214 -10.212 -10.211
-10.210 -10.208 -10.208 -10.206 -10.205 -10.201 -10.192 -10.189
-10.185 -10.182 -10.181 -10.176 -10.175 -10.172 -10.172 -10.171
-10.170 -10.169 -10.165 -10.165  -8.045  -8.044  -7.991  -7.987
 -7.978  -7.976  -7.974  -7.953  -6.010  -6.009  -6.004  -6.003
 -6.002  -6.001  -5.955  -5.951  -5.951  -5.947  -5.947  -5.944
 -5.942  -5.940  -5.939  -5.938  -5.937  -5.935  -5.934  -5.932
 -5.930  -5.917  -5.913  -5.909  -1.060  -1.041  -0.979  -0.972
 -0.971  -0.962  -0.945  -0.942  -0.923  -0.917  -0.909  -0.901
 -0.850  -0.836  -0.833  -0.831  -0.820  -0.819  -0.812  -0.810
 -0.809  -0.804  -0.798  -0.793  -0.792  -0.781  -0.770  -0.765
 -0.757  -0.747  -0.746  -0.733  -0.732  -0.717  -0.713  -0.711
 -0.696  -0.687  -0.678  -0.672  -0.658  -0.657  -0.651  -0.644
 -0.637  -0.632  -0.630  -0.626  -0.613  -0.609  -0.600  -0.597
 -0.596  -0.588  -0.586  -0.585  -0.584  -0.574  -0.568  -0.550
 -0.546  -0.545  -0.545  -0.541  -0.528  -0.522  -0.517  -0.508
 -0.507  -0.505  -0.502  -0.494  -0.491  -0.486  -0.485  -0.478
 -0.477  -0.472  -0.471  -0.471  -0.463  -0.461  -0.455  -0.453
 -0.449  -0.444  -0.442  -0.438  -0.437  -0.434  -0.430  -0.429
 -0.427  -0.426  -0.422  -0.421  -0.419  -0.418  -0.416  -0.414
 -0.411  -0.409  -0.409  -0.407  -0.402  -0.402  -0.401  -0.398
 -0.396  -0.395  -0.393  -0.392  -0.391  -0.388  -0.386  -0.386
 -0.382  -0.374  -0.373  -0.371  -0.370  -0.366  -0.359  -0.356
 -0.353  -0.352  -0.350  -0.346  -0.344  -0.344  -0.342  -0.340
 -0.338  -0.336  -0.330  -0.330  -0.327  -0.323  -0.322  -0.318
 -0.318  -0.312  -0.311  -0.307  -0.306  -0.303  -0.300  -0.297
 -0.296  -0.294  -0.291  -0.289  -0.284  -0.279  -0.278  -0.277
 -0.276  -0.270  -0.268  -0.260  -0.258  -0.253  -0.252  -0.250
 -0.242  -0.240  -0.233  -0.229  -0.197  -0.187

          Ground-State Mulliken Net Atomic Charges

     Atom                 Charge (a.u.)
  ----------------------------------------
      1 C                     0.258327
      2 C                    -0.118179
      3 N                    -0.475736
      4 C                    -0.058425
      5 C                     0.076607
      6 C                     0.063083
      7 C                    -0.037850
      8 C                     0.052752
      9 C                     0.254357
     10 N                    -0.512895
     11 N                    -0.569724
     12 C                     0.197443
     13 C                     0.338973
     14 S                     0.602378
     15 N                    -0.540570
     16 C                    -0.219358
     17 S                     0.295957
     18 C                    -0.102428
     19 C                    -0.258511
     20 S                     0.265209
     21 C                     0.169497
     22 C                     0.089242
     23 C                    -0.284348
     24 C                    -0.083250
     25 N                    -0.462875
     26 S                     0.260972
     27 C                     0.128123
     28 C                    -0.318844
     29 C                    -0.230140
     30 H                     0.097428
     31 H                     0.103393
     32 H                     0.098592
     33 H                     0.122686
     34 H                     0.139717
     35 H                     0.120681
     36 H                     0.132030
     37 H                     0.151324
     38 H                     0.116248
     39 C                    -0.188301
     40 H                     0.121386
     41 H                     0.096245
     42 H                     0.080582
     43 C                    -0.167551
     44 H                     0.092518
     45 C                    -0.181294
     46 H                     0.090298
     47 H                     0.086200
     48 H                     0.108845
     49 C                    -0.171350
     50 H                     0.095733
     51 C                    -0.326707
     52 H                     0.099324
     53 H                     0.095892
     54 H                     0.098981
     55 H                     0.104397
     56 C                     0.279079
     57 C                    -0.130914
     58 N                    -0.484473
     59 C                    -0.050557
     60 C                     0.057933
     61 C                     0.051927
     62 C                     0.013347
     63 C                     0.058916
     64 C                     0.227407
     65 N                    -0.540588
     66 N                    -0.547461
     67 C                     0.227806
     68 C                     0.318941
     69 S                     0.593774
     70 N                    -0.560077
     71 C                    -0.247156
     72 S                     0.365307
     73 C                    -0.116826
     74 C                    -0.232495
     75 S                     0.316724
     76 C                     0.152938
     77 C                     0.088262
     78 C                    -0.329523
     79 C                    -0.100971
     80 N                    -0.441553
     81 S                     0.269946
     82 C                     0.117726
     83 C                    -0.308434
     84 C                    -0.224735
     85 H                     0.078483
     86 H                     0.117635
     87 H                     0.112359
     88 H                     0.111937
     89 H                     0.129773
     90 H                     0.115914
     91 H                     0.126517
     92 H                     0.135247
     93 H                     0.122785
     94 C                    -0.179159
     95 H                     0.093178
     96 H                     0.104320
     97 H                     0.091300
     98 C                    -0.183329
     99 H                     0.087056
    100 C                    -0.160830
    101 H                     0.084696
    102 H                     0.096627
    103 H                     0.090885
    104 C                    -0.167323
    105 H                     0.093431
    106 C                    -0.326472
    107 H                     0.098505
    108 H                     0.102035
    109 H                     0.098004
    110 H                     0.105070
  ----------------------------------------
  Sum of atomic charges =     0.000000

                    Cartesian Multipole Moments
 -----------------------------------------------------------------
    Charge (ESU x 10^10)
                 0.0000
    Dipole Moment (Debye)
         X      -3.3965      Y       1.6964      Z      -0.0742
       Tot       3.7973
    Quadrupole Moments (Debye-Ang)
        XX    -384.9912     XY      -7.6621     YY    -401.4237
        XZ      -9.4575     YZ      -4.7951     ZZ    -450.0069

 Total job time:  85.14s(wall), 1015.46s(cpu)
        *  Thank you very much for using Q-Chem.  Have a nice day.  *
