 Q-Chem 4.4, Q-Chem, Inc., Pleasanton, CA (2016)
 Q-Chem 4.4.2 for Intel X86 Linux

User input:
--------------------------------------------------------------
$comment
SP
$end

$rem
MEM_STATIC 5000
MEM_TOTAL 20000
JOBTYPE SP
EXCHANGE B3LYP
BASIS 6-31g(d,p)
$end

$molecule
0 1
C         -28.022000     -0.605000     -4.779000
C         -27.259000     -1.720000     -4.487000
N         -27.420000      0.479000     -5.192000
C         -25.875000     -1.812000     -4.879000
C         -26.063000      0.507000     -5.335000
C         -25.185000     -0.638000     -5.254000
C         -23.693000     -0.634000     -5.445000
C         -22.980000      0.552000     -5.063000
C         -22.833000     -1.770000     -5.778000
N         -21.647000      0.817000     -5.251000
N         -23.230000     -3.014000     -6.054000
C         -21.462000     -1.591000     -5.727000
C         -20.910000     -0.216000     -5.647000
S         -21.952000     -3.890000     -6.313000
N         -20.812000     -2.692000     -6.067000
C         -19.448000      0.068000     -5.712000
S         -18.233000     -1.247000     -5.842000
C         -18.911000      1.340000     -5.788000
C         -16.962000     -0.027000     -5.845000
S         -19.649000      2.940000     -5.789000
C         -17.512000      1.303000     -5.785000
C         -15.563000     -0.296000     -6.005000
C         -18.011000      3.516000     -6.033000
C         -16.963000      2.593000     -5.966000
N         -14.656000      0.648000     -6.038000
S         -15.022000     -1.963000     -5.974000
C         -13.407000      0.085000     -6.247000
C         -13.417000     -1.284000     -6.209000
C         -29.527000     -0.598000     -4.762000
H         -27.788000     -2.604000     -4.143000
H         -25.351000     -2.746000     -4.700000
H         -25.558000      1.426000     -5.630000
H         -23.501000      1.471000     -4.800000
H         -17.835000      4.584000     -6.059000
H         -15.922000      2.797000     -6.189000
H         -12.563000      0.752000     -6.365000
H         -12.546000     -1.910000     -6.351000
H         -29.951000      0.414000     -4.762000
C         -30.063000     -0.970000     -3.372000
H         -29.972000     -1.253000     -5.522000
H         -29.708000     -0.310000     -2.571000
H         -29.686000     -1.936000     -3.016000
C         -31.648000     -1.058000     -3.345000
H         -32.024000     -0.071000     -3.046000
C         -32.337000     -1.997000     -2.307000
H         -31.998000     -1.443000     -4.310000
H         -33.242000     -1.557000     -1.872000
H         -31.675000     -2.235000     -1.466000
C         -32.875000     -3.331000     -3.009000
H         -33.376000     -3.923000     -2.234000
C         -31.774000     -4.173000     -3.803000
H         -33.614000     -3.076000     -3.779000
H         -31.307000     -3.679000     -4.664000
H         -32.095000     -5.144000     -4.199000
H         -30.917000     -4.357000     -3.143000
C         -23.936000      9.814000     -8.354000
C         -24.076000      8.493000     -8.488000
N         -24.026000     10.381000     -7.127000
C         -24.252000      7.580000     -7.407000
C         -24.251000      9.592000     -6.097000
C         -24.315000      8.185000     -6.154000
C         -24.604000      7.415000     -4.861000
C         -25.100000      8.001000     -3.665000
C         -24.075000      6.132000     -4.644000
N         -25.358000      7.381000     -2.543000
N         -23.391000      5.439000     -5.556000
C         -24.237000      5.484000     -3.467000
C         -24.899000      6.154000     -2.396000
S         -23.038000      4.048000     -4.824000
N         -23.781000      4.253000     -3.407000
C         -25.200000      5.470000     -1.118000
S         -24.767000      3.824000     -0.546000
C         -25.880000      6.103000     -0.102000
C         -25.583000      4.027000      0.926000
S         -26.630000      7.671000     -0.004000
C         -26.090000      5.316000      0.992000
C         -25.709000      2.908000      1.960000
C         -27.077000      7.342000      1.645000
C         -26.847000      5.971000      2.020000
N         -25.281000      1.715000      1.680000
S         -26.554000      2.998000      3.486000
C         -25.477000      0.778000      2.734000
C         -26.052000      1.395000      3.773000
C         -23.662000     10.737000     -9.508000
H         -23.979000      8.125000     -9.507000
H         -24.583000      6.548000     -7.469000
H         -24.161000     10.151000     -5.165000
H         -25.381000      9.052000     -3.698000
H         -27.540000      8.054000      2.315000
H         -27.266000      5.515000      2.910000
H         -25.086000     -0.228000      2.662000
H         -26.104000      1.024000      4.787000
H         -22.949000     11.501000     -9.174000
C         -25.010000     11.181000    -10.160000
H         -23.149000     10.149000    -10.280000
H         -25.521000     11.787000     -9.403000
H         -25.606000     10.286000    -10.376000
C         -24.916000     11.963000    -11.444000
H         -24.257000     11.390000    -12.109000
C         -24.390000     13.332000    -11.291000
H         -25.871000     11.860000    -11.975000
H         -23.354000     13.090000    -11.024000
H         -24.795000     13.892000    -10.440000
C         -24.473000     14.143000    -12.553000
H         -24.297000     13.509000    -13.431000
C         -23.584000     15.318000    -12.506000
H         -25.516000     14.478000    -12.622000
H         -24.063000     16.243000    -12.161000
H         -23.246000     15.659000    -13.492000
H         -22.730000     15.213000    -11.826000
$end

--------------------------------------------------------------

             Standard Nuclear Orientation (Angstroms)
    I     Atom           X                Y                Z
 ----------------------------------------------------------------
    1      C      -3.2005274162    -3.0836443935     3.6942908231
    2      C      -4.3693302742    -2.3884891689     3.4466679383
    3      N      -2.0604782618    -2.5348061832     3.3670393227
    4      C      -4.3570881914    -0.9895948688     3.0994952602
    5      C      -2.0260463282    -1.2964564887     2.7943382870
    6      C      -3.1498566732    -0.3966778613     2.6681688367
    7      C      -3.1246773707     0.9851102076     2.0743770085
    8      C      -2.1818991771     1.2358505240     1.0211972653
    9      C      -4.0891934801     2.0649074368     2.2858755157
   10      N      -1.9096649350     2.4379330964     0.4184170346
   11      N      -5.1346178726     2.0462986668     3.1153708763
   12      C      -3.9850491987     3.1995478963     1.5010010058
   13      C      -2.7514426711     3.4251970573     0.7078891655
   14      S      -5.8973179912     3.4122308392     2.9730373610
   15      N      -4.9076895095     4.0954431013     1.8114968008
   16      C      -2.5103226107     4.6774581756    -0.0641394662
   17      S      -3.7266340712     5.9958311425    -0.1336315612
   18      C      -1.3154983539     4.9803942213    -0.6908401503
   19      C      -2.6303062238     6.9075018567    -1.1684125814
   20      S       0.1984559994     4.0928845987    -0.8486814820
   21      C      -1.3959588652     6.1957482060    -1.3800569508
   22      C      -2.8676116031     8.2365457656    -1.6505852114
   23      C       0.7708315849     5.5372043794    -1.6615053007
   24      C      -0.1466299470     6.5562330561    -1.9345746936
   25      N      -2.0057101744     8.8903798298    -2.3884882835
   26      S      -4.4485242401     8.9496834030    -1.3962607257
   27      C      -2.4941746786    10.1586765107    -2.6595546174
   28      C      -3.7824452139    10.3451157253    -2.2337560180
   29      C      -3.1518617459    -4.3956008722     4.4303375950
   30      H      -5.3004302157    -2.8724462057     3.7267955618
   31      H      -5.3086393668    -0.4757398413     3.0021486043
   32      H      -1.0793776900    -0.8620413567     2.4754135585
   33      H      -1.4049153770     0.5166029441     0.7679185786
   34      H       1.7691280780     5.5356210715    -2.0806444245
   35      H       0.0908866819     7.5317044208    -2.3433135682
   36      H      -1.8573228422    10.8415567373    -3.2065860009
   37      H      -4.3417677434    11.2641316441    -2.3488605313
   38      H      -2.1958889819    -4.9202155933     4.3086187845
   39      C      -3.9858036099    -5.4630828602     3.7072863016
   40      H      -3.4715221563    -4.3171669733     5.4773883796
   41      H      -3.6734859834    -5.6397120856     2.6707122247
   42      H      -5.0267069669    -5.1557181055     3.5521473029
   43      C      -4.0266633035    -6.8342552338     4.5066077684
   44      H      -3.2040870386    -7.4557054684     4.1296278028
   45      C      -5.2558532960    -7.7783881421     4.3288691573
   46      H      -4.0235122539    -6.6180810455     5.5814141655
   47      H      -4.9750365728    -8.8372957707     4.2875581171
   48      H      -5.8041220092    -7.5684674539     3.4028541883
   49      C      -6.2258641193    -7.7023248582     5.5997339728
   50      H      -7.0424657905    -8.4126046890     5.4243650113
   51      C      -6.7569467258    -6.2403248924     5.9632011170
   52      H      -5.6850752409    -8.0153317315     6.5017428898
   53      H      -5.9992804425    -5.5032932090     6.2567519657
   54      H      -7.5070220899    -6.1785547030     6.7608660793
   55      H      -7.1954657837    -5.7838859659     5.0669480600
   56      C       7.6684925453     0.5320654022     1.0822744087
   57      C       6.4915510632     0.6803439360     1.6949890438
   58      N       7.7538042158    -0.2180001898    -0.0425551457
   59      C       5.2544865819     0.1557703691     1.2179145820
   60      C       6.6522995487    -0.7800304773    -0.4951647173
   61      C       5.3648750439    -0.5892124951     0.0462414537
   62      C       4.1876146457    -1.3347501709    -0.5913332705
   63      C       4.3149111721    -2.4244699112    -1.4947348877
   64      C       2.8971203424    -0.7803036937    -0.6065830919
   65      N       3.3384284203    -3.0851604978    -2.0602588786
   66      N       2.5610221285     0.3536756944     0.0106508492
   67      C       1.8715100324    -1.3797051423    -1.2549027625
   68      C       2.1277470334    -2.5667190790    -2.0029171430
   69      S       0.9885988558     0.5275261824    -0.2936106488
   70      N       0.6887924981    -0.8218388944    -1.1250509877
   71      C       1.0364007953    -3.3288983510    -2.6508269715
   72      S      -0.7179425317    -2.9699533681    -2.7828382973
   73      C       1.2787339877    -4.4995604218    -3.3335933590
   74      C      -1.0372395984    -4.4083698771    -3.6212035696
   75      S       2.7273258630    -5.4395837048    -3.5541966372
   76      C       0.1553697975    -5.0793719869    -3.8456250427
   77      C      -2.4506664961    -4.8352190301    -4.0177098183
   78      C       1.8365169092    -6.5599651313    -4.5433659185
   79      C       0.4163037270    -6.3258237464    -4.5067827362
   80      N      -3.4736359434    -4.1457191446    -3.6140312111
   81      S      -2.8938654052    -6.3068386027    -4.8475962928
   82      C      -4.7226022392    -4.6710202128    -4.0515731856
   83      C      -4.5068911951    -5.7592439021    -4.7999534015
   84      C       8.9382308831     1.1746507528     1.5655648193
   85      H       6.5157895677     1.3065045213     2.5841062556
   86      H       4.3266447007     0.0594494881     1.7731269120
   87      H       6.8315057585    -1.2326610343    -1.4709801267
   88      H       5.3145921818    -2.8156691582    -1.6743233841
   89      H       2.2710894233    -7.3904429244    -5.0834273642
   90      H      -0.3180493941    -7.0410219648    -4.8600729879
   91      H      -5.6457830406    -4.1416445524    -3.8576669757
   92      H      -5.2189047909    -6.2289962523    -5.4639642212
   93      H       9.5054790993     1.5139447687     0.6899336002
   94      C       9.6317174700     0.2488927890     2.6150373279
   95      H       8.6545592291     2.0776377444     2.1214801777
   96      H       9.9375331898    -0.6480281259     2.0642055768
   97      H       8.8958782052    -0.0248733431     3.3808634708
   98      C      10.8231447311     0.8194808582     3.3388787034
   99      H      10.5098984138     1.7955986035     3.7311871177
  100      C      12.0254904614     0.9888209091     2.5022577067
  101      H      10.9507163473     0.2615164661     4.2753594666
  102      H      11.6699254836     1.7962483260     1.8505035252
  103      H      12.2509341668     0.1460902725     1.8383253233
  104      C      13.2416161304     1.3912075179     3.2873547544
  105      H      12.9644216446     2.0600793402     4.1117270625
  106      C      14.2901489176     1.9554214491     2.4182191873
  107      H      13.6121064306     0.4690208244     3.7533414921
  108      H      15.0415947225     1.2325765191     2.0762902334
  109      H      14.9548768113     2.6640924825     2.9267889404
  110      H      13.9180272270     2.3874447858     1.4814042195
 ----------------------------------------------------------------

    9   -5663.4885831147      7.14E-06 Convergence criterion met
 Total energy in the final basis set = -5663.4885831147

                    Orbital Energies (a.u.)
 --------------------------------------------------------------

 Alpha MOs
 -- Occupied --
-88.992 -88.982 -88.930 -88.925 -88.924 -88.922 -88.920 -88.910
-14.386 -14.383 -14.380 -14.374 -14.357 -14.344 -14.341 -14.340
-14.325 -14.320 -10.273 -10.270 -10.267 -10.261 -10.260 -10.256
-10.245 -10.242 -10.242 -10.242 -10.241 -10.240 -10.236 -10.234
-10.233 -10.232 -10.230 -10.230 -10.230 -10.229 -10.224 -10.224
-10.224 -10.222 -10.220 -10.220 -10.218 -10.218 -10.214 -10.212
-10.211 -10.210 -10.208 -10.203 -10.202 -10.197 -10.195 -10.189
-10.187 -10.185 -10.182 -10.182 -10.182 -10.180 -10.178 -10.177
-10.171 -10.168 -10.167 -10.164  -8.049  -8.038  -7.988  -7.986
 -7.986  -7.981  -7.979  -7.969  -6.014  -6.008  -6.006  -6.003
 -5.997  -5.996  -5.953  -5.950  -5.950  -5.949  -5.947  -5.946
 -5.945  -5.945  -5.943  -5.943  -5.943  -5.941  -5.940  -5.938
 -5.935  -5.934  -5.930  -5.925  -1.054  -1.052  -0.972  -0.970
 -0.967  -0.961  -0.942  -0.940  -0.917  -0.911  -0.911  -0.907
 -0.846  -0.844  -0.835  -0.831  -0.817  -0.807  -0.806  -0.804
 -0.804  -0.799  -0.794  -0.792  -0.790  -0.775  -0.766  -0.761
 -0.754  -0.748  -0.741  -0.737  -0.727  -0.726  -0.709  -0.707
 -0.694  -0.691  -0.675  -0.672  -0.655  -0.655  -0.647  -0.646
 -0.634  -0.633  -0.627  -0.626  -0.609  -0.604  -0.597  -0.595
 -0.593  -0.592  -0.585  -0.581  -0.579  -0.574  -0.566  -0.562
 -0.553  -0.545  -0.540  -0.539  -0.524  -0.523  -0.517  -0.509
 -0.505  -0.504  -0.498  -0.497  -0.488  -0.487  -0.480  -0.479
 -0.473  -0.473  -0.468  -0.466  -0.461  -0.458  -0.451  -0.448
 -0.444  -0.442  -0.437  -0.433  -0.431  -0.431  -0.430  -0.430
 -0.426  -0.425  -0.422  -0.421  -0.417  -0.414  -0.412  -0.411
 -0.410  -0.409  -0.406  -0.405  -0.402  -0.401  -0.399  -0.397
 -0.396  -0.395  -0.391  -0.391  -0.389  -0.386  -0.384  -0.383
 -0.381  -0.380  -0.377  -0.371  -0.365  -0.363  -0.361  -0.356
 -0.356  -0.353  -0.353  -0.349  -0.347  -0.346  -0.342  -0.341
 -0.339  -0.337  -0.337  -0.332  -0.327  -0.324  -0.320  -0.318
 -0.314  -0.314  -0.311  -0.310  -0.310  -0.301  -0.298  -0.298
 -0.297  -0.295  -0.292  -0.288  -0.286  -0.282  -0.281  -0.279
 -0.272  -0.270  -0.266  -0.263  -0.259  -0.254  -0.249  -0.247
 -0.246  -0.243  -0.231  -0.228  -0.191  -0.191

          Ground-State Mulliken Net Atomic Charges

     Atom                 Charge (a.u.)
  ----------------------------------------
      1 C                     0.292672
      2 C                    -0.118090
      3 N                    -0.488606
      4 C                    -0.083896
      5 C                     0.071630
      6 C                     0.045081
      7 C                     0.045447
      8 C                     0.057117
      9 C                     0.203047
     10 N                    -0.508353
     11 N                    -0.539514
     12 C                     0.227186
     13 C                     0.304243
     14 S                     0.600499
     15 N                    -0.573901
     16 C                    -0.230201
     17 S                     0.340491
     18 C                    -0.111503
     19 C                    -0.226897
     20 S                     0.317399
     21 C                     0.132609
     22 C                     0.091982
     23 C                    -0.317868
     24 C                    -0.056019
     25 N                    -0.451789
     26 S                     0.255615
     27 C                     0.128748
     28 C                    -0.308790
     29 C                    -0.224335
     30 H                     0.083617
     31 H                     0.113748
     32 H                     0.094292
     33 H                     0.091798
     34 H                     0.122671
     35 H                     0.134214
     36 H                     0.117061
     37 H                     0.126626
     38 H                     0.128436
     39 C                    -0.205453
     40 H                     0.115562
     41 H                     0.106934
     42 H                     0.092362
     43 C                    -0.178274
     44 H                     0.098617
     45 C                    -0.185167
     46 H                     0.097950
     47 H                     0.094764
     48 H                     0.093082
     49 C                    -0.187883
     50 H                     0.093930
     51 C                    -0.328904
     52 H                     0.098852
     53 H                     0.102018
     54 H                     0.102801
     55 H                     0.100712
     56 C                     0.275839
     57 C                    -0.130041
     58 N                    -0.481931
     59 C                    -0.051720
     60 C                     0.065168
     61 C                     0.050521
     62 C                     0.014193
     63 C                     0.056181
     64 C                     0.222701
     65 N                    -0.522553
     66 N                    -0.551984
     67 C                     0.225269
     68 C                     0.316103
     69 S                     0.618381
     70 N                    -0.568257
     71 C                    -0.247050
     72 S                     0.365261
     73 C                    -0.105943
     74 C                    -0.232799
     75 S                     0.306974
     76 C                     0.150763
     77 C                     0.088365
     78 C                    -0.314677
     79 C                    -0.105150
     80 N                    -0.441090
     81 S                     0.268403
     82 C                     0.117205
     83 C                    -0.309122
     84 C                    -0.221572
     85 H                     0.078029
     86 H                     0.119798
     87 H                     0.098126
     88 H                     0.103250
     89 H                     0.127209
     90 H                     0.113332
     91 H                     0.124658
     92 H                     0.133423
     93 H                     0.118804
     94 C                    -0.178103
     95 H                     0.091442
     96 H                     0.109228
     97 H                     0.090287
     98 C                    -0.183834
     99 H                     0.085581
    100 C                    -0.160846
    101 H                     0.084009
    102 H                     0.094890
    103 H                     0.094547
    104 C                    -0.167116
    105 H                     0.092972
    106 C                    -0.325715
    107 H                     0.098166
    108 H                     0.101027
    109 H                     0.097265
    110 H                     0.103759
  ----------------------------------------
  Sum of atomic charges =     0.000000

                    Cartesian Multipole Moments
 -----------------------------------------------------------------
    Charge (ESU x 10^10)
                 0.0000
    Dipole Moment (Debye)
         X      -4.3905      Y       0.9718      Z       0.2286
       Tot       4.5026
    Quadrupole Moments (Debye-Ang)
        XX    -417.5626     XY       5.5252     YY    -392.6235
        XZ       7.3806     YZ       9.0897     ZZ    -434.3196

 Total job time:  80.85s(wall), 948.27s(cpu)
        *  Thank you very much for using Q-Chem.  Have a nice day.  *
