 Q-Chem 4.4, Q-Chem, Inc., Pleasanton, CA (2016)
 Q-Chem 4.4.2 for Intel X86 Linux

User input:
--------------------------------------------------------------
$comment
SP
$end

$rem
MEM_STATIC 5000
MEM_TOTAL 20000
JOBTYPE SP
EXCHANGE B3LYP
BASIS 6-31g(d,p)
$end

$molecule
0 1
C         -20.676000     11.641000     14.262000
C         -21.286000     12.213000     13.142000
N         -20.888000     10.394000     14.658000
C         -22.053000     11.427000     12.323000
C         -21.719000      9.644000     13.849000
C         -22.381000     10.109000     12.688000
C         -23.264000      9.205000     11.819000
C         -23.461000      9.426000     10.446000
C         -24.131000      8.098000     12.340000
N         -24.135000      8.594000      9.634000
N         -24.173000      7.751000     13.646000
C         -24.784000      7.246000     11.458000
C         -24.758000      7.537000     10.064000
S         -25.043000      6.388000     13.589000
N         -25.383000      6.206000     12.040000
C         -25.586000      6.874000      9.111000
S         -26.697000      5.524000      9.483000
C         -25.791000      7.066000      7.716000
C         -27.087000      5.078000      7.782000
S         -25.060000      8.269000      6.602000
C         -26.535000      6.079000      7.056000
C         -28.047000      4.082000      7.359000
C         -26.049000      7.506000      5.286000
C         -26.703000      6.332000      5.662000
N         -27.940000      3.635000      6.117000
S         -29.165000      3.291000      8.413000
C         -28.835000      2.582000      5.945000
C         -29.503000      2.201000      7.096000
C         -19.833000     12.541000     15.165000
H         -21.116000     13.271000     12.965000
H         -22.527000     11.890000     11.464000
H         -21.846000      8.635000     14.238000
H         -23.128000     10.357000      9.991000
H         -25.937000      7.884000      4.279000
H         -27.278000      5.744000      4.957000
H         -28.936000      2.102000      4.982000
H         -30.303000      1.474000      7.146000
H         -19.178000     13.015000     14.424000
C         -18.860000     11.840000     16.180000
H         -20.499000     13.219000     15.715000
H         -18.218000     11.205000     15.559000
H         -19.292000     11.268000     17.010000
C         -17.962000     12.818000     16.885000
H         -17.289000     12.185000     17.476000
C         -18.618000     13.800000     17.885000
H         -17.347000     13.236000     16.079000
H         -19.513000     13.314000     18.292000
H         -18.942000     14.689000     17.330000
C         -17.746000     14.435000     18.966000
H         -17.432000     13.577000     19.573000
C         -18.614000     15.356000     19.896000
H         -16.874000     14.956000     18.552000
H         -19.153000     14.782000     20.660000
H         -19.233000     16.006000     19.267000
H         -17.901000     15.871000     20.552000
C         -23.936000      9.814000     -8.354000
C         -24.076000      8.493000     -8.488000
N         -24.026000     10.381000     -7.127000
C         -24.252000      7.580000     -7.407000
C         -24.251000      9.592000     -6.097000
C         -24.315000      8.185000     -6.154000
C         -24.604000      7.415000     -4.861000
C         -25.100000      8.001000     -3.665000
C         -24.075000      6.132000     -4.644000
N         -25.358000      7.381000     -2.543000
N         -23.391000      5.439000     -5.556000
C         -24.237000      5.484000     -3.467000
C         -24.899000      6.154000     -2.396000
S         -23.038000      4.048000     -4.824000
N         -23.781000      4.253000     -3.407000
C         -25.200000      5.470000     -1.118000
S         -24.767000      3.824000     -0.546000
C         -25.880000      6.103000     -0.102000
C         -25.583000      4.027000      0.926000
S         -26.630000      7.671000     -0.004000
C         -26.090000      5.316000      0.992000
C         -25.709000      2.908000      1.960000
C         -27.077000      7.342000      1.645000
C         -26.847000      5.971000      2.020000
N         -25.281000      1.715000      1.680000
S         -26.554000      2.998000      3.486000
C         -25.477000      0.778000      2.734000
C         -26.052000      1.395000      3.773000
C         -23.662000     10.737000     -9.508000
H         -23.979000      8.125000     -9.507000
H         -24.583000      6.548000     -7.469000
H         -24.161000     10.151000     -5.165000
H         -25.381000      9.052000     -3.698000
H         -27.540000      8.054000      2.315000
H         -27.266000      5.515000      2.910000
H         -25.086000     -0.228000      2.662000
H         -26.104000      1.024000      4.787000
H         -22.949000     11.501000     -9.174000
C         -25.010000     11.181000    -10.160000
H         -23.149000     10.149000    -10.280000
H         -25.521000     11.787000     -9.403000
H         -25.606000     10.286000    -10.376000
C         -24.916000     11.963000    -11.444000
H         -24.257000     11.390000    -12.109000
C         -24.390000     13.332000    -11.291000
H         -25.871000     11.860000    -11.975000
H         -23.354000     13.090000    -11.024000
H         -24.795000     13.892000    -10.440000
C         -24.473000     14.143000    -12.553000
H         -24.297000     13.509000    -13.431000
C         -23.584000     15.318000    -12.506000
H         -25.516000     14.478000    -12.622000
H         -24.063000     16.243000    -12.161000
H         -23.246000     15.659000    -13.492000
H         -22.730000     15.213000    -11.826000
$end

--------------------------------------------------------------

             Standard Nuclear Orientation (Angstroms)
    I     Atom           X                Y                Z
 ----------------------------------------------------------------
    1      C      10.9781087519     4.3449344595    -0.5545998887
    2      C       9.8314357669     4.6468439634     0.1854512697
    3      N      11.2808830847     3.1254168133    -0.9763503054
    4      C       8.8931594813     3.6706454560     0.3940659529
    5      C      10.3475773252     2.1473277481    -0.6938186440
    6      C       9.1488058675     2.3353309411     0.0341867074
    7      C       8.1419978209     1.2047805928     0.2796647458
    8      C       6.7697371573     1.4357272475     0.4703039701
    9      C       8.5057746917    -0.2331002366     0.5004454261
   10      N       5.8459534671     0.4655360372     0.5761184730
   11      N       9.7789264749    -0.6848436083     0.4473279805
   12      C       7.5136859749    -1.2029789481     0.5734677702
   13      C       6.1484217787    -0.7985380861     0.6062437325
   14      S       9.5547545876    -2.2862633282     0.5031835595
   15      N       7.9705520683    -2.4558193778     0.6015610169
   16      C       5.0771987299    -1.6856568495     0.9206693668
   17      S       5.2535970063    -3.4392952405     1.2187315106
   18      C       3.6806669723    -1.4814460882     1.1020832998
   19      C       3.4988293897    -3.8457474103     1.2166710478
   20      S       2.7187466828     0.0312903311     1.0077229156
   21      C       2.8918357425    -2.6353527276     1.1998061657
   22      C       2.9214782386    -5.1389598198     1.5113103394
   23      C       1.2643988839    -0.9854624715     1.3861832414
   24      C       1.5035881042    -2.3602794462     1.3802838222
   25      N       1.6759155479    -5.3450774791     1.1114214873
   26      S       3.8043785888    -6.4836157367     2.1429023254
   27      C       1.3516581256    -6.6803642122     1.3378822219
   28      C       2.4015738872    -7.4575700103     1.7959368487
   29      C      12.0141369283     5.4486774696    -0.7654433976
   30      H       9.7313053260     5.6605432290     0.5622545257
   31      H       8.0143530581     3.9200581757     0.9792313703
   32      H      10.6654478358     1.1758208210    -1.0688701459
   33      H       6.4043514049     2.4493537312     0.6243481311
   34      H       0.2972901486    -0.5023703990     1.4144629779
   35      H       0.7099022582    -3.0818402376     1.5313030338
   36      H       0.3588331630    -7.0467153658     1.1186667438
   37      H       2.3255784878    -8.4872252426     2.1200723172
   38      H      11.3748535486     6.2580592201    -1.1382703582
   39      C      13.0887569329     5.2271202040    -1.8899251555
   40      H      12.5249522481     5.6451935381     0.1864962769
   41      H      12.5071978094     5.0628545678    -2.8041657073
   42      H      13.8351441236     4.4354379049    -1.7526178398
   43      C      13.9383850621     6.4454448191    -2.1217228565
   44      H      14.5634202932     6.1758518554    -2.9816935501
   45      C      14.9134365317     6.8632598193    -0.9950617462
   46      H      13.2272321839     7.1932437046    -2.4927261055
   47      H      15.1946218811     5.9577419291    -0.4438429604
   48      H      14.3756358809     7.5235328752    -0.3035908852
   49      C      16.1149557806     7.7352481751    -1.3530530895
   50      H      16.7049747263     7.0914344986    -2.0168230750
   51      C      16.9943493757     8.0019963514    -0.0794450984
   52      H      15.8262339591     8.6601569980    -1.8672557530
   53      H      17.6635681554     7.1619590372     0.1445560975
   54      H      16.3383367861     8.3169704289     0.7401528597
   55      H      17.7503307633     8.7343896062    -0.3893196893
   56      C     -11.9231120174     3.4332880548    -0.1647626033
   57      C     -12.1427005526     2.2394761718    -0.7208121184
   58      N     -10.6841138909     3.7527314493     0.2801616152
   59      C     -11.1379798546     1.2562942268    -0.9595495934
   60      C      -9.7285979713     2.8570798153     0.1428900677
   61      C      -9.8682033565     1.6192848542    -0.5169341291
   62      C      -8.6574856639     0.6815328545    -0.5721958337
   63      C      -7.4920301458     0.8182189278     0.2295886465
   64      C      -8.4544156488    -0.1817600849    -1.6614647949
   65      N      -6.4396036559     0.0423685285     0.2121920569
   66      N      -9.3234550265    -0.3456408335    -2.6603454985
   67      C      -7.3385499589    -0.9394587476    -1.7719794942
   68      C      -6.3105436884    -0.8004950990    -0.7931653075
   69      S      -8.6339775771    -1.4416660072    -3.6188149375
   70      N      -7.2963941697    -1.7784687672    -2.7825150336
   71      C      -5.1113583048    -1.6686479437    -0.7956258429
   72      S      -4.5858768985    -2.9282494075    -1.9623573647
   73      C      -4.1418934877    -1.5649559892     0.1763468660
   74      C      -3.2016785016    -3.3086988119    -1.0606356512
   75      S      -4.0406876093    -0.5981572871     1.6205717930
   76      C      -3.1211189978    -2.4578811390     0.0314016438
   77      C      -2.2493650727    -4.4396247589    -1.4496069041
   78      C      -2.4697580549    -1.2708198734     1.9476136555
   79      C      -2.1468580338    -2.3748144007     1.0815318696
   80      N      -2.5456890845    -5.2254959667    -2.4392692328
   81      S      -0.8208029427    -4.9372911789    -0.5764864226
   82      C      -1.5712269348    -6.2365805091    -2.6747104498
   83      C      -0.5684689794    -6.0966851523    -1.7996442968
   84      C     -12.9891864916     4.4812792282    -0.0100993697
   85      H     -13.1636979332     2.0738719286    -1.0574626545
   86      H     -11.2910638858     0.2089367529    -1.2004574626
   87      H      -8.7634592029     3.2891171210     0.4094532392
   88      H      -7.4982431317     1.5866665030     1.0003679423
   89      H      -1.8160818453    -0.9560254727     2.7500006559
   90      H      -1.3332314443    -3.0661882919     1.2702404162
   91      H      -1.6549458746    -6.9008656816    -3.5243087954
   92      H       0.4124397651    -6.5445669004    -1.8755453814
   93      H     -12.5393809766     5.4606485344    -0.2153595967
   94      C     -13.7578160231     4.2580175419     1.3310594064
   95      H     -13.7320151642     4.3084873107    -0.7995583721
   96      H     -13.0286881822     4.4488229301     2.1269060596
   97      H     -14.0849496599     3.2121930800     1.3772305936
   98      C     -14.9799858340     5.1080529645     1.5607477463
   99      H     -15.6000353452     5.0100958291     0.6603156259
  100      C     -14.6972998121     6.5335705197     1.8102158062
  101      H     -15.6156974330     4.5972760181     2.2953038530
  102      H     -14.3335852484     6.8142744822     0.8141907053
  103      H     -13.8659128501     6.7280664900     2.4978152804
  104      C     -15.9151553192     7.3181823485     2.2082939918
  105      H     -16.8020515837     6.9486097064     1.6785326509
  106      C     -15.7090314368     8.7681768183     2.0404131336
  107      H     -16.0780408425     7.0940693963     3.2704035393
  108      H     -15.3681827489     9.2912776113     2.9427870763
  109      H     -16.6329156868     9.3298670328     1.8569383519
  110      H     -14.9475568362     9.0344563068     1.2974510440
 ----------------------------------------------------------------

    9   -5663.4952118125      6.28E-06 Convergence criterion met
 Total energy in the final basis set = -5663.4952118125

                    Orbital Energies (a.u.)
 --------------------------------------------------------------

 Alpha MOs
 -- Occupied --
-88.989 -88.985 -88.938 -88.923 -88.919 -88.918 -88.912 -88.910
-14.392 -14.390 -14.383 -14.376 -14.354 -14.347 -14.346 -14.336
-14.331 -14.321 -10.279 -10.267 -10.265 -10.262 -10.258 -10.257
-10.248 -10.244 -10.244 -10.243 -10.242 -10.241 -10.240 -10.239
-10.239 -10.238 -10.235 -10.235 -10.228 -10.228 -10.227 -10.226
-10.225 -10.225 -10.222 -10.221 -10.219 -10.219 -10.215 -10.214
-10.214 -10.210 -10.210 -10.206 -10.203 -10.198 -10.198 -10.191
-10.188 -10.183 -10.179 -10.179 -10.175 -10.175 -10.175 -10.172
-10.171 -10.169 -10.168 -10.165  -8.046  -8.041  -7.999  -7.982
 -7.980  -7.978  -7.972  -7.969  -6.011  -6.006  -6.005  -6.004
 -6.001  -5.999  -5.963  -5.959  -5.956  -5.946  -5.944  -5.942
 -5.942  -5.940  -5.939  -5.938  -5.936  -5.936  -5.935  -5.933
 -5.932  -5.930  -5.928  -5.925  -1.058  -1.056  -0.978  -0.974
 -0.972  -0.964  -0.943  -0.940  -0.922  -0.919  -0.913  -0.908
 -0.845  -0.835  -0.833  -0.831  -0.818  -0.818  -0.812  -0.806
 -0.806  -0.804  -0.802  -0.795  -0.790  -0.784  -0.772  -0.766
 -0.754  -0.753  -0.743  -0.741  -0.728  -0.714  -0.711  -0.710
 -0.694  -0.693  -0.676  -0.674  -0.661  -0.656  -0.649  -0.648
 -0.643  -0.634  -0.631  -0.628  -0.614  -0.605  -0.600  -0.595
 -0.594  -0.592  -0.587  -0.581  -0.581  -0.578  -0.567  -0.563
 -0.554  -0.547  -0.544  -0.541  -0.531  -0.523  -0.520  -0.512
 -0.510  -0.506  -0.503  -0.496  -0.488  -0.487  -0.483  -0.482
 -0.480  -0.474  -0.473  -0.469  -0.467  -0.459  -0.456  -0.452
 -0.451  -0.445  -0.444  -0.437  -0.436  -0.433  -0.432  -0.431
 -0.429  -0.426  -0.425  -0.423  -0.421  -0.418  -0.417  -0.417
 -0.413  -0.410  -0.409  -0.407  -0.405  -0.400  -0.399  -0.397
 -0.396  -0.392  -0.391  -0.391  -0.389  -0.388  -0.387  -0.387
 -0.386  -0.379  -0.378  -0.372  -0.365  -0.362  -0.361  -0.358
 -0.354  -0.353  -0.352  -0.350  -0.349  -0.348  -0.343  -0.339
 -0.339  -0.336  -0.334  -0.332  -0.327  -0.325  -0.319  -0.315
 -0.315  -0.313  -0.311  -0.311  -0.308  -0.304  -0.302  -0.300
 -0.299  -0.298  -0.296  -0.296  -0.291  -0.283  -0.280  -0.276
 -0.271  -0.271  -0.267  -0.264  -0.257  -0.256  -0.253  -0.248
 -0.247  -0.245  -0.234  -0.230  -0.199  -0.192

          Ground-State Mulliken Net Atomic Charges

     Atom                 Charge (a.u.)
  ----------------------------------------
      1 C                     0.268480
      2 C                    -0.102172
      3 N                    -0.477251
      4 C                    -0.082693
      5 C                     0.059146
      6 C                     0.050653
      7 C                     0.036995
      8 C                     0.051690
      9 C                     0.193205
     10 N                    -0.529994
     11 N                    -0.520233
     12 C                     0.190890
     13 C                     0.359793
     14 S                     0.599965
     15 N                    -0.534771
     16 C                    -0.236932
     17 S                     0.293755
     18 C                    -0.108432
     19 C                    -0.220294
     20 S                     0.264881
     21 C                     0.143766
     22 C                     0.044340
     23 C                    -0.319406
     24 C                    -0.032045
     25 N                    -0.431873
     26 S                     0.296233
     27 C                     0.113781
     28 C                    -0.309964
     29 C                    -0.233145
     30 H                     0.091640
     31 H                     0.097802
     32 H                     0.117646
     33 H                     0.108909
     34 H                     0.127985
     35 H                     0.121778
     36 H                     0.124443
     37 H                     0.137164
     38 H                     0.103893
     39 C                    -0.169972
     40 H                     0.122858
     41 H                     0.096464
     42 H                     0.104921
     43 C                    -0.182932
     44 H                     0.086196
     45 C                    -0.166503
     46 H                     0.082194
     47 H                     0.091316
     48 H                     0.087116
     49 C                    -0.181432
     50 H                     0.091807
     51 C                    -0.320441
     52 H                     0.098414
     53 H                     0.107479
     54 H                     0.105422
     55 H                     0.100364
     56 C                     0.275949
     57 C                    -0.129968
     58 N                    -0.481363
     59 C                    -0.051554
     60 C                     0.065025
     61 C                     0.051247
     62 C                     0.012685
     63 C                     0.056101
     64 C                     0.227734
     65 N                    -0.522943
     66 N                    -0.549620
     67 C                     0.226860
     68 C                     0.317671
     69 S                     0.590641
     70 N                    -0.558867
     71 C                    -0.249499
     72 S                     0.363773
     73 C                    -0.106349
     74 C                    -0.230692
     75 S                     0.305987
     76 C                     0.147806
     77 C                     0.065088
     78 C                    -0.329416
     79 C                    -0.084930
     80 N                    -0.447228
     81 S                     0.316830
     82 C                     0.113656
     83 C                    -0.323865
     84 C                    -0.221421
     85 H                     0.077652
     86 H                     0.117770
     87 H                     0.098464
     88 H                     0.103486
     89 H                     0.129060
     90 H                     0.103661
     91 H                     0.122537
     92 H                     0.138288
     93 H                     0.119247
     94 C                    -0.177921
     95 H                     0.091497
     96 H                     0.109218
     97 H                     0.089672
     98 C                    -0.183845
     99 H                     0.085639
    100 C                    -0.160362
    101 H                     0.083846
    102 H                     0.094850
    103 H                     0.094503
    104 C                    -0.167273
    105 H                     0.092955
    106 C                    -0.325726
    107 H                     0.098151
    108 H                     0.101135
    109 H                     0.097446
    110 H                     0.103822
  ----------------------------------------
  Sum of atomic charges =     0.000000

                    Cartesian Multipole Moments
 -----------------------------------------------------------------
    Charge (ESU x 10^10)
                 0.0000
    Dipole Moment (Debye)
         X       0.9954      Y      -2.3144      Z       1.3309
       Tot       2.8493
    Quadrupole Moments (Debye-Ang)
        XX    -422.9053     XY       5.3608     YY    -401.8543
        XZ      12.3945     YZ      -2.4201     ZZ    -445.0871

 Total job time:  81.87s(wall), 944.37s(cpu)
        *  Thank you very much for using Q-Chem.  Have a nice day.  *
