 Q-Chem 4.4, Q-Chem, Inc., Pleasanton, CA (2016)
 Q-Chem 4.4.2 for Intel X86 Linux

User input:
--------------------------------------------------------------
$comment
SP
$end

$rem
MEM_STATIC 5000
MEM_TOTAL 20000
JOBTYPE SP
EXCHANGE B3LYP
BASIS 6-31g(d,p)
$end

$molecule
0 1
C         -17.861000     22.141000     -5.438000
C         -18.497000     22.139000     -4.105000
N         -17.845000     21.041000     -6.233000
C         -19.061000     20.942000     -3.684000
C         -18.499000     19.980000     -5.793000
C         -19.065000     19.852000     -4.538000
C         -19.758000     18.617000     -4.120000
C         -20.673000     18.014000     -5.043000
C         -19.469000     17.822000     -2.959000
N         -21.314000     16.882000     -4.745000
N         -18.533000     18.127000     -2.061000
C         -20.243000     16.705000     -2.692000
C         -21.157000     16.262000     -3.630000
S         -18.674000     16.950000     -0.897000
N         -19.855000     16.101000     -1.540000
C         -22.050000     15.112000     -3.282000
S         -22.400000     14.521000     -1.605000
C         -22.976000     14.574000     -4.095000
C         -23.764000     13.529000     -2.177000
S         -23.126000     14.834000     -5.786000
C         -23.912000     13.768000     -3.550000
C         -24.314000     12.449000     -1.398000
C         -24.488000     13.709000     -5.875000
C         -24.754000     13.185000     -4.599000
N         -25.187000     11.663000     -1.962000
S         -23.718000     11.979000      0.152000
C         -25.397000     10.538000     -1.109000
C         -24.644000     10.527000      0.003000
C         -17.166000     23.370000     -6.018000
H         -18.470000     23.042000     -3.501000
H         -19.638000     20.897000     -2.765000
H         -18.531000     19.182000     -6.532000
H         -20.915000     18.308000     -6.063000
H         -24.912000     13.477000     -6.842000
H         -25.342000     12.277000     -4.532000
H         -26.038000      9.808000     -1.588000
H         -24.417000      9.719000      0.687000
H         -16.150000     23.378000     -5.605000
C         -17.833000     24.675000     -5.700000
H         -17.102000     23.241000     -7.106000
H         -17.218000     25.498000     -6.084000
H         -17.815000     24.768000     -4.608000
C         -19.263000     24.852000     -6.154000
H         -19.912000     24.228000     -5.528000
C         -19.411000     24.522000     -7.598000
H         -19.467000     25.909000     -5.946000
H         -20.473000     24.634000     -7.848000
H         -19.153000     23.476000     -7.809000
C         -18.635000     25.413000     -8.615000
H         -19.019000     26.433000     -8.743000
C         -18.600000     24.759000     -9.973000
H         -17.590000     25.379000     -8.285000
H         -18.264000     25.423000    -10.779000
H         -19.524000     24.269000    -10.305000
H         -17.940000     23.884000     -9.988000
C         -15.039000     14.557000      8.969000
C         -14.291000     15.191000      7.979000
N         -16.300000     14.947000      9.243000
C         -14.767000     16.330000      7.297000
C         -16.768000     16.047000      8.625000
C         -16.042000     16.782000      7.622000
C         -16.725000     17.852000      6.944000
C         -17.909000     17.725000      6.295000
C         -16.041000     19.099000      6.820000
N         -18.448000     18.631000      5.504000
N         -14.903000     19.384000      7.432000
C         -16.645000     20.055000      6.004000
C         -17.910000     19.812000      5.343000
S         -14.614000     20.903000      6.905000
N         -15.836000     21.159000      5.832000
C         -18.435000     20.839000      4.449000
S         -18.586000     22.548000      4.720000
C         -19.105000     20.572000      3.282000
C         -19.404000     22.847000      3.217000
S         -19.126000     19.068000      2.418000
C         -19.567000     21.648000      2.570000
C         -19.995000     24.063000      2.764000
C         -19.938000     19.877000      1.115000
C         -20.151000     21.175000      1.304000
N         -20.382000     24.212000      1.512000
S         -20.093000     25.590000      3.728000
C         -20.899000     25.530000      1.276000
C         -20.805000     26.359000      2.359000
C         -14.614000     13.184000      9.580000
H         -13.370000     14.735000      7.629000
H         -14.092000     16.786000      6.578000
H         -17.797000     16.321000      8.856000
H         -18.412000     16.764000      6.386000
H         -20.211000     19.251000      0.275000
H         -20.648000     21.873000      0.640000
H         -21.330000     25.791000      0.319000
H         -20.969000     27.420000      2.491000
H         -13.705000     12.870000      9.052000
C         -15.597000     11.980000      9.668000
H         -14.169000     13.364000     10.566000
H         -15.084000     11.017000      9.552000
H         -16.304000     12.109000      8.840000
C         -16.405000     11.955000     11.002000
H         -16.778000     12.921000     11.363000
C         -15.416000     11.460000     12.120000
H         -17.230000     11.244000     10.863000
H         -14.420000     11.920000     12.108000
H         -15.082000     10.434000     11.920000
C         -16.089000     11.643000     13.535000
H         -16.734000     12.515000     13.701000
C         -15.103000     11.369000     14.710000
H         -16.815000     10.824000     13.609000
H         -15.553000     11.587000     15.686000
H         -14.298000     12.106000     14.597000
H         -14.767000     10.325000     14.717000
$end

--------------------------------------------------------------

             Standard Nuclear Orientation (Angstroms)
    I     Atom           X                Y                Z
 ----------------------------------------------------------------
    1      C      -6.8119178901    -2.9927878338     2.3917418135
    2      C      -5.7689513060    -2.9749939290     1.3461352520
    3      N      -7.2123182896    -1.8653307698     3.0326794773
    4      C      -5.1899880429    -1.7451564935     1.0625027043
    5      C      -6.6808693041    -0.7271578388     2.6213871785
    6      C      -5.6528519158    -0.6088407473     1.7043559276
    7      C      -5.1013868782     0.7058355941     1.3200247818
    8      C      -6.0235360945     1.7652804103     1.0372165356
    9      C      -3.7260154471     1.1138694298     1.3930235189
   10      N      -5.5975545639     2.9872457021     0.7109504460
   11      N      -2.7335633950     0.3205652758     1.7945611178
   12      C      -3.3697888122     2.3790414778     0.9565647311
   13      C      -4.3522683780     3.2957485980     0.6311865535
   14      S      -1.3631363307     1.2404511715     1.6052317742
   15      N      -2.0310787000     2.5773131387     1.0614817656
   16      C      -3.9453863014     4.6228667898     0.0706000028
   17      S      -2.3355797027     5.0042299502    -0.6691261996
   18      C      -4.7890244826     5.6087028891    -0.2819490073
   19      C      -2.9475843923     6.5291651512    -1.3559790897
   20      S      -6.4537463357     5.7230024535     0.1245208702
   21      C      -4.3147138317     6.6068391885    -1.0575199804
   22      C      -2.0715418512     7.5858226506    -1.7938893490
   23      C      -6.5844078857     7.2842966848    -0.6963797831
   24      C      -5.3376693502     7.6416726698    -1.2362255291
   25      N      -2.5999925414     8.7328456330    -2.1149799062
   26      S      -0.3501714127     7.5135714433    -1.6925011033
   27      C      -1.5484798091     9.6859831923    -2.2672420709
   28      C      -0.3185873184     9.2127913511    -2.0081514635
   29      C      -7.5092533595    -4.2748472729     2.8388579479
   30      H      -5.4735692328    -3.9076675021     0.8730354349
   31      H      -4.4967010220    -1.6397904621     0.2331860542
   32      H      -7.1319001514     0.1356294031     3.1073072853
   33      H      -7.1100382299     1.7685764956     1.1072325744
   34      H      -7.5189216668     7.8253338896    -0.6448847749
   35      H      -5.1738862192     8.6800842791    -1.4999932598
   36      H      -1.9510435741    10.6778702478    -2.4325432629
   37      H       0.6070213831     9.7388963533    -1.8114002039
   38      H      -6.8511494229    -4.7463590350     3.5787666361
   39      C      -7.7863695436    -5.2538836157     1.7371626814
   40      H      -8.4488631103    -3.9949964691     3.3321104631
   41      H      -8.2076989823    -6.1710373546     2.1664883425
   42      H      -6.8097374357    -5.5335315075     1.3255514786
   43      C      -8.6513725586    -4.7827447053     0.5916746146
   44      H      -8.0764560626    -4.0744682032    -0.0168222377
   45      C      -9.9167028954    -4.1773781234     1.0900825200
   46      H      -8.8276182306    -5.6972347881     0.0130777329
   47      H     -10.4736706887    -3.8249055938     0.2134765691
   48      H      -9.7314012491    -3.2932225155     1.7138879071
   49      C     -10.8921865743    -5.1091743206     1.8714489124
   50      H     -11.4150153618    -5.8625405498     1.2686808113
   51      C     -11.9329895257    -4.2959317422     2.5984088322
   52      H     -10.2896283653    -5.5395341399     2.6800248399
   53      H     -12.7713597907    -4.8883110088     2.9852551884
   54      H     -12.3501557447    -3.4373541159     2.0571909414
   55      H     -11.5066704767    -3.7559989790     3.4517403503
   56      C       9.3741027729     0.2996444815     1.9280462798
   57      C       8.4908399635    -0.3931715132     2.7535236006
   58      N       9.1596174883     0.3868362385     0.6000061222
   59      C       7.4007859090    -1.1231499269     2.2358995344
   60      C       8.1417603277    -0.3219517336     0.0779578378
   61      C       7.2108874887    -1.0955076047     0.8579559609
   62      C       6.0871219033    -1.6836021025     0.1779789240
   63      C       5.2012757181    -0.9985831126    -0.5870122653
   64      C       5.7985649533    -3.0564013071     0.4433055731
   65      N       4.0622694574    -1.4743153354    -1.0489447173
   66      N       6.5914668145    -3.8603699179     1.1330548835
   67      C       4.6039541488    -3.5479705216    -0.0819303101
   68      C       3.7185893696    -2.7244683679    -0.8782772260
   69      S       5.7446719093    -5.2572340804     1.1151691334
   70      N       4.3481734090    -4.8312980332     0.3545644908
   71      C       2.4538028121    -3.2974522247    -1.3272699474
   72      S       2.1588627067    -4.8339424062    -2.0816778321
   73      C       1.2781599014    -2.5950422761    -1.4082761863
   74      C       0.4688315109    -4.5290265770    -2.3431255219
   75      S       0.9227410923    -1.0753946264    -0.6511094340
   76      C       0.1830212176    -3.2681892183    -1.8833640281
   77      C      -0.4663105140    -5.3237912749    -3.0690762559
   78      C      -0.7321307737    -1.2693064973    -1.1363220610
   79      C      -0.9988847572    -2.3953514924    -1.7895899856
   80      N      -1.7628777786    -5.0930221371    -2.9974317617
   81      S      -0.0592672243    -6.8355002575    -3.9744384553
   82      C      -2.5088277974    -6.0462556794    -3.7688028678
   83      C      -1.7349672707    -7.0204688147    -4.3353844173
   84      C      10.4535957441     1.2735758573     2.4983335761
   85      H       8.5605539649    -0.2759465346     3.8305915012
   86      H       6.7972658832    -1.6732486979     2.9526121132
   87      H       7.9864816994    -0.2119979796    -0.9949245973
   88      H       5.4261921383     0.0508195217    -0.7686099387
   89      H      -1.3930030609    -0.4516796100    -0.8779829562
   90      H      -1.9490820614    -2.7208240388    -2.1973910456
   91      H      -3.5806146417    -5.9508308067    -3.8778810689
   92      H      -1.9707754489    -7.9409398388    -4.8522679601
   93      H      10.3155375769     1.2975251634     3.5864637949
   94      C      10.6134349437     2.7292902368     1.9701327850
   95      H      11.4265703140     0.7682422816     2.4742615255
   96      H      10.9322574169     3.4232292043     2.7580381981
   97      H       9.6215420864     3.0287881433     1.6116309530
   98      C      11.6162031751     2.8342774373     0.7799737360
   99      H      11.5595590011     2.0411897929     0.0247191922
  100      C      13.0590783739     2.7072052378     1.3923737824
  101      H      11.4678855919     3.8214538616     0.3228614939
  102      H      13.1904028352     1.9073154768     2.1317588350
  103      H      13.2697254411     3.5419478862     2.0728622276
  104      C      14.1125443347     2.5575746838     0.2277007953
  105      H      13.8294008721     1.9885003337    -0.6666979768
  106      C      15.5419604450     2.2216293189     0.7490522079
  107      H      14.2182553999     3.5675352254    -0.1871701185
  108      H      16.2456484566     2.0297906789    -0.0698623899
  109      H      15.4465842109     1.2621224031     1.2727055785
  110      H      15.9477865092     3.0361833790     1.3611697528
 ----------------------------------------------------------------

   10   -5663.5073527125      9.29E-06 Convergence criterion met
 Total energy in the final basis set = -5663.5073527125

                    Orbital Energies (a.u.)
 --------------------------------------------------------------

 Alpha MOs
 -- Occupied --
-88.992 -88.989 -88.932 -88.922 -88.921 -88.920 -88.905 -88.897
-14.397 -14.390 -14.387 -14.380 -14.351 -14.350 -14.343 -14.338
-14.333 -14.330 -10.275 -10.270 -10.263 -10.259 -10.258 -10.256
-10.255 -10.250 -10.243 -10.242 -10.242 -10.240 -10.238 -10.237
-10.236 -10.235 -10.234 -10.233 -10.232 -10.228 -10.228 -10.227
-10.226 -10.222 -10.221 -10.221 -10.218 -10.216 -10.216 -10.215
-10.209 -10.209 -10.208 -10.207 -10.206 -10.202 -10.196 -10.196
-10.188 -10.183 -10.183 -10.177 -10.177 -10.176 -10.176 -10.175
-10.173 -10.172 -10.170 -10.166  -8.048  -8.046  -7.992  -7.984
 -7.984  -7.979  -7.967  -7.958  -6.013  -6.010  -6.007  -6.006
 -6.005  -6.003  -5.957  -5.953  -5.949  -5.948  -5.948  -5.944
 -5.944  -5.943  -5.941  -5.941  -5.939  -5.935  -5.932  -5.928
 -5.923  -5.923  -5.919  -5.915  -1.046  -1.046  -0.978  -0.975
 -0.967  -0.961  -0.943  -0.941  -0.927  -0.914  -0.914  -0.906
 -0.859  -0.845  -0.837  -0.836  -0.820  -0.815  -0.814  -0.809
 -0.805  -0.800  -0.797  -0.796  -0.783  -0.781  -0.769  -0.766
 -0.750  -0.748  -0.741  -0.737  -0.735  -0.722  -0.713  -0.712
 -0.695  -0.691  -0.679  -0.677  -0.659  -0.656  -0.651  -0.648
 -0.642  -0.636  -0.628  -0.628  -0.616  -0.616  -0.600  -0.597
 -0.593  -0.591  -0.588  -0.587  -0.582  -0.580  -0.568  -0.554
 -0.550  -0.549  -0.547  -0.546  -0.530  -0.521  -0.516  -0.512
 -0.512  -0.508  -0.507  -0.499  -0.497  -0.488  -0.483  -0.479
 -0.476  -0.476  -0.474  -0.470  -0.465  -0.456  -0.454  -0.453
 -0.449  -0.445  -0.443  -0.440  -0.438  -0.435  -0.434  -0.432
 -0.429  -0.428  -0.426  -0.420  -0.420  -0.417  -0.416  -0.416
 -0.413  -0.412  -0.411  -0.406  -0.404  -0.402  -0.400  -0.398
 -0.398  -0.396  -0.393  -0.391  -0.389  -0.388  -0.387  -0.387
 -0.378  -0.378  -0.373  -0.371  -0.369  -0.361  -0.357  -0.355
 -0.351  -0.351  -0.350  -0.348  -0.348  -0.344  -0.343  -0.342
 -0.340  -0.340  -0.335  -0.331  -0.330  -0.329  -0.327  -0.321
 -0.319  -0.312  -0.311  -0.310  -0.305  -0.301  -0.301  -0.299
 -0.298  -0.293  -0.292  -0.289  -0.286  -0.283  -0.282  -0.282
 -0.274  -0.272  -0.269  -0.262  -0.256  -0.255  -0.254  -0.252
 -0.247  -0.246  -0.240  -0.233  -0.202  -0.192

          Ground-State Mulliken Net Atomic Charges

     Atom                 Charge (a.u.)
  ----------------------------------------
      1 C                     0.259002
      2 C                    -0.118272
      3 N                    -0.475769
      4 C                    -0.059061
      5 C                     0.077167
      6 C                     0.063314
      7 C                    -0.037067
      8 C                     0.052906
      9 C                     0.250774
     10 N                    -0.513969
     11 N                    -0.570632
     12 C                     0.194263
     13 C                     0.337911
     14 S                     0.609355
     15 N                    -0.540884
     16 C                    -0.221952
     17 S                     0.301608
     18 C                    -0.104302
     19 C                    -0.253036
     20 S                     0.269732
     21 C                     0.171604
     22 C                     0.091103
     23 C                    -0.303909
     24 C                    -0.074671
     25 N                    -0.441625
     26 S                     0.269193
     27 C                     0.115505
     28 C                    -0.309717
     29 C                    -0.230654
     30 H                     0.101315
     31 H                     0.104810
     32 H                     0.098346
     33 H                     0.124392
     34 H                     0.133119
     35 H                     0.123708
     36 H                     0.114819
     37 H                     0.140738
     38 H                     0.117265
     39 C                    -0.188859
     40 H                     0.121513
     41 H                     0.096443
     42 H                     0.081807
     43 C                    -0.168356
     44 H                     0.092247
     45 C                    -0.179865
     46 H                     0.089869
     47 H                     0.085749
     48 H                     0.108513
     49 C                    -0.171605
     50 H                     0.095554
     51 C                    -0.326743
     52 H                     0.099597
     53 H                     0.096114
     54 H                     0.098944
     55 H                     0.104477
     56 C                     0.271438
     57 C                    -0.128873
     58 N                    -0.469906
     59 C                    -0.036199
     60 C                     0.071605
     61 C                     0.014179
     62 C                     0.026088
     63 C                     0.061352
     64 C                     0.241305
     65 N                    -0.509494
     66 N                    -0.541867
     67 C                     0.164618
     68 C                     0.294934
     69 S                     0.595055
     70 N                    -0.533130
     71 C                    -0.203674
     72 S                     0.328695
     73 C                    -0.113842
     74 C                    -0.237124
     75 S                     0.259997
     76 C                     0.153165
     77 C                     0.073087
     78 C                    -0.307169
     79 C                    -0.030911
     80 N                    -0.452081
     81 S                     0.248686
     82 C                     0.111446
     83 C                    -0.298646
     84 C                    -0.229034
     85 H                     0.091800
     86 H                     0.108579
     87 H                     0.104640
     88 H                     0.111155
     89 H                     0.130426
     90 H                     0.122641
     91 H                     0.119115
     92 H                     0.142412
     93 H                     0.088367
     94 C                    -0.174570
     95 H                     0.116267
     96 H                     0.094942
     97 H                     0.097216
     98 C                    -0.172384
     99 H                     0.120099
    100 C                    -0.177064
    101 H                     0.090979
    102 H                     0.088162
    103 H                     0.085654
    104 C                    -0.187361
    105 H                     0.097304
    106 C                    -0.321775
    107 H                     0.094249
    108 H                     0.097347
    109 H                     0.101517
    110 H                     0.104755
  ----------------------------------------
  Sum of atomic charges =     0.000000

                    Cartesian Multipole Moments
 -----------------------------------------------------------------
    Charge (ESU x 10^10)
                 0.0000
    Dipole Moment (Debye)
         X       1.1209      Y      -1.6073      Z       0.0512
       Tot       1.9602
    Quadrupole Moments (Debye-Ang)
        XX    -451.7411     XY      14.7672     YY    -398.3516
        XZ      22.8051     YZ      11.9301     ZZ    -444.4049

 Total job time:  91.79s(wall), 1089.02s(cpu)
        *  Thank you very much for using Q-Chem.  Have a nice day.  *
