 Q-Chem 4.4, Q-Chem, Inc., Pleasanton, CA (2016)
 Q-Chem 4.4.2 for Intel X86 Linux

User input:
--------------------------------------------------------------
$comment
SP
$end

$rem
MEM_STATIC 5000
MEM_TOTAL 20000
JOBTYPE SP
EXCHANGE B3LYP
BASIS 6-31g(d,p)
$end

$molecule
0 1
C          -5.513000     18.744000      6.827000
C          -5.837000     17.551000      7.536000
N          -6.305000     19.873000      7.016000
C          -6.811000     17.504000      8.500000
C          -7.270000     19.791000      7.885000
C          -7.583000     18.715000      8.736000
C          -8.713000     18.836000      9.774000
C          -9.728000     17.885000      9.887000
C          -8.797000     19.851000     10.708000
N         -10.756000     17.926000     10.767000
N          -7.838000     20.772000     10.774000
C          -9.767000     19.905000     11.627000
C         -10.826000     18.964000     11.625000
S          -8.344000     21.744000     11.997000
N          -9.595000     20.853000     12.523000
C         -12.064000     19.109000     12.368000
S         -12.176000     19.825000     13.979000
C         -13.322000     18.687000     12.017000
C         -13.901000     19.690000     14.054000
S         -13.841000     17.771000     10.661000
C         -14.267000     18.967000     12.976000
C         -14.777000     20.038000     15.090000
C         -15.487000     17.882000     11.250000
C         -15.562000     18.522000     12.486000
N         -16.035000     20.381000     14.807000
S         -14.194000     20.474000     16.652000
C         -16.695000     20.564000     16.021000
C         -15.850000     20.669000     17.094000
C          -4.192000     18.858000      6.165000
H          -5.285000     16.649000      7.291000
H          -6.960000     16.681000      9.193000
H          -7.840000     20.711000      8.002000
H          -9.633000     16.977000      9.295000
H         -16.374000     17.564000     10.719000
H         -16.486000     18.523000     13.052000
H         -17.768000     20.705000     15.995000
H         -16.000000     20.982000     18.118000
H          -3.788000     17.866000      5.925000
C          -3.057000     19.597000      6.997000
H          -4.402000     19.376000      5.220000
H          -3.276000     20.662000      7.140000
H          -2.068000     19.547000      6.523000
C          -3.026000     19.021000      8.438000
H          -3.982000     19.211000      8.941000
C          -1.873000     19.584000      9.267000
H          -2.869000     17.936000      8.483000
H          -2.297000     20.428000      9.825000
H          -0.992000     19.958000      8.731000
C          -1.400000     18.452000     10.290000
H          -2.242000     17.972000     10.806000
C          -0.530000     19.029000     11.405000
H          -0.706000     17.808000      9.736000
H          -0.310000     18.222000     12.113000
H          -1.079000     19.870000     11.845000
H           0.435000     19.431000     11.071000
C         -15.039000     14.557000      8.969000
C         -14.291000     15.191000      7.979000
N         -16.300000     14.947000      9.243000
C         -14.767000     16.330000      7.297000
C         -16.768000     16.047000      8.625000
C         -16.042000     16.782000      7.622000
C         -16.725000     17.852000      6.944000
C         -17.909000     17.725000      6.295000
C         -16.041000     19.099000      6.820000
N         -18.448000     18.631000      5.504000
N         -14.903000     19.384000      7.432000
C         -16.645000     20.055000      6.004000
C         -17.910000     19.812000      5.343000
S         -14.614000     20.903000      6.905000
N         -15.836000     21.159000      5.832000
C         -18.435000     20.839000      4.449000
S         -18.586000     22.548000      4.720000
C         -19.105000     20.572000      3.282000
C         -19.404000     22.847000      3.217000
S         -19.126000     19.068000      2.418000
C         -19.567000     21.648000      2.570000
C         -19.995000     24.063000      2.764000
C         -19.938000     19.877000      1.115000
C         -20.151000     21.175000      1.304000
N         -20.382000     24.212000      1.512000
S         -20.093000     25.590000      3.728000
C         -20.899000     25.530000      1.276000
C         -20.805000     26.359000      2.359000
C         -14.614000     13.184000      9.580000
H         -13.370000     14.735000      7.629000
H         -14.092000     16.786000      6.578000
H         -17.797000     16.321000      8.856000
H         -18.412000     16.764000      6.386000
H         -20.211000     19.251000      0.275000
H         -20.648000     21.873000      0.640000
H         -21.330000     25.791000      0.319000
H         -20.969000     27.420000      2.491000
H         -13.705000     12.870000      9.052000
C         -15.597000     11.980000      9.668000
H         -14.169000     13.364000     10.566000
H         -15.084000     11.017000      9.552000
H         -16.304000     12.109000      8.840000
C         -16.405000     11.955000     11.002000
H         -16.778000     12.921000     11.363000
C         -15.416000     11.460000     12.120000
H         -17.230000     11.244000     10.863000
H         -14.420000     11.920000     12.108000
H         -15.082000     10.434000     11.920000
C         -16.089000     11.643000     13.535000
H         -16.734000     12.515000     13.701000
C         -15.103000     11.369000     14.710000
H         -16.815000     10.824000     13.609000
H         -15.553000     11.587000     15.686000
H         -14.298000     12.106000     14.597000
H         -14.767000     10.325000     14.717000
$end

--------------------------------------------------------------

             Standard Nuclear Orientation (Angstroms)
    I     Atom           X                Y                Z
 ----------------------------------------------------------------
    1      C       5.9390752912    -5.3809947129     2.1284423229
    2      C       6.2662425327    -4.1284981254     2.7243616919
    3      N       5.1215084138    -5.3949670562     1.0019365864
    4      C       5.9246049427    -2.9273749237     2.1579980176
    5      C       4.7484251963    -4.2468515817     0.5163958876
    6      C       5.1294982271    -2.9600798683     0.9394182306
    7      C       4.6564064486    -1.7092948636     0.1773775223
    8      C       4.0559757861    -0.6259688820     0.8202483003
    9      C       4.8265013328    -1.5235960270    -1.1813795098
   10      N       3.6088159073     0.5017667860     0.2193112770
   11      N       5.4735999416    -2.4389026781    -1.8995404423
   12      C       4.4447092503    -0.4058208857    -1.8084285823
   13      C       3.7486444718     0.6161669607    -1.1170526601
   14      S       5.4375046089    -1.8104876949    -3.4162278643
   15      N       4.8269330438    -0.3475670226    -3.0660515223
   16      C       3.0346997543     1.7078691990    -1.7528098177
   17      S       3.5762203569     2.5246276284    -3.2225656153
   18      C       1.8889960245     2.3354793293    -1.3317189867
   19      C       2.1830773615     3.5494301511    -3.3142574023
   20      S       0.9813469561     2.1256511240     0.1102582298
   21      C       1.4998023636     3.3555627085    -2.1678195751
   22      C       1.8754447182     4.5527321380    -4.2419013426
   23      C      -0.1457427870     3.3420729967    -0.4541392708
   24      C       0.2596608472     3.9179553692    -1.6570226344
   25      N       0.6001359637     4.8475212945    -4.5007235479
   26      S       3.0402689703     5.1096412475    -5.3833327709
   27      C       0.5974226882     5.9423285859    -5.3634370767
   28      C       1.8148712506     6.1880116393    -5.9412240923
   29      C       6.7077066518    -6.5888968549     2.5111422667
   30      H       6.8051210875    -4.1398901711     3.6666000505
   31      H       6.3131277820    -1.9615466619     2.4678443860
   32      H       4.1278295204    -4.3234092140    -0.3746646804
   33      H       4.0398286188    -0.6341994270     1.9081933941
   34      H      -1.0880069988     3.5987994894     0.0107087293
   35      H      -0.2447652055     4.7939135314    -2.0473874067
   36      H      -0.3526252716     6.4178741658    -5.5711659275
   37      H       2.1226996376     6.8191146224    -6.7634136744
   38      H       7.1430529692    -6.4744216202     3.5122661374
   39      C       7.9173847430    -6.9768595233     1.5557711955
   40      H       5.9571998970    -7.3889211533     2.5575074795
   41      H       7.5754368241    -7.2917783653     0.5625276484
   42      H       8.5322463797    -7.7990413322     1.9446918054
   43      C       8.7717080789    -5.7112248439     1.2773497599
   44      H       8.1691366365    -4.9558402526     0.7583634634
   45      C      10.0326142886    -6.0233311286     0.4734068531
   46      H       9.1575272460    -5.2238802542     2.1815277409
   47      H       9.7675519749    -5.8340386054    -0.5741552265
   48      H      10.4355171252    -7.0421577751     0.5281295052
   49      C      11.1744336936    -5.0026730285     0.9274855785
   50      H      10.8172879019    -3.9655228734     0.9763367737
   51      C      12.3330777849    -4.9754371904    -0.0674295329
   52      H      11.6271708689    -5.4302992848     1.8305098500
   53      H      13.0375520500    -4.2009781416     0.2563639067
   54      H      11.9051897369    -4.8005619948    -1.0617194726
   55      H      12.8999379355    -5.9126705395    -0.1356073812
   56      C      -0.1756118521     3.1811437463     3.5995626935
   57      C      -0.1627943451     1.7892996810     3.6641057771
   58      N      -1.1907787324     3.8391387767     3.0047721885
   59      C      -1.1417000581     1.0024207749     3.0225559409
   60      C      -2.1232834027     3.1116547381     2.3627830815
   61      C      -2.1569391687     1.6722338771     2.3471346232
   62      C      -3.2942268857     1.0310904969     1.7416721432
   63      C      -4.5860640881     1.2674110814     2.0800435718
   64      C      -3.0420935080    -0.0329650457     0.8238183627
   65      N      -5.6219891367     0.5539676086     1.6864756554
   66      N      -1.8409100395    -0.3491456346     0.3677469756
   67      C      -4.1558663623    -0.7543749139     0.3952325124
   68      C      -5.4973689405    -0.4262148211     0.8298320823
   69      S      -2.1779885701    -1.6193304748    -0.6026238483
   70      N      -3.7910861744    -1.8462542995    -0.3647778966
   71      C      -6.5976461401    -1.2782742613     0.3905431178
   72      S      -6.9565614827    -1.8601821566    -1.2061678699
   73      C      -7.6786435717    -1.6003993796     1.1714131204
   74      C      -8.4477174781    -2.6178197325    -0.7371549691
   75      S      -7.7991285623    -1.4397881717     2.8943874112
   76      C      -8.6469832988    -2.3840858997     0.6001709553
   77      C      -9.4281497171    -3.2242614253    -1.5762777836
   78      C      -9.2958954340    -2.3155610051     2.8284717383
   79      C      -9.6598639093    -2.7175217555     1.6152741023
   80      N     -10.4000449549    -3.9603020979    -1.0731497929
   81      S      -9.3642286490    -3.2646811667    -3.3831837971
   82      C     -11.2333893187    -4.5062721698    -2.1063791246
   83      C     -10.8002323747    -4.2187277860    -3.3707601152
   84      C       0.7752376774     4.0619157495     4.4708840180
   85      H       0.5417260246     1.2901087024     4.3222367789
   86      H      -1.0200351064    -0.0754096351     3.0858113506
   87      H      -2.9386290265     3.6756817223     1.9107177379
   88      H      -4.7622044805     2.0716033719     2.7921252540
   89      H      -9.8046712509    -2.4419388608     3.7756680251
   90      H     -10.5538100883    -3.2619770526     1.3332498860
   91      H     -12.1219172627    -5.0709256085    -1.8585574408
   92      H     -11.1002074528    -4.5681482482    -4.3495150861
   93      H       1.3522322511     3.3755015800     5.1030025589
   94      C       0.2434987128     5.2367705575     5.3430186715
   95      H       1.5958965604     4.4203054889     3.8378778629
   96      H       0.8255427279     5.3653040230     6.2642666906
   97      H      -0.7871452250     4.9717620620     5.6068700893
   98      C       0.2186792659     6.5955127477     4.5773499078
   99      H      -0.1256809939     6.5612937872     3.5367486036
  100      C       1.7076811075     7.0945677588     4.4943582717
  101      H      -0.3955675512     7.2857276990     5.1704529079
  102      H       2.4460429130     6.3348044739     4.2091537921
  103      H       2.1106599049     7.2903322503     5.4961149052
  104      C       1.7923775758     8.3351217832     3.5235363413
  105      H       1.1425736915     8.3556505189     2.6396254391
  106      C       3.2596891525     8.7654220202     3.2239775945
  107      H       1.3891159633     9.1741781444     4.1037755114
  108      H       3.3105766638     9.5680720490     2.4784821938
  109      H       3.7281184324     7.8986343029     2.7410531046
  110      H       3.7695314359     9.1121392585     4.1310216964
 ----------------------------------------------------------------

   10   -5663.4894818310      4.72E-06 Convergence criterion met
 Total energy in the final basis set = -5663.4894818310

                    Orbital Energies (a.u.)
 --------------------------------------------------------------

 Alpha MOs
 -- Occupied --
-88.985 -88.985 -88.928 -88.922 -88.919 -88.918 -88.901 -88.901
-14.392 -14.386 -14.382 -14.377 -14.349 -14.348 -14.346 -14.341
-14.333 -14.329 -10.272 -10.267 -10.262 -10.260 -10.255 -10.252
-10.246 -10.243 -10.239 -10.238 -10.235 -10.235 -10.234 -10.234
-10.234 -10.233 -10.231 -10.230 -10.229 -10.228 -10.226 -10.222
-10.220 -10.220 -10.219 -10.219 -10.217 -10.216 -10.216 -10.215
-10.215 -10.212 -10.205 -10.201 -10.199 -10.197 -10.192 -10.191
-10.188 -10.187 -10.186 -10.181 -10.179 -10.175 -10.174 -10.174
-10.173 -10.173 -10.168 -10.167  -8.041  -8.041  -7.988  -7.985
 -7.981  -7.978  -7.963  -7.961  -6.006  -6.006  -6.001  -6.000
 -5.999  -5.998  -5.953  -5.949  -5.949  -5.946  -5.945  -5.945
 -5.943  -5.942  -5.941  -5.939  -5.937  -5.935  -5.927  -5.925
 -5.923  -5.922  -5.919  -5.917  -1.052  -1.042  -0.975  -0.968
 -0.959  -0.957  -0.941  -0.939  -0.923  -0.918  -0.911  -0.910
 -0.855  -0.844  -0.843  -0.831  -0.811  -0.809  -0.809  -0.807
 -0.802  -0.799  -0.798  -0.795  -0.784  -0.779  -0.768  -0.764
 -0.746  -0.746  -0.738  -0.736  -0.731  -0.721  -0.711  -0.709
 -0.693  -0.692  -0.676  -0.674  -0.657  -0.654  -0.649  -0.642
 -0.640  -0.638  -0.626  -0.621  -0.613  -0.610  -0.597  -0.594
 -0.592  -0.589  -0.584  -0.580  -0.577  -0.576  -0.570  -0.566
 -0.552  -0.550  -0.546  -0.540  -0.527  -0.526  -0.514  -0.511
 -0.509  -0.504  -0.503  -0.501  -0.495  -0.489  -0.480  -0.479
 -0.473  -0.472  -0.470  -0.468  -0.466  -0.452  -0.450  -0.444
 -0.442  -0.441  -0.440  -0.440  -0.434  -0.434  -0.429  -0.429
 -0.425  -0.424  -0.423  -0.422  -0.417  -0.414  -0.414  -0.413
 -0.410  -0.410  -0.409  -0.405  -0.402  -0.399  -0.398  -0.396
 -0.394  -0.392  -0.389  -0.388  -0.387  -0.384  -0.383  -0.380
 -0.377  -0.375  -0.372  -0.368  -0.367  -0.360  -0.355  -0.354
 -0.351  -0.350  -0.348  -0.346  -0.344  -0.343  -0.341  -0.339
 -0.338  -0.337  -0.335  -0.333  -0.333  -0.327  -0.326  -0.323
 -0.319  -0.310  -0.308  -0.307  -0.304  -0.302  -0.299  -0.297
 -0.294  -0.291  -0.291  -0.287  -0.287  -0.283  -0.279  -0.276
 -0.274  -0.271  -0.267  -0.261  -0.255  -0.252  -0.251  -0.249
 -0.247  -0.241  -0.238  -0.229  -0.199  -0.191

          Ground-State Mulliken Net Atomic Charges

     Atom                 Charge (a.u.)
  ----------------------------------------
      1 C                     0.247963
      2 C                    -0.114240
      3 N                    -0.468427
      4 C                    -0.072338
      5 C                     0.105723
      6 C                     0.026936
      7 C                     0.015868
      8 C                     0.050611
      9 C                     0.241118
     10 N                    -0.518938
     11 N                    -0.548052
     12 C                     0.232528
     13 C                     0.278113
     14 S                     0.585094
     15 N                    -0.551479
     16 C                    -0.228789
     17 S                     0.307870
     18 C                    -0.090035
     19 C                    -0.195099
     20 S                     0.299031
     21 C                     0.124482
     22 C                     0.033960
     23 C                    -0.299255
     24 C                    -0.061890
     25 N                    -0.417793
     26 S                     0.276272
     27 C                     0.115043
     28 C                    -0.304647
     29 C                    -0.226536
     30 H                     0.088317
     31 H                     0.104556
     32 H                     0.096526
     33 H                     0.102193
     34 H                     0.124500
     35 H                     0.109832
     36 H                     0.114963
     37 H                     0.133034
     38 H                     0.099838
     39 C                    -0.177362
     40 H                     0.113213
     41 H                     0.114380
     42 H                     0.096886
     43 C                    -0.183265
     44 H                     0.115696
     45 C                    -0.178077
     46 H                     0.088489
     47 H                     0.093628
     48 H                     0.089993
     49 C                    -0.187052
     50 H                     0.099444
     51 C                    -0.317745
     52 H                     0.098115
     53 H                     0.095976
     54 H                     0.100487
     55 H                     0.097555
     56 C                     0.274434
     57 C                    -0.118521
     58 N                    -0.465394
     59 C                    -0.036484
     60 C                     0.049767
     61 C                     0.016937
     62 C                     0.027081
     63 C                     0.060503
     64 C                     0.244789
     65 N                    -0.510211
     66 N                    -0.537551
     67 C                     0.164948
     68 C                     0.296219
     69 S                     0.598788
     70 N                    -0.531824
     71 C                    -0.202350
     72 S                     0.328156
     73 C                    -0.112887
     74 C                    -0.236945
     75 S                     0.260127
     76 C                     0.152080
     77 C                     0.072143
     78 C                    -0.306029
     79 C                    -0.028492
     80 N                    -0.449472
     81 S                     0.247144
     82 C                     0.112302
     83 C                    -0.299654
     84 C                    -0.230553
     85 H                     0.092806
     86 H                     0.111872
     87 H                     0.105858
     88 H                     0.109755
     89 H                     0.130692
     90 H                     0.124200
     91 H                     0.119050
     92 H                     0.141460
     93 H                     0.087638
     94 C                    -0.176077
     95 H                     0.123335
     96 H                     0.094750
     97 H                     0.096258
     98 C                    -0.171753
     99 H                     0.120198
    100 C                    -0.177102
    101 H                     0.090160
    102 H                     0.089986
    103 H                     0.084680
    104 C                    -0.186698
    105 H                     0.097572
    106 C                    -0.321576
    107 H                     0.093085
    108 H                     0.096481
    109 H                     0.103469
    110 H                     0.103641
  ----------------------------------------
  Sum of atomic charges =     0.000000

                    Cartesian Multipole Moments
 -----------------------------------------------------------------
    Charge (ESU x 10^10)
                 0.0000
    Dipole Moment (Debye)
         X       0.9199      Y      -0.3184      Z      -0.3262
       Tot       1.0266
    Quadrupole Moments (Debye-Ang)
        XX    -413.2245     XY       8.7540     YY    -440.6268
        XZ      19.4300     YZ     -12.4859     ZZ    -409.5828

 Total job time:  91.07s(wall), 1074.83s(cpu)
        *  Thank you very much for using Q-Chem.  Have a nice day.  *
