 Q-Chem 4.4, Q-Chem, Inc., Pleasanton, CA (2016)
 Q-Chem 4.4.2 for Intel X86 Linux

User input:
--------------------------------------------------------------
$comment
SP
$end

$rem
MEM_STATIC 5000
MEM_TOTAL 20000
JOBTYPE SP
EXCHANGE B3LYP
BASIS 6-31g(d,p)
$end

$molecule
0 1
C          -3.007000     -9.849000      0.738000
C          -2.560000     -9.543000     -0.515000
N          -3.744000     -8.994000      1.499000
C          -2.940000     -8.368000     -1.116000
C          -4.132000     -7.860000      0.912000
C          -3.762000     -7.496000     -0.449000
C          -4.409000     -6.350000     -1.154000
C          -5.838000     -6.132000     -1.156000
C          -3.692000     -5.240000     -1.661000
N          -6.451000     -5.107000     -1.712000
N          -2.356000     -5.254000     -1.821000
C          -4.388000     -4.197000     -2.310000
C          -5.784000     -4.152000     -2.365000
S          -2.113000     -3.829000     -2.605000
N          -3.663000     -3.365000     -3.019000
C          -6.478000     -3.107000     -3.154000
S          -5.759000     -1.826000     -4.153000
C          -7.828000     -2.909000     -3.133000
C          -7.300000     -1.063000     -4.466000
S          -9.046000     -3.805000     -2.209000
C          -8.257000     -1.763000     -3.793000
C          -7.491000      0.175000     -5.186000
C         -10.208000     -2.586000     -2.722000
C          -9.676000     -1.586000     -3.526000
N          -8.759000      0.507000     -5.442000
S          -6.232000      1.294000     -5.696000
C          -8.789000      1.789000     -6.015000
C          -7.541000      2.423000     -6.098000
C          -2.768000    -11.184000      1.413000
H          -1.960000    -10.235000     -1.098000
H          -2.792000     -8.266000     -2.186000
H          -4.879000     -7.334000      1.506000
H          -6.478000     -6.848000     -0.643000
H         -11.217000     -2.514000     -2.338000
H         -10.209000     -0.685000     -3.807000
H          -9.739000      2.157000     -6.379000
H          -7.310000      3.400000     -6.502000
H          -1.841000    -11.592000      0.993000
C          -3.910000    -12.251000      1.398000
H          -2.597000    -11.036000      2.488000
H          -3.851000    -12.751000      0.423000
H          -4.753000    -11.557000      1.502000
C          -3.876000    -13.291000      2.541000
H          -3.085000    -14.017000      2.315000
C          -5.268000    -14.109000      2.568000
H          -3.599000    -12.842000      3.503000
H          -5.013000    -14.981000      3.183000
H          -5.565000    -14.486000      1.580000
C          -6.205000    -13.212000      3.342000
H          -5.865000    -13.076000      4.375000
C          -7.617000    -13.709000      3.462000
H          -6.099000    -12.187000      2.965000
H          -8.291000    -12.935000      3.849000
H          -7.664000    -14.506000      4.215000
H          -8.048000    -14.143000      2.551000
C         -21.925000      0.864000    -13.102000
C         -21.351000     -0.341000    -13.591000
N         -21.184000      1.819000    -12.534000
C         -19.975000     -0.562000    -13.350000
C         -19.896000      1.593000    -12.301000
C         -19.219000      0.397000    -12.675000
C         -17.828000      0.244000    -12.280000
C         -17.000000     -0.442000    -13.166000
C         -17.215000      0.629000    -11.060000
N         -15.708000     -0.808000    -12.897000
N         -17.895000      1.442000    -10.170000
C         -15.926000      0.290000    -10.751000
C         -15.170000     -0.562000    -11.683000
S         -16.675000      1.826000     -9.109000
N         -15.451000      0.847000     -9.609000
C         -13.741000     -0.917000    -11.419000
S         -12.907000     -0.863000     -9.814000
C         -12.947000     -1.679000    -12.227000
C         -11.394000     -1.471000    -10.452000
S         -13.178000     -2.135000    -13.883000
C         -11.658000     -1.934000    -11.727000
C         -10.099000     -1.468000     -9.825000
C         -11.575000     -2.899000    -13.883000
C         -10.909000     -2.725000    -12.690000
N          -9.206000     -2.364000    -10.213000
S          -9.749000     -0.551000     -8.438000
C          -8.038000     -2.150000     -9.574000
C          -8.060000     -1.221000     -8.629000
C         -23.361000      1.279000    -13.336000
H         -22.001000     -1.160000    -13.883000
H         -19.476000     -1.518000    -13.475000
H         -19.381000      2.413000    -11.805000
H         -17.378000     -0.886000    -14.086000
H         -11.184000     -3.476000    -14.709000
H          -9.875000     -3.012000    -12.539000
H          -7.147000     -2.647000     -9.935000
H          -7.169000     -0.842000     -8.147000
H         -23.431000      2.230000    -13.878000
C         -24.173000      1.260000    -12.043000
H         -23.719000      0.544000    -14.067000
H         -23.857000      2.089000    -11.397000
H         -23.903000      0.349000    -11.494000
C         -25.684000      1.251000    -12.230000
H         -26.049000      0.480000    -12.919000
C         -26.127000      2.647000    -12.699000
H         -26.133000      1.075000    -11.244000
H         -25.580000      2.924000    -13.609000
H         -25.794000      3.372000    -11.945000
C         -27.691000      2.648000    -12.874000
H         -27.878000      2.260000    -13.883000
C         -28.201000      4.021000    -12.765000
H         -28.174000      2.018000    -12.117000
H         -27.813000      4.675000    -13.556000
H         -28.067000      4.525000    -11.801000
H         -29.274000      4.012000    -12.994000
$end

--------------------------------------------------------------

             Standard Nuclear Orientation (Angstroms)
    I     Atom           X                Y                Z
 ----------------------------------------------------------------
    1      C      12.9244951445    -2.2883559334    -0.7682888039
    2      C      12.4402763666    -1.3132080957    -1.5917406057
    3      N      12.4579031339    -2.5027408557     0.4925228397
    4      C      11.3580944782    -0.5596911341    -1.2079170151
    5      C      11.3940937618    -1.7866488797     0.8621049032
    6      C      10.7708164836    -0.7819064966     0.0113786381
    7      C       9.4477990859    -0.1808024078     0.3537948174
    8      C       8.3127667728    -0.9668585484     0.7820311912
    9      C       9.2464197721     1.2073341616     0.5429012338
   10      N       7.1452617110    -0.4803596890     1.1505156420
   11      N      10.1421293706     2.1289233855     0.1440659074
   12      C       7.9598382487     1.6875707001     0.8708445990
   13      C       6.8896592721     0.8303363969     1.1423815347
   14      S       9.3146244169     3.5218375217     0.4257674531
   15      N       7.7655684504     2.9772032315     0.7307118784
   16      C       5.5268687520     1.3672970125     1.3674532911
   17      S       4.9878334220     3.0587308866     1.3010050955
   18      C       4.4703589311     0.6106516281     1.7838902737
   19      C       3.3801854845     2.6764296233     1.8703317618
   20      S       4.4476342863    -1.1245709886     2.1425015688
   21      C       3.3316173073     1.3361426625     2.1153827670
   22      C       2.3455916095     3.6400617277     2.1679114674
   23      C       2.8236178559    -0.8848886232     2.7785023528
   24      C       2.3681388864     0.4258007153     2.7146872568
   25      N       1.1429552230     3.1314426970     2.4481906200
   26      S       2.5356602672     5.3877450570     2.2504880144
   27      C       0.2891653651     4.1717356966     2.8501686713
   28      C       0.9012993820     5.4300645758     2.9409947525
   29      C      14.0086516338    -3.2668054986    -1.1710445054
   30      H      12.8385553823    -1.1501403061    -2.5885032262
   31      H      10.8377971958     0.0168602565    -1.9656024590
   32      H      10.9612285640    -2.1581230120     1.7906282952
   33      H       8.4148405791    -2.0495937370     0.8339007338
   34      H       2.2668467640    -1.6424638477     3.3140457503
   35      H       1.4602064333     0.7769457874     3.1913494001
   36      H      -0.7545264898     3.9352222693     3.0088781877
   37      H       0.4543949672     6.3753360381     3.2200006780
   38      H      14.6211967221    -2.7683603533    -1.9316586993
   39      C      13.5949958975    -4.7014585927    -1.6331456105
   40      H      14.6643279233    -3.4743423611    -0.3144307919
   41      H      13.3045924828    -4.6131675391    -2.6876485960
   42      H      12.7550503536    -4.8361067492    -0.9407134064
   43      C      14.6670320497    -5.8012304410    -1.4586595939
   44      H      15.4148426121    -5.6741690927    -2.2514191896
   45      C      13.9929840590    -7.2518868544    -1.6795040563
   46      H      15.2168150680    -5.6993208979    -0.5146643196
   47      H      14.8691098171    -7.8939761354    -1.8336436398
   48      H      13.3852378257    -7.3096720519    -2.5926236470
   49      C      13.3701910714    -7.5739069289    -0.3415631136
   50      H      14.1313514617    -7.6631431419     0.4419270003
   51      C      12.6030557102    -8.8636127071    -0.2839840955
   52      H      12.8272490884    -6.6889807471     0.0135560999
   53      H      12.0099153929    -8.9454254487     0.6350437818
   54      H      13.3036362060    -9.7064134087    -0.2265302328
   55      H      11.9624991207    -9.0755844248    -1.1493124994
   56      C     -12.8438271112    -2.2370239178    -0.3259923485
   57      C     -12.2059968278    -2.4626581512    -1.5761458279
   58      N     -12.3748824675    -1.3501647747     0.5556548494
   59      C     -10.9773271297    -1.8054163939    -1.8184308780
   60      C     -11.2130009480    -0.7503330545     0.3221120434
   61      C     -10.4402691965    -0.9475457158    -0.8579785491
   62      C      -9.1435023020    -0.2956093057    -0.9456685633
   63      C      -8.7471155375     0.1367883199    -2.2094271740
   64      C      -8.1803041110    -0.1167521978     0.0803204131
   65      N      -7.5060569132     0.6337582206    -2.5067071917
   66      N      -8.5174023395    -0.3713938257     1.3982701184
   67      C      -6.9303729505     0.3804606777    -0.1694283616
   68      C      -6.5449702833     0.6752626429    -1.5588960961
   69      S      -7.1967944725     0.2630452564     2.1825270359
   70      N      -6.1804058258     0.6121895683     0.9368668220
   71      C      -5.2108153787     1.2704593278    -1.8806624660
   72      S      -3.7409273129     1.2277857515    -0.8260985561
   73      C      -4.7658275691     1.6008967916    -3.1283567121
   74      C      -2.7384498684     2.0608320751    -1.9952648386
   75      S      -5.6601517621     1.7925852798    -4.6004547935
   76      C      -3.4449194067     2.0792093932    -3.1828056024
   77      C      -1.4475128088     2.6626661088    -1.7916959217
   78      C      -4.1785688681     2.3355425351    -5.4149574315
   79      C      -3.1062715926     2.4213301949    -4.5547830129
   80      N      -0.6453992293     2.8075195269    -2.8340203880
   81      S      -0.7997698096     2.9538051682    -0.2480557256
   82      C       0.4740375317     3.4600935301    -2.4607249173
   83      C       0.6019702827     3.6879913445    -1.1613997857
   84      C     -14.1908417904    -2.8091345784     0.0578277213
   85      H     -12.5116664587    -3.3080860053    -2.1847038123
   86      H     -10.2950030009    -2.0577044124    -2.6242512916
   87      H     -10.8945455633    -0.0709056022     1.1098972330
   88      H      -9.3497847060    -0.0437739342    -3.0985880962
   89      H      -4.1130857528     2.5318115734    -6.4757479038
   90      H      -2.1507205060     2.8477747873    -4.8365508791
   91      H       1.1285328275     3.8541211396    -3.2272685564
   92      H       1.3658823303     4.3289945582    -0.7425928331
   93      H     -14.9233464245    -2.0232845780     0.2790555175
   94      C     -14.0676208618    -3.8494567854     1.1687283957
   95      H     -14.5576971074    -3.2400341504    -0.8815831234
   96      H     -13.8161015827    -3.3515491463     2.1138416350
   97      H     -13.2010176934    -4.4817815107     0.9376734448
   98      C     -15.2726631724    -4.7657720716     1.3312409369
   99      H     -15.6070580762    -5.2409997900     0.4013346706
  100      C     -16.4176488501    -3.9597368808     1.9671191241
  101      H     -14.9889519510    -5.5540058969     2.0404435734
  102      H     -16.6286489685    -3.0710982680     1.3589757481
  103      H     -16.0524301734    -3.5605261621     2.9222505917
  104      C     -17.6589314525    -4.9086212485     2.1556873013
  105      H     -18.1932531986    -4.8939411891     1.1976274036
  106      C     -18.5263326072    -4.3846207571     3.2187718331
  107      H     -17.3426694323    -5.9273269782     2.4115289924
  108      H     -18.9404818868    -3.3988641577     2.9723873755
  109      H     -18.1023128255    -4.3405223226     4.2284898892
  110      H     -19.4338331128    -4.9998382165     3.2612136741
 ----------------------------------------------------------------

    9   -5663.5139316672      8.71E-06 Convergence criterion met
 Total energy in the final basis set = -5663.5139316672

                    Orbital Energies (a.u.)
 --------------------------------------------------------------

 Alpha MOs
 -- Occupied --
-88.986 -88.985 -88.938 -88.927 -88.924 -88.920 -88.911 -88.904
-14.395 -14.392 -14.392 -14.388 -14.353 -14.351 -14.349 -14.334
-14.333 -14.321 -10.280 -10.269 -10.264 -10.263 -10.259 -10.257
-10.256 -10.254 -10.245 -10.245 -10.243 -10.242 -10.242 -10.242
-10.238 -10.235 -10.235 -10.229 -10.228 -10.228 -10.227 -10.224
-10.222 -10.221 -10.220 -10.219 -10.219 -10.218 -10.217 -10.213
-10.209 -10.209 -10.209 -10.205 -10.203 -10.197 -10.195 -10.191
-10.183 -10.182 -10.181 -10.181 -10.180 -10.174 -10.174 -10.173
-10.172 -10.172 -10.167 -10.164  -8.042  -8.041  -7.998  -7.986
 -7.984  -7.979  -7.970  -7.964  -6.007  -6.006  -6.001  -6.000
 -5.999  -5.998  -5.962  -5.959  -5.955  -5.951  -5.948  -5.946
 -5.945  -5.943  -5.943  -5.941  -5.940  -5.936  -5.934  -5.931
 -5.929  -5.926  -5.925  -5.920  -1.047  -1.032  -0.974  -0.969
 -0.967  -0.949  -0.945  -0.940  -0.925  -0.915  -0.909  -0.901
 -0.843  -0.839  -0.836  -0.836  -0.811  -0.808  -0.807  -0.807
 -0.803  -0.803  -0.798  -0.794  -0.787  -0.783  -0.770  -0.768
 -0.752  -0.750  -0.739  -0.739  -0.727  -0.718  -0.709  -0.709
 -0.694  -0.692  -0.678  -0.670  -0.657  -0.652  -0.646  -0.644
 -0.638  -0.635  -0.632  -0.623  -0.615  -0.612  -0.601  -0.596
 -0.591  -0.586  -0.585  -0.582  -0.580  -0.575  -0.568  -0.566
 -0.556  -0.546  -0.543  -0.538  -0.524  -0.519  -0.513  -0.509
 -0.507  -0.503  -0.500  -0.498  -0.494  -0.484  -0.482  -0.478
 -0.475  -0.469  -0.468  -0.468  -0.462  -0.459  -0.454  -0.449
 -0.445  -0.443  -0.441  -0.435  -0.435  -0.432  -0.430  -0.427
 -0.427  -0.426  -0.423  -0.422  -0.420  -0.417  -0.416  -0.413
 -0.412  -0.410  -0.410  -0.405  -0.404  -0.399  -0.398  -0.397
 -0.396  -0.393  -0.392  -0.389  -0.388  -0.387  -0.385  -0.383
 -0.381  -0.374  -0.373  -0.372  -0.368  -0.364  -0.361  -0.355
 -0.354  -0.354  -0.349  -0.349  -0.347  -0.345  -0.345  -0.338
 -0.337  -0.337  -0.336  -0.333  -0.330  -0.328  -0.327  -0.324
 -0.323  -0.317  -0.315  -0.309  -0.303  -0.300  -0.299  -0.296
 -0.295  -0.294  -0.294  -0.292  -0.286  -0.285  -0.285  -0.276
 -0.274  -0.270  -0.266  -0.264  -0.256  -0.255  -0.251  -0.250
 -0.244  -0.242  -0.236  -0.230  -0.199  -0.193

          Ground-State Mulliken Net Atomic Charges

     Atom                 Charge (a.u.)
  ----------------------------------------
      1 C                     0.262628
      2 C                    -0.108146
      3 N                    -0.466568
      4 C                    -0.047679
      5 C                     0.073442
      6 C                     0.023453
      7 C                    -0.042716
      8 C                     0.072027
      9 C                     0.242925
     10 N                    -0.526476
     11 N                    -0.513415
     12 C                     0.215847
     13 C                     0.325156
     14 S                     0.576318
     15 N                    -0.564273
     16 C                    -0.214279
     17 S                     0.319438
     18 C                    -0.124646
     19 C                    -0.247206
     20 S                     0.294417
     21 C                     0.178178
     22 C                     0.058886
     23 C                    -0.307143
     24 C                    -0.057541
     25 N                    -0.435777
     26 S                     0.271890
     27 C                     0.115478
     28 C                    -0.305881
     29 C                    -0.230815
     30 H                     0.091979
     31 H                     0.105269
     32 H                     0.105705
     33 H                     0.114134
     34 H                     0.126379
     35 H                     0.119605
     36 H                     0.128071
     37 H                     0.138763
     38 H                     0.085786
     39 C                    -0.167926
     40 H                     0.114224
     41 H                     0.092733
     42 H                     0.115226
     43 C                    -0.196021
     44 H                     0.084785
     45 C                    -0.171492
     46 H                     0.097607
     47 H                     0.091671
     48 H                     0.096487
     49 C                    -0.165367
     50 H                     0.095924
     51 C                    -0.321894
     52 H                     0.101231
     53 H                     0.098287
     54 H                     0.100243
     55 H                     0.098946
     56 C                     0.256571
     57 C                    -0.138744
     58 N                    -0.468021
     59 C                    -0.079547
     60 C                     0.088000
     61 C                     0.039330
     62 C                     0.038377
     63 C                     0.037526
     64 C                     0.213353
     65 N                    -0.520756
     66 N                    -0.543513
     67 C                     0.208501
     68 C                     0.306976
     69 S                     0.595139
     70 N                    -0.548326
     71 C                    -0.216518
     72 S                     0.303346
     73 C                    -0.124599
     74 C                    -0.230988
     75 S                     0.282714
     76 C                     0.153916
     77 C                     0.050610
     78 C                    -0.312728
     79 C                    -0.045906
     80 N                    -0.430066
     81 S                     0.279471
     82 C                     0.145900
     83 C                    -0.307587
     84 C                    -0.206184
     85 H                     0.096424
     86 H                     0.102627
     87 H                     0.116180
     88 H                     0.114503
     89 H                     0.126718
     90 H                     0.121423
     91 H                     0.112621
     92 H                     0.126479
     93 H                     0.119193
     94 C                    -0.177621
     95 H                     0.084692
     96 H                     0.114909
     97 H                     0.083218
     98 C                    -0.174925
     99 H                     0.088926
    100 C                    -0.174522
    101 H                     0.090086
    102 H                     0.093268
    103 H                     0.092019
    104 C                    -0.169191
    105 H                     0.095679
    106 C                    -0.313347
    107 H                     0.094414
    108 H                     0.099332
    109 H                     0.103077
    110 H                     0.089690
  ----------------------------------------
  Sum of atomic charges =     0.000000

                    Cartesian Multipole Moments
 -----------------------------------------------------------------
    Charge (ESU x 10^10)
                 0.0000
    Dipole Moment (Debye)
         X       1.9302      Y       1.8274      Z      -0.6254
       Tot       2.7306
    Quadrupole Moments (Debye-Ang)
        XX    -441.3601     XY      18.6094     YY    -420.0394
        XZ     -12.1139     YZ      10.0148     ZZ    -432.9477

 Total job time:  80.23s(wall), 943.31s(cpu)
        *  Thank you very much for using Q-Chem.  Have a nice day.  *
