 Q-Chem 4.4, Q-Chem, Inc., Pleasanton, CA (2016)
 Q-Chem 4.4.2 for Intel X86 Linux

User input:
--------------------------------------------------------------
$comment
SP
$end

$rem
MEM_STATIC 5000
MEM_TOTAL 20000
JOBTYPE SP
EXCHANGE B3LYP
BASIS 6-31g(d,p)
$end

$molecule
0 1
C         -28.022000     -0.605000     -4.779000
C         -27.259000     -1.720000     -4.487000
N         -27.420000      0.479000     -5.192000
C         -25.875000     -1.812000     -4.879000
C         -26.063000      0.507000     -5.335000
C         -25.185000     -0.638000     -5.254000
C         -23.693000     -0.634000     -5.445000
C         -22.980000      0.552000     -5.063000
C         -22.833000     -1.770000     -5.778000
N         -21.647000      0.817000     -5.251000
N         -23.230000     -3.014000     -6.054000
C         -21.462000     -1.591000     -5.727000
C         -20.910000     -0.216000     -5.647000
S         -21.952000     -3.890000     -6.313000
N         -20.812000     -2.692000     -6.067000
C         -19.448000      0.068000     -5.712000
S         -18.233000     -1.247000     -5.842000
C         -18.911000      1.340000     -5.788000
C         -16.962000     -0.027000     -5.845000
S         -19.649000      2.940000     -5.789000
C         -17.512000      1.303000     -5.785000
C         -15.563000     -0.296000     -6.005000
C         -18.011000      3.516000     -6.033000
C         -16.963000      2.593000     -5.966000
N         -14.656000      0.648000     -6.038000
S         -15.022000     -1.963000     -5.974000
C         -13.407000      0.085000     -6.247000
C         -13.417000     -1.284000     -6.209000
C         -29.527000     -0.598000     -4.762000
H         -27.788000     -2.604000     -4.143000
H         -25.351000     -2.746000     -4.700000
H         -25.558000      1.426000     -5.630000
H         -23.501000      1.471000     -4.800000
H         -17.835000      4.584000     -6.059000
H         -15.922000      2.797000     -6.189000
H         -12.563000      0.752000     -6.365000
H         -12.546000     -1.910000     -6.351000
H         -29.951000      0.414000     -4.762000
C         -30.063000     -0.970000     -3.372000
H         -29.972000     -1.253000     -5.522000
H         -29.708000     -0.310000     -2.571000
H         -29.686000     -1.936000     -3.016000
C         -31.648000     -1.058000     -3.345000
H         -32.024000     -0.071000     -3.046000
C         -32.337000     -1.997000     -2.307000
H         -31.998000     -1.443000     -4.310000
H         -33.242000     -1.557000     -1.872000
H         -31.675000     -2.235000     -1.466000
C         -32.875000     -3.331000     -3.009000
H         -33.376000     -3.923000     -2.234000
C         -31.774000     -4.173000     -3.803000
H         -33.614000     -3.076000     -3.779000
H         -31.307000     -3.679000     -4.664000
H         -32.095000     -5.144000     -4.199000
H         -30.917000     -4.357000     -3.143000
C         -21.925000      0.864000    -13.102000
C         -21.351000     -0.341000    -13.591000
N         -21.184000      1.819000    -12.534000
C         -19.975000     -0.562000    -13.350000
C         -19.896000      1.593000    -12.301000
C         -19.219000      0.397000    -12.675000
C         -17.828000      0.244000    -12.280000
C         -17.000000     -0.442000    -13.166000
C         -17.215000      0.629000    -11.060000
N         -15.708000     -0.808000    -12.897000
N         -17.895000      1.442000    -10.170000
C         -15.926000      0.290000    -10.751000
C         -15.170000     -0.562000    -11.683000
S         -16.675000      1.826000     -9.109000
N         -15.451000      0.847000     -9.609000
C         -13.741000     -0.917000    -11.419000
S         -12.907000     -0.863000     -9.814000
C         -12.947000     -1.679000    -12.227000
C         -11.394000     -1.471000    -10.452000
S         -13.178000     -2.135000    -13.883000
C         -11.658000     -1.934000    -11.727000
C         -10.099000     -1.468000     -9.825000
C         -11.575000     -2.899000    -13.883000
C         -10.909000     -2.725000    -12.690000
N          -9.206000     -2.364000    -10.213000
S          -9.749000     -0.551000     -8.438000
C          -8.038000     -2.150000     -9.574000
C          -8.060000     -1.221000     -8.629000
C         -23.361000      1.279000    -13.336000
H         -22.001000     -1.160000    -13.883000
H         -19.476000     -1.518000    -13.475000
H         -19.381000      2.413000    -11.805000
H         -17.378000     -0.886000    -14.086000
H         -11.184000     -3.476000    -14.709000
H          -9.875000     -3.012000    -12.539000
H          -7.147000     -2.647000     -9.935000
H          -7.169000     -0.842000     -8.147000
H         -23.431000      2.230000    -13.878000
C         -24.173000      1.260000    -12.043000
H         -23.719000      0.544000    -14.067000
H         -23.857000      2.089000    -11.397000
H         -23.903000      0.349000    -11.494000
C         -25.684000      1.251000    -12.230000
H         -26.049000      0.480000    -12.919000
C         -26.127000      2.647000    -12.699000
H         -26.133000      1.075000    -11.244000
H         -25.580000      2.924000    -13.609000
H         -25.794000      3.372000    -11.945000
C         -27.691000      2.648000    -12.874000
H         -27.878000      2.260000    -13.883000
C         -28.201000      4.021000    -12.765000
H         -28.174000      2.018000    -12.117000
H         -27.813000      4.675000    -13.556000
H         -28.067000      4.525000    -11.801000
H         -29.274000      4.012000    -12.994000
$end

--------------------------------------------------------------

             Standard Nuclear Orientation (Angstroms)
    I     Atom           X                Y                Z
 ----------------------------------------------------------------
    1      C      -9.2282765162    -1.2567366474    -0.0712052402
    2      C      -8.5531253782    -2.0046731127    -1.0174715794
    3      N      -8.5558206991    -0.7532735370     0.9299726014
    4      C      -7.1133431432    -2.0163578383    -1.0843639020
    5      C      -7.2110012082    -0.9603493116     1.0360959288
    6      C      -6.3678746008    -1.5483126299     0.0202678626
    7      C      -4.8797356794    -1.7511870497     0.1030055226
    8      C      -4.3158069118    -1.9926553537     1.4009139952
    9      C      -3.9428097636    -1.9458247731    -1.0039140702
   10      N      -2.9860085189    -2.0920780230     1.7237287520
   11      N      -4.2299296663    -1.8988074398    -2.3064779004
   12      C      -2.6392075139    -2.2996702663    -0.7044185919
   13      C      -2.1523426559    -2.1705428027     0.6912954577
   14      S      -2.9147352744    -2.2043172989    -3.1093903723
   15      N      -1.9032309199    -2.4251960551    -1.7966103010
   16      C      -0.7316956675    -2.4130548737     1.0724450739
   17      S       0.4955679991    -2.9330570307    -0.1299573750
   18      C      -0.2156022916    -2.1603227610     2.3301823702
   19      C       1.6997926448    -2.9495344739     1.1558970089
   20      S      -0.9530946942    -1.5686682674     3.8170229522
   21      C       1.1315174986    -2.5307613717     2.4115611547
   22      C       3.0946478596    -3.2260621980     0.9740362169
   23      C       0.6802312507    -1.6158640388     4.4529277540
   24      C       1.6870880579    -2.1785699957     3.6627863895
   25      N       3.9610513178    -3.1905888383     1.9553418209
   26      S       3.6354880482    -3.8120803587    -0.5869268210
   27      C       5.2295886081    -3.4567642297     1.4648167919
   28      C       5.2328739407    -3.8333660386     0.1480536074
   29      C     -10.6823484286    -0.8853474211    -0.1856950482
   30      H      -9.1401103301    -2.4122150926    -1.8353904023
   31      H      -6.6410428871    -2.5521528430    -1.9021836749
   32      H      -6.6608922659    -0.5836128562     1.8975254353
   33      H      -4.9037773904    -1.8739871464     2.3094180254
   34      H       0.8386714941    -1.3685511362     5.4950453181
   35      H       2.7461159815    -2.1858406998     3.8939421682
   36      H       6.0628489563    -3.3953505766     2.1526064075
   37      H       6.1204342773    -4.0810766220    -0.4190064563
   38      H     -11.1077784796    -0.5226756091     0.7584439397
   39      C     -11.5658977624    -2.1389640869    -0.2602995410
   40      H     -10.8955435031    -0.2263666550    -1.0371304304
   41      H     -11.4504823853    -2.8119085450     0.5982172306
   42      H     -11.2822034503    -2.8103629386    -1.0793002242
   43      C     -13.0980963016    -1.7802678293    -0.4710188597
   44      H     -13.5572511209    -1.7152741173     0.5239176555
   45      C     -14.0247915283    -2.8084605803    -1.1907004724
   46      H     -13.1692584312    -0.8864758946    -1.1019086510
   47      H     -15.0207133074    -2.8722427910    -0.7369145763
   48      H     -13.6093008782    -3.8228263401    -1.1662336546
   49      C     -14.3316683758    -2.3502642428    -2.6932605267
   50      H     -15.0124775623    -3.0939952851    -3.1239030564
   51      C     -13.0436956782    -2.1024953081    -3.6050378489
   52      H     -14.8406860957    -1.3781834667    -2.6908262782
   53      H     -12.3708568298    -1.2943802778    -3.2924934809
   54      H     -13.2299798088    -1.8943915834    -4.6655514331
   55      H     -12.3926693666    -2.9842952282    -3.5550514248
   56      C      -1.1441237481     5.3195823108    -0.1181305230
   57      C      -0.4395291842     5.3265007962    -1.3526833307
   58      N      -0.5993248949     4.8393237380     1.0027066253
   59      C       0.8245732733     4.6935945871    -1.3947868619
   60      C       0.5822644702     4.2351709133     0.9465378014
   61      C       1.3549878556     4.1106170205    -0.2434226590
   62      C       2.5909907656     3.3471862430    -0.1818982381
   63      C       3.6381464695     3.7899264883    -0.9872689645
   64      C       2.8468880936     2.1479935525     0.5314372009
   65      N       4.8162763811     3.1159968367    -1.1700522686
   66      N       1.9390421608     1.6954934519     1.4729935833
   67      C       4.0109203895     1.4442720778     0.3840333330
   68      C       5.0039066459     1.9067195906    -0.5989135590
   69      S       2.8222655314     0.4889899613     2.1981437779
   70      N       4.1519782704     0.3964191966     1.2338244919
   71      C       6.3151320125     1.2051267590    -0.7608318611
   72      S       6.6859642127    -0.4931578126    -0.2580297198
   73      C       7.3098612823     1.5646855144    -1.6240671600
   74      C       8.3248242112    -0.4377958321    -0.8719922237
   75      S       7.5402470097     3.0551971590    -2.4778414005
   76      C       8.4211321419     0.7037602280    -1.6448211466
   77      C       9.4033756885    -1.3540366840    -0.6123917378
   78      C       9.0969178712     2.4527895114    -3.0838000254
   79      C       9.4146794531     1.2122524864    -2.5766743343
   80      N      10.3828115012    -1.4455338324    -1.4973452737
   81      S       9.3521125542    -2.5081916542     0.6335843438
   82      C      11.3322654444    -2.2874734831    -1.0412577444
   83      C      11.0413593227    -2.9307366784     0.0804089128
   84      C      -2.4711684054     6.0100273275     0.1083979662
   85      H      -0.9731795076     5.5599562374    -2.2687842473
   86      H       1.3548864937     4.4424541551    -2.3081643150
   87      H       0.9310500395     3.8461189944     1.9008062286
   88      H       3.5289195893     4.6340723755    -1.6669065221
   89      H       9.7052524781     2.9788226031    -3.8058140090
   90      H      10.3747280291     0.7343910167    -2.7324984260
   91      H      12.2957759124    -2.3034918208    -1.5338041798
   92      H      11.7634644964    -3.5137455782     0.6358463449
   93      H      -2.4089560750     6.7726482690     0.8942757719
   94      C      -3.6004083232     5.0062751844     0.3294247593
   95      H      -2.6070222350     6.5995685394    -0.8063341785
   96      H      -3.4837420149     4.5304358373     1.3114527061
   97      H      -3.4725689810     4.1959327482    -0.3994265552
   98      C      -5.0051515001     5.5656117800     0.1505108704
   99      H      -5.1584283024     6.1087024838    -0.7896729996
  100      C      -5.3292968471     6.4673509012     1.3533501577
  101      H      -5.6996293199     4.7160375367     0.1769147117
  102      H      -4.5625763738     7.2462355994     1.4509019021
  103      H      -5.2235327699     5.8602330787     2.2617839250
  104      C      -6.7884760968     7.0315721942     1.1825512994
  105      H      -6.6907835561     7.9239316189     0.5518811601
  106      C      -7.3321274888     7.4051548062     2.4947971589
  107      H      -7.4464698851     6.2904929102     0.7123559470
  108      H      -6.7568891060     8.2083311884     2.9722377332
  109      H      -7.4707250535     6.5974993319     3.2226373543
  110      H      -8.3037667046     7.8915047705     2.3423768630
 ----------------------------------------------------------------

    9   -5663.5035292989      8.54E-06 Convergence criterion met
 Total energy in the final basis set = -5663.5035292989

                    Orbital Energies (a.u.)
 --------------------------------------------------------------

 Alpha MOs
 -- Occupied --
-88.992 -88.980 -88.932 -88.931 -88.924 -88.921 -88.920 -88.905
-14.386 -14.386 -14.384 -14.382 -14.356 -14.349 -14.341 -14.339
-14.327 -14.319 -10.271 -10.270 -10.268 -10.266 -10.261 -10.259
-10.253 -10.252 -10.245 -10.243 -10.243 -10.242 -10.238 -10.236
-10.233 -10.232 -10.231 -10.229 -10.229 -10.227 -10.226 -10.225
-10.225 -10.225 -10.224 -10.221 -10.219 -10.218 -10.217 -10.212
-10.211 -10.211 -10.208 -10.207 -10.202 -10.199 -10.196 -10.192
-10.188 -10.186 -10.184 -10.183 -10.182 -10.179 -10.177 -10.172
-10.172 -10.170 -10.169 -10.162  -8.048  -8.035  -7.993  -7.989
 -7.985  -7.980  -7.979  -7.965  -6.014  -6.008  -6.006  -6.000
 -5.994  -5.993  -5.957  -5.954  -5.954  -5.950  -5.949  -5.949
 -5.946  -5.946  -5.944  -5.943  -5.942  -5.940  -5.940  -5.936
 -5.935  -5.929  -5.926  -5.921  -1.052  -1.027  -0.980  -0.969
 -0.960  -0.947  -0.941  -0.938  -0.911  -0.910  -0.908  -0.897
 -0.847  -0.841  -0.835  -0.834  -0.806  -0.806  -0.805  -0.803
 -0.800  -0.799  -0.796  -0.792  -0.781  -0.776  -0.768  -0.761
 -0.752  -0.748  -0.739  -0.738  -0.728  -0.720  -0.708  -0.708
 -0.695  -0.692  -0.675  -0.669  -0.656  -0.649  -0.646  -0.643
 -0.634  -0.634  -0.628  -0.621  -0.612  -0.610  -0.598  -0.593
 -0.593  -0.589  -0.583  -0.578  -0.577  -0.575  -0.564  -0.563
 -0.553  -0.548  -0.540  -0.537  -0.524  -0.519  -0.509  -0.507
 -0.505  -0.504  -0.499  -0.495  -0.488  -0.483  -0.478  -0.473
 -0.473  -0.468  -0.467  -0.465  -0.462  -0.459  -0.447  -0.446
 -0.443  -0.441  -0.439  -0.434  -0.432  -0.431  -0.431  -0.430
 -0.427  -0.427  -0.422  -0.421  -0.416  -0.414  -0.413  -0.412
 -0.412  -0.410  -0.405  -0.400  -0.398  -0.398  -0.397  -0.397
 -0.395  -0.392  -0.391  -0.387  -0.387  -0.383  -0.383  -0.382
 -0.380  -0.379  -0.377  -0.370  -0.366  -0.366  -0.362  -0.357
 -0.354  -0.352  -0.348  -0.348  -0.345  -0.344  -0.342  -0.341
 -0.338  -0.335  -0.335  -0.330  -0.329  -0.326  -0.322  -0.321
 -0.315  -0.315  -0.313  -0.311  -0.310  -0.300  -0.298  -0.296
 -0.295  -0.292  -0.290  -0.288  -0.284  -0.283  -0.281  -0.280
 -0.280  -0.270  -0.265  -0.264  -0.258  -0.254  -0.250  -0.244
 -0.243  -0.242  -0.232  -0.229  -0.195  -0.192

          Ground-State Mulliken Net Atomic Charges

     Atom                 Charge (a.u.)
  ----------------------------------------
      1 C                     0.291144
      2 C                    -0.120144
      3 N                    -0.488096
      4 C                    -0.084109
      5 C                     0.065997
      6 C                     0.044861
      7 C                     0.047653
      8 C                     0.036162
      9 C                     0.206174
     10 N                    -0.494607
     11 N                    -0.538425
     12 C                     0.224626
     13 C                     0.303729
     14 S                     0.600784
     15 N                    -0.575010
     16 C                    -0.229527
     17 S                     0.340786
     18 C                    -0.100598
     19 C                    -0.228865
     20 S                     0.311271
     21 C                     0.134247
     22 C                     0.097509
     23 C                    -0.308174
     24 C                    -0.073094
     25 N                    -0.459036
     26 S                     0.258024
     27 C                     0.140581
     28 C                    -0.308095
     29 C                    -0.223637
     30 H                     0.084151
     31 H                     0.113999
     32 H                     0.098208
     33 H                     0.113685
     34 H                     0.122654
     35 H                     0.134989
     36 H                     0.119830
     37 H                     0.131862
     38 H                     0.127835
     39 C                    -0.205287
     40 H                     0.116263
     41 H                     0.104058
     42 H                     0.092900
     43 C                    -0.177921
     44 H                     0.098086
     45 C                    -0.185405
     46 H                     0.098395
     47 H                     0.095095
     48 H                     0.093052
     49 C                    -0.187686
     50 H                     0.094412
     51 C                    -0.328738
     52 H                     0.098889
     53 H                     0.101626
     54 H                     0.103227
     55 H                     0.100731
     56 C                     0.257087
     57 C                    -0.138949
     58 N                    -0.467760
     59 C                    -0.079389
     60 C                     0.089200
     61 C                     0.038569
     62 C                     0.039157
     63 C                     0.035998
     64 C                     0.210110
     65 N                    -0.520890
     66 N                    -0.546291
     67 C                     0.206499
     68 C                     0.304221
     69 S                     0.619402
     70 N                    -0.555088
     71 C                    -0.219626
     72 S                     0.315007
     73 C                    -0.126623
     74 C                    -0.244300
     75 S                     0.283525
     76 C                     0.158757
     77 C                     0.061404
     78 C                    -0.311287
     79 C                    -0.047537
     80 N                    -0.426721
     81 S                     0.247158
     82 C                     0.149683
     83 C                    -0.312360
     84 C                    -0.205796
     85 H                     0.095440
     86 H                     0.101646
     87 H                     0.117586
     88 H                     0.113241
     89 H                     0.127113
     90 H                     0.120152
     91 H                     0.115699
     92 H                     0.125700
     93 H                     0.119209
     94 C                    -0.177761
     95 H                     0.083991
     96 H                     0.115748
     97 H                     0.082424
     98 C                    -0.175069
     99 H                     0.087876
    100 C                    -0.174382
    101 H                     0.092406
    102 H                     0.092377
    103 H                     0.092629
    104 C                    -0.169432
    105 H                     0.094746
    106 C                    -0.313371
    107 H                     0.095763
    108 H                     0.098520
    109 H                     0.104304
    110 H                     0.089250
  ----------------------------------------
  Sum of atomic charges =     0.000000

                    Cartesian Multipole Moments
 -----------------------------------------------------------------
    Charge (ESU x 10^10)
                 0.0000
    Dipole Moment (Debye)
         X       1.6074      Y      -2.2150      Z      -2.4205
       Tot       3.6536
    Quadrupole Moments (Debye-Ang)
        XX    -394.7142     XY     -12.3979     YY    -441.7905
        XZ      18.7055     YZ      -5.5721     ZZ    -434.2406

 Total job time:  84.22s(wall), 998.85s(cpu)
        *  Thank you very much for using Q-Chem.  Have a nice day.  *
