 Q-Chem 4.4, Q-Chem, Inc., Pleasanton, CA (2016)
 Q-Chem 4.4.2 for Intel X86 Linux

User input:
--------------------------------------------------------------
$comment
OPTIMIZATION
$end

$rem
JOBTYPE OPT
EXCHANGE omegaB97X-D
BASIS cc-pVTZ
$end

$molecule
0 1
C          0.00000        0.00000        0.00000
C          1.38599        0.00000        0.00000
C         -0.68515       -1.20581        0.00000
C          2.08055       -1.19709        0.02226
C          0.00742       -2.40411        0.01179
C          1.40063       -2.41271        0.04151
C          2.15950       -3.67324        0.15696
C          3.08946       -4.02545       -0.78257
C          2.00259       -4.59821        1.22605
N          3.83898       -5.15359       -0.76958
N          1.16908       -4.49231        2.26315
C          2.78343       -5.79908        1.24950
C          3.71877       -6.03047        0.18931
S          1.39925       -5.81395        3.15446
N          2.52769       -6.57398        2.30399
C          4.58584       -7.20614        0.10908
N          4.56737       -8.23108        0.90220
S          5.77415       -7.28811       -1.15860
C          5.51114       -9.13869        0.54560
C          6.27744       -8.81881       -0.54199
C          7.31587       -9.61771       -1.15534
S          8.67391       -8.91374       -1.96766
C          7.42499      -10.98002       -1.20837
C          9.34805      -10.42920       -2.37984
S          6.43168      -12.30024       -0.65073
C          8.57532      -11.45295       -1.90634
C          7.55324      -13.44718       -1.35561
C          8.61200      -12.89174       -1.96538
H         -0.54342        0.93472        0.00000
H          1.93260        0.93382       -0.01501
H         -1.76734       -1.21268        0.00047
H          3.16263       -1.19509        0.00785
H         -0.53593       -3.33924        0.01382
H          3.28289       -3.35509       -1.61034
H          5.62979      -10.04203        1.12563
H         10.25874      -10.48743       -2.94948
H          7.32542      -14.49723       -1.26978
H          9.38322      -13.46482       -2.45558
$end

$opt
CONSTRAINT
tors 4 6 7 8 -60.00000
tors 10 13 16 18 4.63242
tors 18 20 21 22 32.71647
ENDCONSTRAINT
$end
--------------------------------------------------------------

   16   -2579.8604954241      4.45E-09 Convergence criterion met
 Total energy in the final basis set = -2579.8604954241
   12   -2579.8611157462      4.68E-09 Convergence criterion met
 Total energy in the final basis set = -2579.8611157462
   12   -2579.8612811707      3.59E-09 Convergence criterion met
 Total energy in the final basis set = -2579.8612811707
   10   -2579.8613010680      7.77E-09 Convergence criterion met
 Total energy in the final basis set = -2579.8613010680
   10   -2579.8613089010      8.18E-09 Convergence criterion met
 Total energy in the final basis set = -2579.8613089010
    9   -2579.8613102806      4.23E-09 Convergence criterion met
 Total energy in the final basis set = -2579.8613102806

             Standard Nuclear Orientation (Angstroms)
    I     Atom           X                Y                Z
 ----------------------------------------------------------------
    1      C      -8.0349528918    -1.4747282839     0.4632411051
    2      C      -7.2214118971    -2.1387687560    -0.4402308271
    3      C      -7.5024834547    -0.4760376412     1.2655935577
    4      C      -5.8791230065    -1.8076242951    -0.5385636813
    5      C      -6.1628649039    -0.1430527030     1.1669114643
    6      C      -5.3348097837    -0.8173526575     0.2734395639
    7      C      -3.9056637834    -0.4629065512     0.1510807558
    8      C      -2.9092321690    -1.3732474256     0.3609717689
    9      C      -3.4677591077     0.8558861814    -0.1529632510
   10      N      -1.5789050723    -1.1207356283     0.2690674930
   11      N      -4.2377776419     1.9217056716    -0.3831485593
   12      C      -2.0684495075     1.1392257820    -0.2525140246
   13      C      -1.1395588236     0.0712472365    -0.0289085551
   14      S      -3.2305073929     3.1398332464    -0.6902532131
   15      N      -1.8076868026     2.4109593511    -0.5576332786
   16      C       0.3124389578     0.2305825407    -0.1104895243
   17      N       0.9524724606     1.3376101407    -0.3265551188
   18      S       1.3250475192    -1.1704869258     0.0676685149
   19      C       2.2912011680     1.1254950782    -0.3721381946
   20      C       2.7037760035    -0.1670574906    -0.1921789522
   21      C       4.0640212788    -0.6587617932    -0.1669444870
   22      S       4.4844767490    -2.2539855300    -0.6891686601
   23      C       5.2063936627     0.0034395235     0.1965054969
   24      C       6.1514759226    -2.0277663346    -0.3975306445
   25      S       5.5453586256     1.5970943611     0.8131562346
   26      C       6.3996354225    -0.7684544642     0.0723988488
   27      C       7.2512188544     1.2121307256     0.8935025111
   28      C       7.5638917878    -0.0284104881     0.4870466623
   29      H      -9.0831765395    -1.7295544606     0.5401294572
   30      H      -7.6317735403    -2.9102675649    -1.0771550864
   31      H      -8.1348142388     0.0515143771     1.9663630535
   32      H      -5.2459264494    -2.3166788413    -1.2531568876
   33      H      -5.7531595822     0.6435004351     1.7852549928
   34      H      -3.1636195180    -2.3925721238     0.6233712705
   35      H       2.9547474835     1.9551559129    -0.5654434092
   36      H       6.8501096305    -2.8242517809    -0.5871586303
   37      H       7.9322570297     1.9686605158     1.2479933993
   38      H       8.5691211946    -0.4197875525     0.4758612325
 ----------------------------------------------------------------

    8   -2579.8613107114      6.21E-09 Convergence criterion met
 Total energy in the final basis set = -2579.8613107114
 Final energy is   -2579.86131071135
 **  OPTIMIZATION CONVERGED  **

                    Orbital Energies (a.u.)
 --------------------------------------------------------------

 Alpha MOs
 -- Occupied --
-89.149 -89.090 -89.086 -89.078 -14.485 -14.481 -14.453 -14.443
-10.365 -10.362 -10.356 -10.355 -10.343 -10.342 -10.335 -10.333
-10.330 -10.327 -10.323 -10.322 -10.313 -10.311 -10.305 -10.297
-10.296 -10.295 -10.295 -10.294  -8.159  -8.105  -8.101  -8.093
 -6.109  -6.103  -6.103  -6.054  -6.051  -6.050  -6.048  -6.047
 -6.045  -6.043  -6.039  -6.035  -1.145  -1.086  -1.064  -1.023
 -1.009  -0.974  -0.959  -0.925  -0.919  -0.898  -0.876  -0.860
 -0.855  -0.833  -0.828  -0.802  -0.774  -0.743  -0.734  -0.712
 -0.706  -0.693  -0.691  -0.660  -0.651  -0.637  -0.627  -0.614
 -0.606  -0.598  -0.571  -0.563  -0.556  -0.548  -0.543  -0.531
 -0.530  -0.523  -0.514  -0.514  -0.507  -0.504  -0.498  -0.485
 -0.477  -0.476  -0.467  -0.455  -0.448  -0.440  -0.436  -0.434
 -0.428  -0.423  -0.421  -0.399  -0.393  -0.371  -0.369  -0.362
 -0.357  -0.353  -0.339  -0.337  -0.324  -0.309  -0.273

          Ground-State Mulliken Net Atomic Charges

     Atom                 Charge (a.u.)
  ----------------------------------------
      1 C                    -0.123872
      2 C                    -0.104934
      3 C                    -0.105716
      4 C                    -0.144364
      5 C                    -0.119213
      6 C                     0.101942
      7 C                    -0.003986
      8 C                    -0.097207
      9 C                     0.031616
     10 N                    -0.172855
     11 N                    -0.272358
     12 C                    -0.013103
     13 C                     0.108951
     14 S                     0.412194
     15 N                    -0.223037
     16 C                    -0.008967
     17 N                    -0.136875
     18 S                     0.121226
     19 C                    -0.145743
     20 C                    -0.015481
     21 C                     0.005245
     22 S                     0.134108
     23 C                    -0.053445
     24 C                    -0.221202
     25 S                     0.057368
     26 C                     0.044297
     27 C                    -0.146314
     28 C                    -0.171960
     29 H                     0.118042
     30 H                     0.116314
     31 H                     0.115267
     32 H                     0.127872
     33 H                     0.116532
     34 H                     0.133759
     35 H                     0.145200
     36 H                     0.130018
     37 H                     0.132710
     38 H                     0.127969
  ----------------------------------------
  Sum of atomic charges =     0.000000

                    Cartesian Multipole Moments
 -----------------------------------------------------------------
    Charge (ESU x 10^10)
                 0.0000
    Dipole Moment (Debye)
         X       0.8066      Y      -0.8800      Z       0.1433
       Tot       1.2023
    Quadrupole Moments (Debye-Ang)
        XX    -139.7591     XY       0.1097     YY    -177.9500
        XZ      -0.3777     YZ       5.3740     ZZ    -186.4802

 Total job time:  5323.92s(wall), 79877.71s(cpu)
        *  Thank you very much for using Q-Chem.  Have a nice day.  *
