 Q-Chem 4.4, Q-Chem, Inc., Pleasanton, CA (2016)
 Q-Chem 4.4.2 for Intel X86 Linux

User input:
--------------------------------------------------------------
$comment
OPTIMIZATION
$end

$rem
JOBTYPE OPT
EXCHANGE omegaB97X-D
BASIS cc-pVTZ
$end

$molecule
0 1
C          0.00000        0.00000        0.00000
C          1.38599        0.00000        0.00000
C         -0.68515       -1.20581        0.00000
C          2.08055       -1.19709        0.02226
C          0.00742       -2.40411        0.01179
C          1.40063       -2.41271        0.04151
C          2.15950       -3.67324        0.15696
C          3.28495       -3.89012       -0.58998
C          1.80423       -4.73522        1.03395
N          4.05256       -5.00565       -0.55828
N          0.76004       -4.77508        1.86438
C          2.60263       -5.92407        1.07321
C          3.75559       -6.00488        0.22670
S          0.83517       -6.20398        2.60383
N          2.14893       -6.83592        1.93374
C          4.65993       -7.15428        0.18826
N          4.50379       -8.27723        0.81634
S          6.09985       -7.05762       -0.78290
C          5.53420       -9.12322        0.56301
C          6.50895       -8.65502       -0.27545
C          7.68423       -9.35804       -0.74155
S          9.16190       -8.54343       -1.13222
C          7.85023      -10.70005       -0.94672
C          9.96305       -9.98557       -1.57873
S          6.80581      -12.08882       -0.80159
C          9.14172      -11.06806       -1.42705
C          8.09449      -13.12385       -1.38317
C          9.24112      -12.48540       -1.66413
H         -0.54342        0.93472        0.00000
H          1.93260        0.93382       -0.01501
H         -1.76734       -1.21268        0.00047
H          3.16263       -1.19509        0.00785
H         -0.53593       -3.33924        0.01382
H          3.63178       -3.11287       -1.25900
H          5.55426      -10.09611        1.03164
H         10.97811       -9.96135       -1.93412
H          7.89050      -14.17705       -1.48827
H         10.12087      -12.98277       -2.04115
$end

$opt
CONSTRAINT
tors 4 6 7 8 -45.00000
tors 10 13 16 18 4.63242
tors 18 20 21 22 32.71647
ENDCONSTRAINT
$end
--------------------------------------------------------------

   16   -2579.8615185563      4.75E-09 Convergence criterion met
 Total energy in the final basis set = -2579.8615185563
   12   -2579.8622796070      4.79E-09 Convergence criterion met
 Total energy in the final basis set = -2579.8622796070
   12   -2579.8625723373      5.02E-09 Convergence criterion met
 Total energy in the final basis set = -2579.8625723373
   10   -2579.8626073989      7.31E-09 Convergence criterion met
 Total energy in the final basis set = -2579.8626073989
    9   -2579.8626186569      9.81E-09 Convergence criterion met
 Total energy in the final basis set = -2579.8626186569
    9   -2579.8626210738      3.84E-09 Convergence criterion met
 Total energy in the final basis set = -2579.8626210738

             Standard Nuclear Orientation (Angstroms)
    I     Atom           X                Y                Z
 ----------------------------------------------------------------
    1      C       8.0090971747     1.5213843402     0.5775560437
    2      C       7.1619073977     2.3213744464    -0.1726062281
    3      C       7.5237676254     0.3562502749     1.1520211368
    4      C       5.8349143297     1.9613916538    -0.3408772986
    5      C       6.1993531448    -0.0066583262     0.9825254903
    6      C       5.3361276274     0.7976375709     0.2407151075
    7      C       3.9123181319     0.4417400849     0.0877839888
    8      C       2.9163742401     1.3650134894     0.2507880194
    9      C       3.4662705963    -0.8762524135    -0.2170238079
   10      N       1.5866608973     1.1222133611     0.1443667728
   11      N       4.2269941074    -1.9514779649    -0.4355719461
   12      C       2.0654483547    -1.1472342775    -0.3378168332
   13      C       1.1410042879    -0.0721190496    -0.1346808906
   14      S       3.2130969655    -3.1600114403    -0.7569711766
   15      N       1.7967054311    -2.4166234461    -0.6451144293
   16      C      -0.3115061752    -0.2290410639    -0.2036048510
   17      N      -0.9554804230    -1.3403367436    -0.3836682626
   18      S      -1.3210084475     1.1758618878    -0.0366636542
   19      C      -2.2947182006    -1.1290351786    -0.4078437053
   20      C      -2.7042859736     0.1668731134    -0.2461687327
   21      C      -4.0647476220     0.6559870054    -0.1969452383
   22      S      -4.5053527597     2.2402912342    -0.7351827113
   23      C      -5.1934395531    -0.0016590732     0.2144361145
   24      C      -6.1621822485     2.0155949026    -0.3881025111
   25      S      -5.5074311720    -1.5827486894     0.8746261320
   26      C      -6.3921136401     0.7649662056     0.1131374820
   27      C      -7.2108371031    -1.2000285489     1.0023062963
   28      C      -7.5403078788     0.0309789450     0.5802591125
   29      H       9.0452803811     1.8008257219     0.7107254051
   30      H       7.5361689000     3.2257044961    -0.6324297905
   31      H       8.1787228324    -0.2726000581     1.7392768538
   32      H       5.1821180089     2.5786422443    -0.9439090095
   33      H       5.8282296768    -0.9165407655     1.4309435189
   34      H       3.1717414741     2.3859858280     0.5052128449
   35      H      -2.9618347035    -1.9626072202    -0.5695730904
   36      H      -6.8684188237     2.8068381772    -0.5714306061
   37      H      -7.8774943353    -1.9502690541     1.3954488210
   38      H      -8.5465295809     0.4197131017     0.5939638356
 ----------------------------------------------------------------

    9   -2579.8626217544      2.82E-09 Convergence criterion met
 Total energy in the final basis set = -2579.8626217544
 Final energy is   -2579.86262175437
 **  OPTIMIZATION CONVERGED  **

                    Orbital Energies (a.u.)
 --------------------------------------------------------------

 Alpha MOs
 -- Occupied --
-89.149 -89.090 -89.086 -89.078 -14.485 -14.481 -14.454 -14.443
-10.365 -10.362 -10.357 -10.355 -10.343 -10.342 -10.335 -10.333
-10.330 -10.327 -10.324 -10.322 -10.313 -10.312 -10.305 -10.298
-10.296 -10.295 -10.295 -10.294  -8.159  -8.105  -8.102  -8.093
 -6.109  -6.104  -6.103  -6.054  -6.051  -6.050  -6.048  -6.047
 -6.045  -6.043  -6.039  -6.035  -1.146  -1.086  -1.064  -1.023
 -1.010  -0.974  -0.959  -0.925  -0.920  -0.899  -0.877  -0.860
 -0.855  -0.833  -0.828  -0.802  -0.775  -0.744  -0.734  -0.712
 -0.705  -0.693  -0.691  -0.660  -0.651  -0.637  -0.626  -0.614
 -0.606  -0.598  -0.571  -0.564  -0.556  -0.548  -0.542  -0.531
 -0.530  -0.524  -0.514  -0.514  -0.507  -0.503  -0.498  -0.486
 -0.477  -0.476  -0.469  -0.455  -0.449  -0.440  -0.435  -0.434
 -0.430  -0.423  -0.421  -0.399  -0.393  -0.373  -0.368  -0.362
 -0.359  -0.353  -0.339  -0.338  -0.324  -0.306  -0.272

          Ground-State Mulliken Net Atomic Charges

     Atom                 Charge (a.u.)
  ----------------------------------------
      1 C                    -0.124423
      2 C                    -0.108852
      3 C                    -0.109245
      4 C                    -0.151316
      5 C                    -0.120431
      6 C                     0.123285
      7 C                     0.015671
      8 C                    -0.109356
      9 C                     0.033875
     10 N                    -0.174271
     11 N                    -0.282498
     12 C                    -0.013788
     13 C                     0.109020
     14 S                     0.412817
     15 N                    -0.222486
     16 C                    -0.008457
     17 N                    -0.137239
     18 S                     0.121182
     19 C                    -0.146111
     20 C                    -0.016010
     21 C                     0.005043
     22 S                     0.133828
     23 C                    -0.052394
     24 C                    -0.220518
     25 S                     0.057579
     26 C                     0.043420
     27 C                    -0.146542
     28 C                    -0.172214
     29 H                     0.117971
     30 H                     0.115042
     31 H                     0.114613
     32 H                     0.126946
     33 H                     0.113832
     34 H                     0.135417
     35 H                     0.145594
     36 H                     0.129996
     37 H                     0.132981
     38 H                     0.128040
  ----------------------------------------
  Sum of atomic charges =     0.000000

                    Cartesian Multipole Moments
 -----------------------------------------------------------------
    Charge (ESU x 10^10)
                 0.0000
    Dipole Moment (Debye)
         X      -0.8023      Y       0.8782      Z       0.2759
       Tot       1.2211
    Quadrupole Moments (Debye-Ang)
        XX    -139.9829     XY      -0.0312     YY    -176.4726
        XZ       0.2131     YZ      -5.0468     ZZ    -187.7840

 Total job time:  5377.74s(wall), 80764.11s(cpu)
        *  Thank you very much for using Q-Chem.  Have a nice day.  *
