 Q-Chem 4.4, Q-Chem, Inc., Pleasanton, CA (2016)
 Q-Chem 4.4.2 for Intel X86 Linux

User input:
--------------------------------------------------------------
$comment
OPTIMIZATION
$end

$rem
JOBTYPE OPT
EXCHANGE omegaB97X-D
BASIS cc-pVTZ
$end

$molecule
0 1
C          0.00000        0.00000        0.00000
C          1.38599        0.00000        0.00000
C         -0.68515       -1.20581        0.00000
C          2.08055       -1.19709        0.02226
C          0.00742       -2.40411        0.01179
C          1.40063       -2.41271        0.04151
C          2.15950       -3.67324        0.15696
C          2.95748       -3.91961        1.24053
C          2.12145       -4.71337       -0.81249
N          3.69075       -5.04004        1.44448
N          1.42617       -4.72358       -1.95179
C          2.89722       -5.90123       -0.61373
C          3.68883       -6.01316        0.57507
S          1.75705       -6.13121       -2.66121
N          2.77028       -6.78581       -1.60329
C          4.50781       -7.18046        0.90240
N          4.71555       -8.21126        0.14466
S          5.30566       -7.23992        2.44698
C          5.51960       -9.11382        0.76150
C          5.94680       -8.78332        2.01874
C          6.83649       -9.53718        2.87486
S          6.73647       -9.47833        4.60293
C          7.85097      -10.38226        2.51807
C          8.04776      -10.55242        4.82159
S          8.53399      -10.88392        0.99413
C          8.54976      -10.96238        3.61772
C          9.73013      -11.84379        1.84156
C          9.63136      -11.80682        3.17954
H         -0.54342        0.93472        0.00000
H          1.93260        0.93382       -0.01501
H         -1.76734       -1.21268        0.00047
H          3.16263       -1.19509        0.00785
H         -0.53593       -3.33924        0.01382
H          3.01279       -3.18402        2.03289
H          5.76957      -10.03716        0.26001
H          8.38287      -10.81450        5.80964
H         10.45825      -12.37993        1.25482
H         10.30096      -12.33574        3.83936
$end

$opt
CONSTRAINT
tors 4 6 7 8 60.00000
tors 10 13 16 18 4.63242
tors 18 20 21 22 32.71647
ENDCONSTRAINT
$end
--------------------------------------------------------------

   16   -2579.8607781665      4.50E-09 Convergence criterion met
 Total energy in the final basis set = -2579.8607781665
   11   -2579.8611711431      9.93E-09 Convergence criterion met
 Total energy in the final basis set = -2579.8611711431
   12   -2579.8613623075      5.59E-09 Convergence criterion met
 Total energy in the final basis set = -2579.8613623075
   10   -2579.8613849912      5.33E-09 Convergence criterion met
 Total energy in the final basis set = -2579.8613849912
   10   -2579.8613924883      3.94E-09 Convergence criterion met
 Total energy in the final basis set = -2579.8613924883

             Standard Nuclear Orientation (Angstroms)
    I     Atom           X                Y                Z
 ----------------------------------------------------------------
    1      C      -8.0204954945     1.5313877770    -0.4420774365
    2      C      -7.1473670290     1.8129105175    -1.4801726997
    3      C      -7.5507605222     0.9074716816     0.7045278198
    4      C      -5.8077070462     1.4749857112    -1.3711372978
    5      C      -6.2141926285     0.5657508357     0.8129790542
    6      C      -5.3270979635     0.8595303750    -0.2194145222
    7      C      -3.8994588454     0.4927923858    -0.1167086820
    8      C      -2.9011153899     1.4211069885    -0.2003488871
    9      C      -3.4674334338    -0.8429135197     0.1134533488
   10      N      -1.5720917393     1.1593466202    -0.1137829645
   11      N      -4.2412077883    -1.9221379018     0.2485564808
   12      C      -2.0699082144    -1.1353395733     0.2111644321
   13      C      -1.1371922602    -0.0552918944     0.0803988060
   14      S      -3.2393309200    -3.1613589918     0.4814140415
   15      N      -1.8143890983    -2.4268051667     0.4232750083
   16      C       0.3140121843    -0.2258774752     0.1538459751
   17      N       0.9501464626    -1.3512814077     0.2557679003
   18      S       1.3322296428     1.1817456043     0.1035153900
   19      C       2.2902811636    -1.1502014937     0.3113148180
   20      C       2.7078377157     0.1518466454     0.2526709150
   21      C       4.0705131790     0.6374163883     0.2666270245
   22      S       4.5048344305     2.1702012428     0.9407665032
   23      C       5.2038376093     0.0144089978    -0.1838700212
   24      C       6.1662606023     1.9717239383     0.6002118502
   25      S       5.5242260010    -1.5017945518    -0.9791809582
   26      C       6.4019482141     0.7668401475    -0.0007404795
   27      C       7.2294607140    -1.1126323415    -1.0517822233
   28      C       7.5550256950     0.0749759588    -0.5172587908
   29      H      -9.0666723424     1.7915313982    -0.5282459486
   30      H      -7.5112452425     2.2872236163    -2.3812495058
   31      H      -8.2309307763     0.6816209532     1.5142283421
   32      H      -5.1257229892     1.6826143246    -2.1850590485
   33      H      -5.8506191747     0.0724208864     1.7037299537
   34      H      -3.1521288544     2.4637381455    -0.3501959905
   35      H       2.9501874223    -1.9983604307     0.4175162359
   36      H       6.8701503603     2.7449040169     0.8552472592
   37      H       7.8990826340    -1.8254024676    -1.5050213461
   38      H       8.5616864719     0.4614954873    -0.4848703939
 ----------------------------------------------------------------

    9   -2579.8613936262      4.00E-09 Convergence criterion met
 Total energy in the final basis set = -2579.8613936262
 Final energy is   -2579.86139362619
 **  OPTIMIZATION CONVERGED  **

                    Orbital Energies (a.u.)
 --------------------------------------------------------------

 Alpha MOs
 -- Occupied --
-89.149 -89.090 -89.086 -89.078 -14.485 -14.481 -14.453 -14.443
-10.365 -10.362 -10.356 -10.355 -10.343 -10.342 -10.335 -10.332
-10.330 -10.327 -10.323 -10.322 -10.313 -10.311 -10.305 -10.297
-10.296 -10.295 -10.295 -10.294  -8.159  -8.105  -8.102  -8.093
 -6.109  -6.103  -6.103  -6.054  -6.051  -6.050  -6.048  -6.047
 -6.045  -6.043  -6.039  -6.035  -1.145  -1.086  -1.064  -1.023
 -1.009  -0.974  -0.959  -0.925  -0.919  -0.898  -0.876  -0.860
 -0.855  -0.833  -0.828  -0.802  -0.774  -0.743  -0.734  -0.712
 -0.706  -0.693  -0.691  -0.660  -0.651  -0.637  -0.627  -0.614
 -0.606  -0.598  -0.571  -0.563  -0.556  -0.548  -0.543  -0.531
 -0.530  -0.524  -0.514  -0.513  -0.507  -0.504  -0.498  -0.485
 -0.477  -0.475  -0.467  -0.455  -0.448  -0.440  -0.436  -0.433
 -0.428  -0.423  -0.421  -0.399  -0.393  -0.373  -0.368  -0.362
 -0.357  -0.353  -0.339  -0.337  -0.324  -0.309  -0.273

          Ground-State Mulliken Net Atomic Charges

     Atom                 Charge (a.u.)
  ----------------------------------------
      1 C                    -0.123627
      2 C                    -0.104863
      3 C                    -0.105219
      4 C                    -0.143999
      5 C                    -0.119138
      6 C                     0.102210
      7 C                    -0.004975
      8 C                    -0.097385
      9 C                     0.032531
     10 N                    -0.173055
     11 N                    -0.272089
     12 C                    -0.012892
     13 C                     0.108949
     14 S                     0.411951
     15 N                    -0.223140
     16 C                    -0.009096
     17 N                    -0.137162
     18 S                     0.120973
     19 C                    -0.145632
     20 C                    -0.016126
     21 C                     0.003918
     22 S                     0.134301
     23 C                    -0.051788
     24 C                    -0.220145
     25 S                     0.057459
     26 C                     0.043329
     27 C                    -0.146028
     28 C                    -0.172606
     29 H                     0.117965
     30 H                     0.115538
     31 H                     0.115158
     32 H                     0.127859
     33 H                     0.115968
     34 H                     0.134075
     35 H                     0.146048
     36 H                     0.129860
     37 H                     0.132934
     38 H                     0.127938
  ----------------------------------------
  Sum of atomic charges =     0.000000

                    Cartesian Multipole Moments
 -----------------------------------------------------------------
    Charge (ESU x 10^10)
                 0.0000
    Dipole Moment (Debye)
         X       0.7946      Y       0.9050      Z      -0.0966
       Tot       1.2082
    Quadrupole Moments (Debye-Ang)
        XX    -139.8617     XY      -0.2431     YY    -180.9917
        XZ      -1.9694     YZ      -0.3620     ZZ    -183.4295

 Total job time:  4748.00s(wall), 71297.67s(cpu)
        *  Thank you very much for using Q-Chem.  Have a nice day.  *
