 Q-Chem 4.4, Q-Chem, Inc., Pleasanton, CA (2016)
 Q-Chem 4.4.2 for Intel X86 Linux

User input:
--------------------------------------------------------------
$comment
OPTIMIZATION
$end

$rem
JOBTYPE OPT
EXCHANGE omegaB97X-D
BASIS cc-pVTZ
$end

$molecule
0 1
C          0.00000        0.00000        0.00000
C          1.38599        0.00000        0.00000
C         -0.68515       -1.20581        0.00000
C          2.08055       -1.19709        0.02226
C          0.00742       -2.40411        0.01179
C          1.40063       -2.41271        0.04151
C          2.15950       -3.67324        0.15696
C          3.42847       -3.78107       -0.34272
C          1.65787       -4.84602        0.78632
N          4.20916       -4.88656       -0.28728
N          0.45882       -5.00344        1.35115
C          2.46949       -6.02501        0.84632
C          3.78236       -5.98440        0.27435
S          0.41993       -6.51886        1.89536
N          1.87022       -7.04733        1.45751
C          4.71296       -7.11322        0.28802
N          4.46228       -8.31166        0.71321
S          6.32672       -6.87839       -0.31733
C          5.55230       -9.11012        0.58699
C          6.67034       -8.52759        0.05498
C          7.94332       -9.15484       -0.22588
S          9.44109       -8.28704       -0.16809
C          8.19748      -10.45582       -0.56272
C         10.37103       -9.65122       -0.60992
S          7.19625      -11.85695       -0.83648
C          9.57508      -10.74860       -0.78766
C          8.61684      -12.79692       -1.24711
C          9.77397      -12.12026       -1.18000
H         -0.54342        0.93472        0.00000
H          1.93260        0.93382       -0.01501
H         -1.76734       -1.21268        0.00047
H          3.16263       -1.19509        0.00785
H         -0.53593       -3.33924        0.01382
H          3.88621       -2.91860       -0.81027
H          5.50317      -10.13737        0.91695
H         11.43786       -9.57376       -0.72433
H          8.47814      -13.82725       -1.53179
H         10.73202      -12.55737       -1.41363
$end

$opt
CONSTRAINT
tors 4 6 7 8 -30.00000
tors 10 13 16 18 4.63242
tors 18 20 21 22 32.71647
ENDCONSTRAINT
$end
--------------------------------------------------------------

   16   -2579.8604896161      4.98E-09 Convergence criterion met
 Total energy in the final basis set = -2579.8604896161
   12   -2579.8616736348      6.87E-09 Convergence criterion met
 Total energy in the final basis set = -2579.8616736348
   12   -2579.8620649369      4.81E-09 Convergence criterion met
 Total energy in the final basis set = -2579.8620649369
   11   -2579.8621746511      9.98E-09 Convergence criterion met
 Total energy in the final basis set = -2579.8621746511
   10   -2579.8621977221      4.20E-09 Convergence criterion met
 Total energy in the final basis set = -2579.8621977221
    9   -2579.8622022109      6.12E-09 Convergence criterion met
 Total energy in the final basis set = -2579.8622022109
    9   -2579.8622033100      4.51E-09 Convergence criterion met
 Total energy in the final basis set = -2579.8622033100

             Standard Nuclear Orientation (Angstroms)
    I     Atom           X                Y                Z
 ----------------------------------------------------------------
    1      C       8.0153778461     1.5810255392     0.4832728871
    2      C       7.0717157754     2.4699378513    -0.0072163557
    3      C       7.6253862756     0.3007305480     0.8426284168
    4      C       5.7496442396     2.0810499761    -0.1326118238
    5      C       6.3033949626    -0.0908519728     0.7172778014
    6      C       5.3435880238     0.7948499539     0.2267253807
    7      C       3.9188702469     0.4159142648     0.1429808911
    8      C       2.9164715236     1.3332686156     0.3169399166
    9      C       3.4677900433    -0.9025602805    -0.1659398465
   10      N       1.5872276917     1.0893011588     0.2243497550
   11      N       4.2214949947    -1.9780405542    -0.4082803228
   12      C       2.0644523661    -1.1746447669    -0.2700235882
   13      C       1.1393863665    -0.1032242123    -0.0580330164
   14      S       3.2038996560    -3.1842565588    -0.7240319007
   15      N       1.7908536787    -2.4411102382    -0.5837802496
   16      C      -0.3128899654    -0.2552763509    -0.1348566078
   17      N      -0.9612223488    -1.3615531045    -0.3301102820
   18      S      -1.3162573726     1.1546543073     0.0281776013
   19      C      -2.2987162083    -1.1417434642    -0.3711010935
   20      C      -2.7024879316     0.1559130090    -0.2081386752
   21      C      -4.0598277684     0.6551210204    -0.1792830986
   22      S      -4.4769164089     2.2453498501    -0.7190204447
   23      C      -5.2022402872     0.0036410583     0.2030171214
   24      C      -6.1424739304     2.0314773528    -0.4098974212
   25      S      -5.5434057051    -1.5795891964     0.8445780571
   26      C      -6.3926593449     0.7798486240     0.0791351292
   27      C      -7.2465424142    -1.1849355028     0.9350553000
   28      C      -7.5567845508     0.0514658593     0.5143318258
   29      H       9.0492556319     1.8829514637     0.5805928032
   30      H       7.3658358833     3.4682374961    -0.3011177848
   31      H       8.3543537145    -0.4008313336     1.2246297089
   32      H       5.0310215229     2.7768976667    -0.5436558561
   33      H       6.0137341379    -1.0904892027     1.0021956202
   34      H       3.1637105892     2.3538053968     0.5778641766
   35      H      -2.9687236355    -1.9699850518    -0.5476469957
   36      H      -6.8387863020     2.8290120855    -0.6035915725
   37      H      -7.9278615839    -1.9330374027     1.3065438978
   38      H      -8.5600485581     0.4479347499     0.5071940702
 ----------------------------------------------------------------

    8   -2579.8622035880      6.42E-09 Convergence criterion met
 Total energy in the final basis set = -2579.8622035880
 Final energy is   -2579.86220358800
 **  OPTIMIZATION CONVERGED  **

                    Orbital Energies (a.u.)
 --------------------------------------------------------------

 Alpha MOs
 -- Occupied --
-89.149 -89.090 -89.086 -89.078 -14.485 -14.482 -14.454 -14.443
-10.364 -10.362 -10.358 -10.356 -10.343 -10.342 -10.335 -10.333
-10.330 -10.327 -10.326 -10.322 -10.313 -10.313 -10.305 -10.298
-10.295 -10.295 -10.294 -10.293  -8.160  -8.105  -8.102  -8.093
 -6.110  -6.104  -6.104  -6.055  -6.051  -6.050  -6.048  -6.047
 -6.045  -6.043  -6.039  -6.035  -1.146  -1.086  -1.065  -1.023
 -1.010  -0.974  -0.959  -0.925  -0.920  -0.899  -0.877  -0.860
 -0.855  -0.833  -0.828  -0.802  -0.775  -0.746  -0.734  -0.713
 -0.704  -0.693  -0.691  -0.660  -0.651  -0.636  -0.626  -0.615
 -0.606  -0.598  -0.572  -0.564  -0.556  -0.549  -0.539  -0.531
 -0.530  -0.525  -0.514  -0.513  -0.507  -0.502  -0.498  -0.488
 -0.478  -0.476  -0.470  -0.455  -0.451  -0.440  -0.435  -0.434
 -0.431  -0.423  -0.420  -0.397  -0.393  -0.375  -0.368  -0.362
 -0.360  -0.353  -0.339  -0.338  -0.324  -0.304  -0.272

          Ground-State Mulliken Net Atomic Charges

     Atom                 Charge (a.u.)
  ----------------------------------------
      1 C                    -0.123138
      2 C                    -0.114225
      3 C                    -0.113646
      4 C                    -0.145107
      5 C                    -0.122953
      6 C                     0.121823
      7 C                     0.019103
      8 C                    -0.115400
      9 C                     0.049673
     10 N                    -0.175315
     11 N                    -0.295370
     12 C                    -0.009259
     13 C                     0.110954
     14 S                     0.412759
     15 N                    -0.222050
     16 C                    -0.008472
     17 N                    -0.137419
     18 S                     0.120927
     19 C                    -0.145877
     20 C                    -0.015451
     21 C                     0.005336
     22 S                     0.134018
     23 C                    -0.053294
     24 C                    -0.221026
     25 S                     0.057456
     26 C                     0.044077
     27 C                    -0.146374
     28 C                    -0.171949
     29 H                     0.118120
     30 H                     0.115769
     31 H                     0.115715
     32 H                     0.123061
     33 H                     0.117358
     34 H                     0.133989
     35 H                     0.145466
     36 H                     0.130008
     37 H                     0.132787
     38 H                     0.127927
  ----------------------------------------
  Sum of atomic charges =     0.000000

                    Cartesian Multipole Moments
 -----------------------------------------------------------------
    Charge (ESU x 10^10)
                 0.0000
    Dipole Moment (Debye)
         X      -0.8147      Y       0.8933      Z       0.1511
       Tot       1.2184
    Quadrupole Moments (Debye-Ang)
        XX    -139.6415     XY      -0.6078     YY    -175.1575
        XZ       0.2198     YZ      -4.0161     ZZ    -189.3927

 Total job time:  6112.44s(wall), 91900.54s(cpu)
        *  Thank you very much for using Q-Chem.  Have a nice day.  *
