 Q-Chem 4.4, Q-Chem, Inc., Pleasanton, CA (2016)
 Q-Chem 4.4.2 for Intel X86 Linux

User input:
--------------------------------------------------------------
$comment
OPTIMIZATION
$end

$rem
JOBTYPE OPT
EXCHANGE omegaB97X-D
BASIS cc-pVTZ
$end

$molecule
0 1
C          0.00000        0.00000        0.00000
C          1.38599        0.00000        0.00000
C         -0.68515       -1.20581        0.00000
C          2.08055       -1.19709        0.02226
C          0.00742       -2.40411        0.01179
C          1.40063       -2.41271        0.04151
C          2.15950       -3.67324        0.15696
C          3.47079       -3.67410        0.54697
C          1.60900       -4.95747       -0.10922
N          4.25380       -4.77048        0.68664
N          0.36277       -5.23092       -0.50124
C          2.42709       -6.12553        0.02745
C          3.78832       -5.96524        0.44432
S          0.28876       -6.83194       -0.66072
N          1.78306       -7.25711       -0.25995
C          4.71797       -7.07809        0.63866
N          4.48997       -8.32611        0.37345
S          6.29931       -6.74823        1.28394
C          5.56676       -9.09286        0.68043
C          6.65180       -8.43461        1.19208
C          7.93220       -8.99787        1.56099
S          8.91342       -8.33078        2.82270
C          8.57037      -10.08535        1.03113
C         10.15557       -9.48576        2.61277
S          8.20470      -11.19716       -0.26143
C          9.83822      -10.36974        1.61916
C          9.73528      -12.00947       -0.00120
C         10.47890      -11.49697        0.99161
H         -0.54342        0.93472        0.00000
H          1.93260        0.93382       -0.01501
H         -1.76734       -1.21268        0.00047
H          3.16263       -1.19509        0.00785
H         -0.53593       -3.33924        0.01382
H          3.94813       -2.73438        0.79407
H          5.52179      -10.16154        0.53068
H         11.04606       -9.44881        3.21518
H          9.98457      -12.83892       -0.64288
H         11.44928      -11.88016        1.26551
$end

$opt
CONSTRAINT
tors 4 6 7 8 15.00000
tors 10 13 16 18 4.63242
tors 18 20 21 22 32.71647
ENDCONSTRAINT
$end
--------------------------------------------------------------

   16   -2579.8587532766      5.03E-09 Convergence criterion met
 Total energy in the final basis set = -2579.8587532766
   13   -2579.8596700936      3.29E-09 Convergence criterion met
 Total energy in the final basis set = -2579.8596700936
   11   -2579.8600434662      8.26E-09 Convergence criterion met
 Total energy in the final basis set = -2579.8600434662
   10   -2579.8601030289      8.76E-09 Convergence criterion met
 Total energy in the final basis set = -2579.8601030289
   10   -2579.8601297451      5.85E-09 Convergence criterion met
 Total energy in the final basis set = -2579.8601297451
   10   -2579.8601414401      7.23E-09 Convergence criterion met
 Total energy in the final basis set = -2579.8601414401
    9   -2579.8601433059      7.73E-09 Convergence criterion met
 Total energy in the final basis set = -2579.8601433059
    9   -2579.8601443814      6.93E-09 Convergence criterion met
 Total energy in the final basis set = -2579.8601443814

             Standard Nuclear Orientation (Angstroms)
    I     Atom           X                Y                Z
 ----------------------------------------------------------------
    1      C       8.0113784283     1.6452508976     0.4587067142
    2      C       6.9829297382     2.4707554444     0.8861537465
    3      C       7.7036511871     0.4120921294    -0.0893627180
    4      C       5.6668839702     2.0654976430     0.7654335824
    5      C       6.3853450387     0.0042622879    -0.2123038152
    6      C       5.3377102247     0.8202731517     0.2201571743
    7      C       3.9197373080     0.4316085118     0.0403171007
    8      C       2.9051486692     1.3529519461     0.1050605705
    9      C       3.4687655265    -0.9153385009    -0.1372173849
   10      N       1.5784464038     1.0990127966     0.0195899019
   11      N       4.2149772227    -2.0206368012    -0.2144266711
   12      C       2.0647420471    -1.1976149443    -0.2369851269
   13      C       1.1341094120    -0.1162751526    -0.1429061731
   14      S       3.1987751856    -3.2531919455    -0.4056841629
   15      N       1.7898158733    -2.4915803608    -0.3969045382
   16      C      -0.3175549412    -0.2792966486    -0.2022513935
   17      N      -0.9650790825    -1.4009445762    -0.2712825610
   18      S      -1.3232268705     1.1385512976    -0.1777127783
   19      C      -2.3037369305    -1.1889801694    -0.3179247483
   20      C      -2.7093429076     0.1179103652    -0.2860647310
   21      C      -4.0670911288     0.6171029040    -0.2916229915
   22      S      -4.4940696990     2.1399840773    -0.9926146817
   23      C      -5.2001048698     0.0188152652     0.1919734115
   24      C      -6.1515487098     1.9707813098    -0.6186638895
   25      S      -5.5253608036    -1.4737357789     1.0288987507
   26      C      -6.3916672794     0.7827564354     0.0133561240
   27      C      -7.2238398607    -1.0605726129     1.1231895582
   28      C      -7.5438101439     0.1185527066     0.5669591551
   29      H       9.0413236078     1.9601468273     0.5562211492
   30      H       7.2051576147     3.4350445402     1.3224053066
   31      H       8.4938060690    -0.2438199154    -0.4284471789
   32      H       4.8934588276     2.7220284407     1.1362562185
   33      H       6.1703941909    -0.9579435628    -0.6468179755
   34      H       3.1362548808     2.4028936329     0.2135738995
   35      H      -2.9712014991    -2.0341661222    -0.3970898959
   36      H      -6.8500562684     2.7477840203    -0.8769093913
   37      H      -7.8932521484    -1.7529047525     1.6073011351
   38      H      -8.5454606680     0.5185693343     0.5451827721
 ----------------------------------------------------------------

    9   -2579.8601449246      6.72E-09 Convergence criterion met
 Total energy in the final basis set = -2579.8601449246
 Final energy is   -2579.86014492464
 **  OPTIMIZATION CONVERGED  **

                    Orbital Energies (a.u.)
 --------------------------------------------------------------

 Alpha MOs
 -- Occupied --
-89.150 -89.091 -89.086 -89.078 -14.486 -14.482 -14.454 -14.443
-10.364 -10.362 -10.360 -10.356 -10.343 -10.342 -10.335 -10.333
-10.330 -10.328 -10.327 -10.322 -10.314 -10.313 -10.305 -10.297
-10.295 -10.294 -10.293 -10.291  -8.160  -8.105  -8.102  -8.093
 -6.110  -6.105  -6.104  -6.055  -6.051  -6.051  -6.048  -6.047
 -6.045  -6.043  -6.039  -6.035  -1.147  -1.087  -1.065  -1.023
 -1.010  -0.973  -0.959  -0.925  -0.920  -0.900  -0.877  -0.860
 -0.854  -0.833  -0.828  -0.803  -0.776  -0.746  -0.734  -0.713
 -0.703  -0.693  -0.691  -0.661  -0.651  -0.636  -0.625  -0.616
 -0.606  -0.598  -0.572  -0.564  -0.556  -0.550  -0.536  -0.531
 -0.530  -0.526  -0.514  -0.512  -0.507  -0.503  -0.497  -0.490
 -0.478  -0.476  -0.472  -0.455  -0.452  -0.440  -0.437  -0.433
 -0.433  -0.423  -0.419  -0.395  -0.393  -0.378  -0.367  -0.363
 -0.361  -0.353  -0.339  -0.338  -0.324  -0.302  -0.271

          Ground-State Mulliken Net Atomic Charges

     Atom                 Charge (a.u.)
  ----------------------------------------
      1 C                    -0.120271
      2 C                    -0.117887
      3 C                    -0.121217
      4 C                    -0.138752
      5 C                    -0.124377
      6 C                     0.111556
      7 C                     0.025632
      8 C                    -0.116569
      9 C                     0.061730
     10 N                    -0.177845
     11 N                    -0.300501
     12 C                    -0.007829
     13 C                     0.111149
     14 S                     0.410117
     15 N                    -0.220928
     16 C                    -0.007392
     17 N                    -0.137847
     18 S                     0.120756
     19 C                    -0.145730
     20 C                    -0.016113
     21 C                     0.004493
     22 S                     0.134215
     23 C                    -0.051724
     24 C                    -0.220248
     25 S                     0.057485
     26 C                     0.043548
     27 C                    -0.145764
     28 C                    -0.172364
     29 H                     0.118014
     30 H                     0.115220
     31 H                     0.115779
     32 H                     0.118538
     33 H                     0.124911
     34 H                     0.133721
     35 H                     0.145952
     36 H                     0.129885
     37 H                     0.132822
     38 H                     0.127836
  ----------------------------------------
  Sum of atomic charges =     0.000000

                    Cartesian Multipole Moments
 -----------------------------------------------------------------
    Charge (ESU x 10^10)
                 0.0000
    Dipole Moment (Debye)
         X      -0.8670      Y       0.9009      Z       0.1691
       Tot       1.2617
    Quadrupole Moments (Debye-Ang)
        XX    -140.0727     XY      -1.3042     YY    -176.0752
        XZ      -1.9246     YZ       0.3585     ZZ    -188.5273

 Total job time:  6855.19s(wall), 103011.67s(cpu)
        *  Thank you very much for using Q-Chem.  Have a nice day.  *
