 Q-Chem 4.4, Q-Chem, Inc., Pleasanton, CA (2016)
 Q-Chem 4.4.2 for Intel X86 Linux

User input:
--------------------------------------------------------------
$comment
OPTIMIZATION
$end

$rem
JOBTYPE OPT
EXCHANGE omegaB97X-D
BASIS cc-pVTZ
$end

$molecule
0 1
C          0.00000        0.00000        0.00000
C          1.38599        0.00000        0.00000
C         -0.68515       -1.20581        0.00000
C          2.08055       -1.19709        0.02226
C          0.00742       -2.40411        0.01179
C          1.40063       -2.41271        0.04151
C          2.15950       -3.67324        0.15696
C          2.44607       -4.21470        1.38019
C          2.63586       -4.41700       -0.95796
N          3.13083       -5.36325        1.59604
N          2.49050       -4.11002       -2.24876
C          3.36772       -5.62999       -0.74496
C          3.59101       -6.06976        0.60010
S          3.22578       -5.28442       -3.06993
N          3.75720       -6.21674       -1.87715
C          4.30559       -7.29799        0.94833
N          4.91334       -8.09394        0.12554
S          4.37935       -7.78196        2.61751
C          5.46646       -9.14376        0.78398
C          5.28906       -9.16815        2.14057
C          5.80392      -10.14000        3.08035
S          4.97933      -10.54106        4.54968
C          6.95164      -10.87954        3.00006
C          6.17440      -11.66027        5.03974
S          8.25907      -10.97105        1.84993
C          7.17471      -11.74498        4.11153
C          9.07402      -12.14518        2.86359
C          8.41719      -12.46357        3.98987
H         -0.54342        0.93472        0.00000
H          1.93260        0.93382       -0.01501
H         -1.76734       -1.21268        0.00047
H          3.16263       -1.19509        0.00785
H         -0.53593       -3.33924        0.01382
H          2.08977       -3.71767        2.27349
H          5.99370       -9.90514        0.22824
H          6.08553      -12.18233        5.97611
H         10.03031      -12.52015        2.53681
H          8.79439      -13.16208        4.72015
$end

$opt
CONSTRAINT
tors 4 6 7 8 90.00000
tors 10 13 16 18 4.63242
tors 18 20 21 22 32.71647
ENDCONSTRAINT
$end
--------------------------------------------------------------

   16   -2579.8586398974      4.42E-09 Convergence criterion met
 Total energy in the final basis set = -2579.8586398974
   12   -2579.8591002317      5.42E-09 Convergence criterion met
 Total energy in the final basis set = -2579.8591002317
   12   -2579.8592502087      4.79E-09 Convergence criterion met
 Total energy in the final basis set = -2579.8592502087
   11   -2579.8592769690      4.53E-09 Convergence criterion met
 Total energy in the final basis set = -2579.8592769690
   10   -2579.8592912206      9.18E-09 Convergence criterion met
 Total energy in the final basis set = -2579.8592912206
    9   -2579.8592937993      6.71E-09 Convergence criterion met
 Total energy in the final basis set = -2579.8592937993

             Standard Nuclear Orientation (Angstroms)
    I     Atom           X                Y                Z
 ----------------------------------------------------------------
    1      C      -8.0298270031     1.4975592271    -0.4678094757
    2      C      -7.3252061539     1.1012537040    -1.5938223413
    3      C      -7.3890496280     1.5595934680     0.7597822376
    4      C      -5.9840245390     0.7680948738    -1.4936305996
    5      C      -6.0479079145     1.2267754433     0.8606431370
    6      C      -5.3349221187     0.8321310730    -0.2659056786
    7      C      -3.8979600927     0.4818233343    -0.1579569000
    8      C      -2.9041630977     1.4031743304    -0.3109198470
    9      C      -3.4647545168    -0.8424373680     0.1189168036
   10      N      -1.5732184866     1.1454542238    -0.2201471967
   11      N      -4.2406450904    -1.9120094172     0.3076761370
   12      C      -2.0672870477    -1.1311032270     0.2224333646
   13      C      -1.1369337665    -0.0565548082     0.0381317182
   14      S      -3.2381457428    -3.1407779079     0.5881534864
   15      N      -1.8117242782    -2.4122159385     0.4905858326
   16      C       0.3150803331    -0.2200882433     0.1183308855
   17      N       0.9534971227    -1.3347556657     0.2955826774
   18      S       1.3291362232     1.1853774962    -0.0090115082
   19      C       2.2925515401    -1.1259305853     0.3494928819
   20      C       2.7066604689     0.1717141714     0.2153549888
   21      C       4.0676004123     0.6620376767     0.2043088967
   22      S       4.4921428901     2.2382742786     0.7781883343
   23      C       5.2076958857     0.0109725484    -0.1854706916
   24      C       6.1578621346     2.0197336104     0.4733340554
   25      S       5.5418115853    -1.5606733655    -0.8583777249
   26      C       6.4024819689     0.7766685667    -0.0396997622
   27      C       7.2478935865    -1.1752730846    -0.9324888233
   28      C       7.5640403587     0.0499344983    -0.4843085359
   29      H      -9.0767629027     1.7567046491    -0.5475536340
   30      H      -7.8209551509     1.0525845852    -2.5536807597
   31      H      -7.9336086605     1.8685944294     1.6415185507
   32      H      -5.4336912377     0.4561380342    -2.3712848918
   33      H      -5.5461771700     1.2711164497     1.8181154030
   34      H      -3.1568381766     2.4340228905    -0.5246683463
   35      H       2.9549260146    -1.9628326091     0.5134446414
   36      H       6.8580948415     2.8090922679     0.6854507769
   37      H       7.9261969354    -1.9198741967    -1.3163314769
   38      H       8.5698873669     0.4393678776    -0.4639801404
 ----------------------------------------------------------------

    8   -2579.8592939911      9.41E-09 Convergence criterion met
 Total energy in the final basis set = -2579.8592939911
 Final energy is   -2579.85929399111
 **  OPTIMIZATION CONVERGED  **

                    Orbital Energies (a.u.)
 --------------------------------------------------------------

 Alpha MOs
 -- Occupied --
-89.148 -89.090 -89.086 -89.078 -14.484 -14.480 -14.453 -14.443
-10.365 -10.362 -10.355 -10.355 -10.343 -10.342 -10.335 -10.333
-10.330 -10.327 -10.322 -10.322 -10.313 -10.310 -10.305 -10.296
-10.296 -10.295 -10.295 -10.294  -8.158  -8.105  -8.102  -8.093
 -6.108  -6.103  -6.102  -6.055  -6.051  -6.051  -6.048  -6.047
 -6.045  -6.043  -6.039  -6.035  -1.145  -1.086  -1.064  -1.023
 -1.008  -0.974  -0.959  -0.924  -0.919  -0.898  -0.876  -0.860
 -0.855  -0.833  -0.828  -0.802  -0.774  -0.742  -0.734  -0.709
 -0.709  -0.693  -0.691  -0.660  -0.651  -0.637  -0.627  -0.614
 -0.606  -0.597  -0.571  -0.563  -0.556  -0.549  -0.544  -0.531
 -0.530  -0.523  -0.514  -0.514  -0.507  -0.504  -0.498  -0.484
 -0.477  -0.476  -0.465  -0.455  -0.446  -0.441  -0.437  -0.434
 -0.426  -0.423  -0.421  -0.399  -0.393  -0.370  -0.368  -0.361
 -0.354  -0.353  -0.339  -0.335  -0.325  -0.314  -0.273

          Ground-State Mulliken Net Atomic Charges

     Atom                 Charge (a.u.)
  ----------------------------------------
      1 C                    -0.123826
      2 C                    -0.103374
      3 C                    -0.102896
      4 C                    -0.106354
      5 C                    -0.106318
      6 C                     0.054920
      7 C                    -0.056435
      8 C                    -0.074041
      9 C                     0.059427
     10 N                    -0.172595
     11 N                    -0.267145
     12 C                    -0.011842
     13 C                     0.109192
     14 S                     0.410809
     15 N                    -0.222807
     16 C                    -0.009076
     17 N                    -0.136433
     18 S                     0.121462
     19 C                    -0.146217
     20 C                    -0.015383
     21 C                     0.004943
     22 S                     0.134220
     23 C                    -0.053193
     24 C                    -0.220780
     25 S                     0.057414
     26 C                     0.044185
     27 C                    -0.146363
     28 C                    -0.172143
     29 H                     0.117904
     30 H                     0.116230
     31 H                     0.116732
     32 H                     0.117857
     33 H                     0.117015
     34 H                     0.128533
     35 H                     0.145582
     36 H                     0.129956
     37 H                     0.132859
     38 H                     0.127982
  ----------------------------------------
  Sum of atomic charges =     0.000000

                    Cartesian Multipole Moments
 -----------------------------------------------------------------
    Charge (ESU x 10^10)
                 0.0000
    Dipole Moment (Debye)
         X       0.8621      Y       0.9467      Z      -0.1239
       Tot       1.2864
    Quadrupole Moments (Debye-Ang)
        XX    -140.3340     XY      -1.0914     YY    -181.3693
        XZ      -0.5743     YZ       3.2583     ZZ    -182.7312

 Total job time:  5426.14s(wall), 81475.56s(cpu)
        *  Thank you very much for using Q-Chem.  Have a nice day.  *
