 Q-Chem 4.4, Q-Chem, Inc., Pleasanton, CA (2016)
 Q-Chem 4.4.2 for Intel X86 Linux

User input:
--------------------------------------------------------------
$comment
OPTIMIZATION
$end

$rem
JOBTYPE OPT
EXCHANGE omegaB97X-D
BASIS cc-pVTZ
$end

$molecule
0 1
C          0.00000        0.00000        0.00000
C          1.38599        0.00000        0.00000
C         -0.68515       -1.20581        0.00000
C          2.08055       -1.19709        0.02226
C          0.00742       -2.40411        0.01179
C          1.40063       -2.41271        0.04151
C          2.15950       -3.67324        0.15696
C          1.95508       -4.52617        1.20687
C          3.13189       -4.10281       -0.78807
N          2.59383       -5.70402        1.40509
N          3.51506       -3.46068       -1.89368
C          3.82062       -5.34295       -0.58794
C          3.49783       -6.12904        0.56544
S          4.63917       -4.38855       -2.57896
N          4.70659       -5.61489       -1.54655
C          4.11545       -7.41949        0.87155
N          5.08821       -7.97968        0.22361
S          3.52552       -8.33146        2.23027
C          5.41201       -9.17754        0.77306
C          4.68246       -9.55847        1.86624
C          4.84551      -10.75528        2.66237
S          3.52191      -11.51645        3.47994
C          5.98641      -11.46929        2.90558
C          4.50219      -12.74905        4.14382
S          7.65892      -11.27728        2.45127
C          5.80361      -12.60346        3.75075
C          8.08114      -12.69461        3.39102
C          7.04533      -13.28816        4.00428
H         -0.54342        0.93472        0.00000
H          1.93260        0.93382       -0.01501
H         -1.76734       -1.21268        0.00047
H          3.16263       -1.19509        0.00785
H         -0.53593       -3.33924        0.01382
H          1.20854       -4.27778        1.95049
H          6.19620       -9.77387        0.33038
H          4.07839      -13.49955        4.78753
H          9.11771      -12.98792        3.42823
H          7.14584      -14.16308        4.62710
$end

$opt
CONSTRAINT
tors 4 6 7 8 120.00000
tors 10 13 16 18 4.63242
tors 18 20 21 22 32.71647
ENDCONSTRAINT
$end
--------------------------------------------------------------

   16   -2579.8607520964      4.67E-09 Convergence criterion met
 Total energy in the final basis set = -2579.8607520964
   12   -2579.8612078693      4.20E-09 Convergence criterion met
 Total energy in the final basis set = -2579.8612078693
   11   -2579.8613364401      8.07E-09 Convergence criterion met
 Total energy in the final basis set = -2579.8613364401
   10   -2579.8613502856      6.58E-09 Convergence criterion met
 Total energy in the final basis set = -2579.8613502856
   10   -2579.8613569892      6.87E-09 Convergence criterion met
 Total energy in the final basis set = -2579.8613569892
    9   -2579.8613587235      7.16E-09 Convergence criterion met
 Total energy in the final basis set = -2579.8613587235

             Standard Nuclear Orientation (Angstroms)
    I     Atom           X                Y                Z
 ----------------------------------------------------------------
    1      C       8.0055990268    -1.5405457417    -0.5583633774
    2      C       7.4676242979    -0.5252007965    -1.3356264172
    3      C       7.2116521739    -2.1868344767     0.3750394310
    4      C       6.1435634809    -0.1548659261    -1.1786696995
    5      C       5.8847595264    -1.8183732927     0.5316719880
    6      C       5.3402683319    -0.7954130608    -0.2385896704
    7      C       3.9108084624    -0.4462504060    -0.1077279230
    8      C       2.9181057914    -1.3654038105    -0.2967889554
    9      C       3.4668510122     0.8764826977     0.1690525744
   10      N       1.5869462563    -1.1160732419    -0.2101514575
   11      N       4.2329169116     1.9500098815     0.3756253745
   12      C       2.0666061316     1.1565465746     0.2627558821
   13      C       1.1422836070     0.0803993160     0.0609635710
   14      S       3.2209451642     3.1705405369     0.6571848608
   15      N       1.8009229555     2.4334702221     0.5407102211
   16      C      -0.3104664919     0.2364900686     0.1333656472
   17      N      -0.9550543688     1.3461236226     0.3206725303
   18      S      -1.3179076606    -1.1713872859    -0.0193611970
   19      C      -2.2933916738     1.1310145840     0.3625690866
   20      C      -2.7011391196    -0.1664622170     0.2088576582
   21      C      -4.0600588326    -0.6617280239     0.1839953516
   22      S      -4.4820887503    -2.2462452332     0.7365289799
   23      C      -5.2003796701    -0.0098053954    -0.2036710733
   24      C      -6.1470124328    -2.0295318107     0.4259402035
   25      S      -5.5364657418     1.5690363900    -0.8585961331
   26      C      -6.3932597832    -0.7811678599    -0.0732925996
   27      C      -7.2408586399     1.1790254030    -0.9457673338
   28      C      -7.5550657329    -0.0527500708    -0.5145337764
   29      H       9.0414400793    -1.8257218675    -0.6817583896
   30      H       8.0815600319    -0.0193383874    -2.0680473267
   31      H       7.6245193758    -2.9787441786     0.9847023007
   32      H       5.7273452514     0.6384736411    -1.7838904710
   33      H       5.2657546971    -2.3199656443     1.2638028508
   34      H       3.1762002694    -2.3885735611    -0.5398058212
   35      H      -2.9606643988     1.9627410350     0.5329347834
   36      H      -6.8457739897    -2.8233497245     0.6259599227
   37      H      -7.9197805892     1.9261085951    -1.3236457081
   38      H      -8.5596532344    -0.4457819246    -0.5039592676
 ----------------------------------------------------------------

    9   -2579.8613594833      5.49E-09 Convergence criterion met
 Total energy in the final basis set = -2579.8613594833
 Final energy is   -2579.86135948335
 **  OPTIMIZATION CONVERGED  **

                    Orbital Energies (a.u.)
 --------------------------------------------------------------

 Alpha MOs
 -- Occupied --
-89.149 -89.090 -89.086 -89.078 -14.485 -14.481 -14.453 -14.443
-10.365 -10.362 -10.356 -10.355 -10.343 -10.342 -10.335 -10.333
-10.330 -10.327 -10.323 -10.322 -10.313 -10.311 -10.305 -10.297
-10.296 -10.296 -10.295 -10.295  -8.159  -8.105  -8.101  -8.093
 -6.109  -6.103  -6.103  -6.054  -6.051  -6.050  -6.048  -6.047
 -6.045  -6.043  -6.039  -6.035  -1.145  -1.086  -1.064  -1.023
 -1.009  -0.974  -0.959  -0.925  -0.919  -0.898  -0.876  -0.860
 -0.855  -0.833  -0.828  -0.802  -0.774  -0.743  -0.734  -0.712
 -0.706  -0.693  -0.691  -0.660  -0.651  -0.637  -0.627  -0.614
 -0.606  -0.598  -0.571  -0.564  -0.556  -0.548  -0.543  -0.531
 -0.530  -0.524  -0.514  -0.514  -0.507  -0.504  -0.498  -0.485
 -0.477  -0.476  -0.467  -0.455  -0.448  -0.440  -0.436  -0.434
 -0.428  -0.423  -0.421  -0.399  -0.393  -0.371  -0.369  -0.362
 -0.357  -0.353  -0.339  -0.337  -0.324  -0.309  -0.273

          Ground-State Mulliken Net Atomic Charges

     Atom                 Charge (a.u.)
  ----------------------------------------
      1 C                    -0.123655
      2 C                    -0.106897
      3 C                    -0.104677
      4 C                    -0.119708
      5 C                    -0.150473
      6 C                     0.108692
      7 C                    -0.003521
      8 C                    -0.097434
      9 C                     0.031652
     10 N                    -0.173117
     11 N                    -0.273396
     12 C                    -0.013630
     13 C                     0.109146
     14 S                     0.412005
     15 N                    -0.223091
     16 C                    -0.008923
     17 N                    -0.136906
     18 S                     0.121176
     19 C                    -0.146037
     20 C                    -0.015546
     21 C                     0.005203
     22 S                     0.134076
     23 C                    -0.053267
     24 C                    -0.220914
     25 S                     0.057448
     26 C                     0.044074
     27 C                    -0.146390
     28 C                    -0.172042
     29 H                     0.117912
     30 H                     0.115596
     31 H                     0.116470
     32 H                     0.117243
     33 H                     0.128274
     34 H                     0.134385
     35 H                     0.145529
     36 H                     0.129970
     37 H                     0.132822
     38 H                     0.127952
  ----------------------------------------
  Sum of atomic charges =     0.000000

                    Cartesian Multipole Moments
 -----------------------------------------------------------------
    Charge (ESU x 10^10)
                 0.0000
    Dipole Moment (Debye)
         X      -0.8232      Y      -0.9337      Z      -0.2175
       Tot       1.2636
    Quadrupole Moments (Debye-Ang)
        XX    -140.1853     XY      -0.5060     YY    -177.8584
        XZ      -0.7596     YZ      -5.3978     ZZ    -186.2623

 Total job time:  5356.43s(wall), 80418.40s(cpu)
        *  Thank you very much for using Q-Chem.  Have a nice day.  *
