 Q-Chem 4.4, Q-Chem, Inc., Pleasanton, CA (2016)
 Q-Chem 4.4.2 for Intel X86 Linux

User input:
--------------------------------------------------------------
$comment
OPTIMIZATION
$end

$rem
JOBTYPE OPT
EXCHANGE omegaB97X-D
BASIS cc-pVTZ
$end

$molecule
0 1
C          0.00000        0.00000        0.00000
C          1.38599        0.00000        0.00000
C         -0.68515       -1.20581        0.00000
C          2.08055       -1.19709        0.02226
C          0.00742       -2.40411        0.01179
C          1.40063       -2.41271        0.04151
C          2.15950       -3.67324        0.15696
C          2.59847       -4.33692       -0.95589
C          2.49862       -4.28402        1.39594
N          3.30199       -5.49436       -0.96054
N          2.19364       -3.84297        2.61823
C          3.23632       -5.51204        1.40651
C          3.62559       -6.08974        0.15466
S          2.81263       -4.91808        3.64543
N          3.47708       -5.97214        2.63459
C          4.39569       -7.32765        0.03229
N          4.74224       -8.11683        1.00027
S          4.92032       -7.83761       -1.54585
C          5.45669       -9.17247        0.53467
C          5.67084       -9.20913       -0.81632
C          6.35746      -10.23298       -1.57332
S          7.21649       -9.88912       -3.03740
C          6.45976      -11.56978       -1.30285
C          7.67584      -11.51798       -3.27576
S          5.83153      -12.60647       -0.04939
C          7.20422      -12.31144       -2.26712
C          6.56036      -13.99661       -0.82818
C          7.24014      -13.71633       -1.95097
H         -0.54342        0.93472        0.00000
H          1.93260        0.93382       -0.01501
H         -1.76734       -1.21268        0.00047
H          3.16263       -1.19509        0.00785
H         -0.53593       -3.33924        0.01382
H          2.40166       -3.91521       -1.93334
H          5.83230       -9.91076        1.22777
H          8.25160      -11.80466       -4.13806
H          6.41282      -14.96500       -0.37836
H          7.73468      -14.46582       -2.54862
$end

$opt
CONSTRAINT
tors 4 6 7 8 -90.00000
tors 10 13 16 18 4.63242
tors 18 20 21 22 32.71647
ENDCONSTRAINT
$end
--------------------------------------------------------------

   16   -2579.8584108051      4.43E-09 Convergence criterion met
 Total energy in the final basis set = -2579.8584108051
   11   -2579.8590946790      7.87E-09 Convergence criterion met
 Total energy in the final basis set = -2579.8590946790
   11   -2579.8592685124      8.31E-09 Convergence criterion met
 Total energy in the final basis set = -2579.8592685124
   10   -2579.8592884075      8.18E-09 Convergence criterion met
 Total energy in the final basis set = -2579.8592884075
   11   -2579.8593011800      6.07E-09 Convergence criterion met
 Total energy in the final basis set = -2579.8593011800
   10   -2579.8593037482      5.08E-09 Convergence criterion met
 Total energy in the final basis set = -2579.8593037482
   10   -2579.8593055334      5.11E-09 Convergence criterion met
 Total energy in the final basis set = -2579.8593055334

             Standard Nuclear Orientation (Angstroms)
    I     Atom           X                Y                Z
 ----------------------------------------------------------------
    1      C      -8.0347092435    -1.4683862582     0.4605400824
    2      C      -7.3913657727    -1.5404246748    -0.7651512783
    3      C      -7.3329969890    -1.0610762600     1.5844377259
    4      C      -6.0504559949    -1.2065809225    -0.8660619814
    5      C      -5.9920578125    -0.7267790011     1.4841573414
    6      C      -5.3406701466    -0.7999866798     0.2582504944
    7      C      -3.9025701265    -0.4537563726     0.1501883818
    8      C      -2.9116256674    -1.3760747440     0.3156231053
    9      C      -3.4653941546     0.8655251386    -0.1428468713
   10      N      -1.5798800584    -1.1228863049     0.2248969947
   11      N      -4.2381387164     1.9343328542    -0.3483905938
   12      C      -2.0669274606     1.1491979692    -0.2475386258
   13      C      -1.1398795873     0.0747880568    -0.0472600925
   14      S      -3.2318709177     3.1563399074    -0.6442377269
   15      N      -1.8074747412     2.4257424530    -0.5332589109
   16      C       0.3127460933     0.2336014598    -0.1251899101
   17      N       0.9548278212     1.3441659002    -0.3146875213
   18      S       1.3224850808    -1.1728982700     0.0229409838
   19      C       2.2934269093     1.1309003109    -0.3622139124
   20      C       2.7034676867    -0.1661293486    -0.2106519156
   21      C       4.0628841066    -0.6602502665    -0.1890391686
   22      S       4.4839326202    -2.2453007979    -0.7409273042
   23      C       5.2042608432    -0.0070229048     0.1933306459
   24      C       6.1497187514    -2.0273627232    -0.4362635222
   25      S       5.5421261626     1.5734137835     0.8434225179
   26      C       6.3970412865    -0.7781247820     0.0602342162
   27      C       7.2470090356     1.1843361036     0.9252372663
   28      C       7.5601255941    -0.0483016840     0.4957081836
   29      H      -9.0812121190    -1.7291708775     0.5407163435
   30      H      -7.9332795039    -1.8582723655    -1.6453394256
   31      H      -7.8308588492    -1.0047763080     2.5427844827
   32      H      -5.5464956212    -1.2589029513    -1.8219623619
   33      H      -5.4442301277    -0.4063772941     2.3603191207
   34      H      -3.1675827620    -2.4037177145     0.5406076034
   35      H       2.9587010427     1.9636942711    -0.5350825958
   36      H       6.8480705833    -2.8214690736    -0.6366008858
   37      H       7.9270302408     1.9325239526     1.2989100753
   38      H       8.5647427160    -0.4411919663     0.4826104770
 ----------------------------------------------------------------

    9   -2579.8593059745      4.34E-09 Convergence criterion met
 Total energy in the final basis set = -2579.8593059745
 Final energy is   -2579.85930597449
 **  OPTIMIZATION CONVERGED  **

                    Orbital Energies (a.u.)
 --------------------------------------------------------------

 Alpha MOs
 -- Occupied --
-89.148 -89.090 -89.086 -89.078 -14.484 -14.480 -14.453 -14.443
-10.365 -10.362 -10.355 -10.355 -10.343 -10.342 -10.335 -10.333
-10.330 -10.327 -10.322 -10.322 -10.313 -10.310 -10.305 -10.296
-10.296 -10.295 -10.295 -10.294  -8.158  -8.105  -8.102  -8.093
 -6.108  -6.103  -6.102  -6.055  -6.051  -6.050  -6.048  -6.047
 -6.045  -6.043  -6.039  -6.035  -1.145  -1.086  -1.064  -1.023
 -1.008  -0.974  -0.959  -0.924  -0.919  -0.898  -0.876  -0.860
 -0.855  -0.833  -0.828  -0.802  -0.774  -0.742  -0.734  -0.709
 -0.709  -0.693  -0.691  -0.660  -0.651  -0.637  -0.627  -0.614
 -0.606  -0.597  -0.571  -0.563  -0.556  -0.549  -0.544  -0.531
 -0.530  -0.523  -0.514  -0.514  -0.507  -0.504  -0.498  -0.484
 -0.477  -0.476  -0.465  -0.455  -0.446  -0.441  -0.437  -0.434
 -0.426  -0.423  -0.421  -0.399  -0.393  -0.370  -0.368  -0.361
 -0.354  -0.353  -0.339  -0.335  -0.325  -0.314  -0.273

          Ground-State Mulliken Net Atomic Charges

     Atom                 Charge (a.u.)
  ----------------------------------------
      1 C                    -0.123818
      2 C                    -0.102909
      3 C                    -0.103435
      4 C                    -0.106173
      5 C                    -0.106745
      6 C                     0.055215
      7 C                    -0.056735
      8 C                    -0.073993
      9 C                     0.059536
     10 N                    -0.172539
     11 N                    -0.267185
     12 C                    -0.011810
     13 C                     0.109212
     14 S                     0.410909
     15 N                    -0.222854
     16 C                    -0.009158
     17 N                    -0.136408
     18 S                     0.121524
     19 C                    -0.146269
     20 C                    -0.015278
     21 C                     0.005180
     22 S                     0.134223
     23 C                    -0.053454
     24 C                    -0.221008
     25 S                     0.057405
     26 C                     0.044295
     27 C                    -0.146399
     28 C                    -0.171999
     29 H                     0.117904
     30 H                     0.116707
     31 H                     0.116282
     32 H                     0.117030
     33 H                     0.117892
     34 H                     0.128561
     35 H                     0.145514
     36 H                     0.130002
     37 H                     0.132814
     38 H                     0.127963
  ----------------------------------------
  Sum of atomic charges =     0.000000

                    Cartesian Multipole Moments
 -----------------------------------------------------------------
    Charge (ESU x 10^10)
                 0.0000
    Dipole Moment (Debye)
         X       0.8609      Y      -0.9533      Z       0.1348
       Tot       1.2916
    Quadrupole Moments (Debye-Ang)
        XX    -140.3544     XY       1.0605     YY    -181.3027
        XZ       0.6565     YZ       3.2097     ZZ    -182.8099

 Total job time:  6083.61s(wall), 91340.10s(cpu)
        *  Thank you very much for using Q-Chem.  Have a nice day.  *
