 Q-Chem 4.4, Q-Chem, Inc., Pleasanton, CA (2016)
 Q-Chem 4.4.2 for Intel X86 Linux

User input:
--------------------------------------------------------------
$comment
OPTIMIZATION
$end

$rem
JOBTYPE OPT
EXCHANGE omegaB97X-D
BASIS cc-pVTZ
$end

$molecule
0 1
C          0.00000        0.00000        0.00000
C          1.38599        0.00000        0.00000
C         -0.68515       -1.20581        0.00000
C          2.08055       -1.19709        0.02226
C          0.00742       -2.40411        0.01179
C          1.40063       -2.41271        0.04151
C          2.15950       -3.67324        0.15696
C          1.61607       -4.77055        0.76702
C          3.47661       -3.85500       -0.34834
N          2.22366       -5.97105        0.92279
N          4.22532       -2.94955       -0.98169
C          4.13456       -5.11702       -0.18476
C          3.43424       -6.17511        0.48040
S          5.61849       -3.68365       -1.31986
N          5.36406       -5.14154       -0.70008
C          3.98833       -7.51241        0.69261
N          5.19330       -7.89910        0.41260
S          2.97295       -8.74118        1.38899
C          5.37084       -9.20611        0.73166
C          4.28955       -9.84969        1.26927
C          4.21806      -11.21815        1.73292
S          2.75473      -12.14314        1.68037
C          5.21391      -11.99349        2.25993
C          3.47920      -13.52703        2.37390
S          6.89436      -11.72056        2.63702
C          4.80384      -13.30781        2.63208
C          7.01754      -13.34487        3.28252
C          5.88335      -14.05964        3.21891
H         -0.54342        0.93472        0.00000
H          1.93260        0.93382       -0.01501
H         -1.76734       -1.21268        0.00047
H          3.16263       -1.19509        0.00785
H         -0.53593       -3.33924        0.01382
H          0.60521       -4.71428        1.15042
H          6.32282       -9.67853        0.53907
H          2.89926      -14.41323        2.56239
H          7.96499      -13.65789        3.69024
H          5.79705      -15.07053        3.58516
$end

$opt
CONSTRAINT
tors 4 6 7 8 150.00000
tors 10 13 16 18 4.63242
tors 18 20 21 22 32.71647
ENDCONSTRAINT
$end
--------------------------------------------------------------

   16   -2579.8608313128      5.02E-09 Convergence criterion met
 Total energy in the final basis set = -2579.8608313128
   12   -2579.8617028525      9.09E-09 Convergence criterion met
 Total energy in the final basis set = -2579.8617028525
   11   -2579.8620174677      9.82E-09 Convergence criterion met
 Total energy in the final basis set = -2579.8620174677
   11   -2579.8620902611      8.75E-09 Convergence criterion met
 Total energy in the final basis set = -2579.8620902611
   11   -2579.8621120678      5.60E-09 Convergence criterion met
 Total energy in the final basis set = -2579.8621120678
   10   -2579.8621193737      8.98E-09 Convergence criterion met
 Total energy in the final basis set = -2579.8621193737
    9   -2579.8621210097      4.73E-09 Convergence criterion met
 Total energy in the final basis set = -2579.8621210097

             Standard Nuclear Orientation (Angstroms)
    I     Atom           X                Y                Z
 ----------------------------------------------------------------
    1      C       8.0229377780    -1.5761679580    -0.4565886074
    2      C       7.6399374824    -0.2948359528    -0.8193386611
    3      C       7.0671299247    -2.4709564065    -0.0015749818
    4      C       6.3128432923     0.0910987542    -0.7359980914
    5      C       5.7402860959    -2.0875948362     0.0822008745
    6      C       5.3383129443    -0.8055617367    -0.2974061142
    7      C       3.9153101028    -0.4203483153    -0.2087294585
    8      C       2.9102685184    -1.3358679287    -0.3788149873
    9      C       3.4673677048     0.8977055382     0.1076418262
   10      N       1.5819843635    -1.0921699710    -0.2753406384
   11      N       4.2220902604     1.9727445605     0.3487421491
   12      C       2.0644993620     1.1693505429     0.2236980964
   13      C       1.1370473906     0.0995456810     0.0150187183
   14      S       3.2066757230     3.1772568575     0.6772029891
   15      N       1.7929108287     2.4343618961     0.5447501764
   16      C      -0.3144495245     0.2519187901     0.1043316824
   17      N      -0.9608703976     1.3574707580     0.3097521356
   18      S      -1.3194465873    -1.1572292749    -0.0555722302
   19      C      -2.2979704806     1.1376477864     0.3616855877
   20      C      -2.7033575700    -0.1593299065     0.1972266271
   21      C      -4.0608400392    -0.6586588305     0.1788091491
   22      S      -4.4721819487    -2.2511401834     0.7163469603
   23      C      -5.2071148701    -0.0061050648    -0.1898528040
   24      C      -6.1406671202    -2.0367471432     0.4241226114
   25      S      -5.5551237823     1.5796078511    -0.8216411495
   26      C      -6.3960106094    -0.7832743660    -0.0575034780
   27      C      -7.2589166377     1.1845937087    -0.8972017177
   28      C      -7.5645538706    -0.0536323203    -0.4785001560
   29      H       9.0609879547    -1.8731043250    -0.5189282537
   30      H       8.3790771023     0.4139604458    -1.1667787044
   31      H       7.3561042438    -3.4680792598     0.3012952910
   32      H       6.0306762211     1.0933137943    -1.0186901963
   33      H       5.0129912487    -2.7866689560     0.4716994632
   34      H       3.1549253905    -2.3557629234    -0.6447188587
   35      H      -2.9661929345     1.9653040974     0.5474614284
   36      H      -6.8348568021    -2.8352806620     0.6212843166
   37      H      -7.9441338070     1.9339819198    -1.2587749159
   38      H      -8.5675689909    -0.4505046733    -0.4631070747
 ----------------------------------------------------------------

    8   -2579.8621215308      7.02E-09 Convergence criterion met
 Total energy in the final basis set = -2579.8621215308
 Final energy is   -2579.86212153080
 **  OPTIMIZATION CONVERGED  **

                    Orbital Energies (a.u.)
 --------------------------------------------------------------

 Alpha MOs
 -- Occupied --
-89.149 -89.090 -89.086 -89.078 -14.485 -14.482 -14.454 -14.443
-10.364 -10.362 -10.358 -10.356 -10.343 -10.342 -10.335 -10.333
-10.330 -10.327 -10.326 -10.322 -10.313 -10.313 -10.305 -10.297
-10.295 -10.295 -10.294 -10.293  -8.160  -8.105  -8.102  -8.093
 -6.110  -6.104  -6.104  -6.055  -6.051  -6.050  -6.048  -6.047
 -6.045  -6.043  -6.039  -6.035  -1.146  -1.086  -1.065  -1.023
 -1.010  -0.974  -0.959  -0.925  -0.920  -0.899  -0.877  -0.860
 -0.855  -0.833  -0.828  -0.802  -0.775  -0.746  -0.734  -0.713
 -0.704  -0.693  -0.691  -0.660  -0.651  -0.636  -0.626  -0.615
 -0.606  -0.598  -0.572  -0.564  -0.556  -0.549  -0.539  -0.531
 -0.530  -0.525  -0.514  -0.513  -0.507  -0.502  -0.498  -0.488
 -0.478  -0.476  -0.471  -0.455  -0.451  -0.440  -0.435  -0.434
 -0.431  -0.423  -0.420  -0.397  -0.393  -0.375  -0.368  -0.362
 -0.360  -0.353  -0.339  -0.338  -0.324  -0.303  -0.272

          Ground-State Mulliken Net Atomic Charges

     Atom                 Charge (a.u.)
  ----------------------------------------
      1 C                    -0.122961
      2 C                    -0.113942
      3 C                    -0.115660
      4 C                    -0.121977
      5 C                    -0.141082
      6 C                     0.118760
      7 C                     0.019798
      8 C                    -0.116340
      9 C                     0.049956
     10 N                    -0.175214
     11 N                    -0.295691
     12 C                    -0.008567
     13 C                     0.111083
     14 S                     0.412635
     15 N                    -0.222026
     16 C                    -0.008622
     17 N                    -0.137348
     18 S                     0.120949
     19 C                    -0.145793
     20 C                    -0.015348
     21 C                     0.005333
     22 S                     0.134066
     23 C                    -0.053371
     24 C                    -0.221148
     25 S                     0.057372
     26 C                     0.044228
     27 C                    -0.146301
     28 C                    -0.171906
     29 H                     0.118168
     30 H                     0.115428
     31 H                     0.115675
     32 H                     0.117136
     33 H                     0.122728
     34 H                     0.133997
     35 H                     0.145347
     36 H                     0.130012
     37 H                     0.132715
     38 H                     0.127908
  ----------------------------------------
  Sum of atomic charges =     0.000000

                    Cartesian Multipole Moments
 -----------------------------------------------------------------
    Charge (ESU x 10^10)
                 0.0000
    Dipole Moment (Debye)
         X      -0.8170      Y      -0.8772      Z      -0.0838
       Tot       1.2016
    Quadrupole Moments (Debye-Ang)
        XX    -139.5153     XY       0.7597     YY    -175.1268
        XZ      -0.0170     YZ      -3.9921     ZZ    -189.5628

 Total job time:  6218.37s(wall), 93452.21s(cpu)
        *  Thank you very much for using Q-Chem.  Have a nice day.  *
