 Q-Chem 4.4, Q-Chem, Inc., Pleasanton, CA (2016)
 Q-Chem 4.4.2 for Intel X86 Linux

User input:
--------------------------------------------------------------
$comment
OPTIMIZATION
$end

$rem
JOBTYPE OPT
EXCHANGE omegaB97X-D
BASIS cc-pVTZ
$end

$molecule
0 1
C          0.00000        0.00000        0.00000
C          1.38599        0.00000        0.00000
C         -0.68515       -1.20581        0.00000
C          2.08055       -1.19709        0.02226
C          0.00742       -2.40411        0.01179
C          1.40063       -2.41271        0.04151
C          2.15950       -3.67324        0.15696
C          1.69226       -4.83166       -0.40102
C          3.40799       -3.78852        0.82862
N          2.30924       -6.03661       -0.35550
N          4.07689       -2.81602        1.45182
C          4.06886       -5.05804        0.89098
C          3.45153       -6.18510        0.25768
S          5.41191       -3.50048        2.03783
N          5.22400       -5.01925        1.55580
C          4.03338       -7.52724        0.23458
N          5.10775       -7.91054        0.84996
S          3.24343       -8.76901       -0.69269
C          5.36595       -9.22047        0.60701
C          4.48045       -9.87017       -0.20917
C          4.49483      -11.26464       -0.59392
S          3.87331      -11.81718       -2.11317
C          4.96798      -12.33861        0.10847
C          4.22993      -13.45588       -1.78386
S          5.68058      -12.53827        1.68736
C          4.81860      -13.59105       -0.55725
C          5.76071      -14.27059        1.43663
C          5.29483      -14.68601        0.24848
H         -0.54342        0.93472        0.00000
H          1.93260        0.93382       -0.01501
H         -1.76734       -1.21268        0.00047
H          3.16263       -1.19509        0.00785
H         -0.53593       -3.33924        0.01382
H          0.76116       -4.81305       -0.95300
H          6.24212       -9.68134        1.03883
H          3.98230      -14.22440       -2.49470
H          6.15625      -14.88032        2.23266
H          5.26719      -15.72240       -0.04923
$end

$opt
CONSTRAINT
tors 4 6 7 8 -150.00000
tors 10 13 16 18 4.63242
tors 18 20 21 22 32.71647
ENDCONSTRAINT
$end
--------------------------------------------------------------

   16   -2579.8608431837      4.78E-09 Convergence criterion met
 Total energy in the final basis set = -2579.8608431837
   12   -2579.8616471257      6.98E-09 Convergence criterion met
 Total energy in the final basis set = -2579.8616471257
   11   -2579.8619481994      5.46E-09 Convergence criterion met
 Total energy in the final basis set = -2579.8619481994
   10   -2579.8620077613      7.19E-09 Convergence criterion met
 Total energy in the final basis set = -2579.8620077613
    9   -2579.8620180247      9.19E-09 Convergence criterion met
 Total energy in the final basis set = -2579.8620180247
    9   -2579.8620201910      5.88E-09 Convergence criterion met
 Total energy in the final basis set = -2579.8620201910

             Standard Nuclear Orientation (Angstroms)
    I     Atom           X                Y                Z
 ----------------------------------------------------------------
    1      C       8.0078996404    -1.5795375934    -0.5033399346
    2      C       7.6792705566    -0.5013793030     0.3028135848
    3      C       7.0018626995    -2.2744468010    -1.1563581230
    4      C       6.3576014983    -0.1210697025     0.4621819276
    5      C       5.6802490394    -1.8975678483    -0.9970520322
    6      C       5.3342449035    -0.8236276249    -0.1747102431
    7      C       3.9165885659    -0.4403866409    -0.0191259711
    8      C       2.9095858349    -1.3668040625    -0.0892274159
    9      C       3.4715111537     0.9047359993     0.1559588376
   10      N       1.5817823815    -1.1100270831    -0.0157128810
   11      N       4.2274782189     2.0023528259     0.2399709375
   12      C       2.0690759737     1.1910967501     0.2374341835
   13      C       1.1392854883     0.1075913706     0.1380244786
   14      S       3.2140925855     3.2405108868     0.4154886669
   15      N       1.7995331388     2.4875291891     0.3904655641
   16      C      -0.3126083743     0.2730518190     0.1934438867
   17      N      -0.9575549205     1.3967484868     0.2513359370
   18      S      -1.3214313934    -1.1424519984     0.1762649167
   19      C      -2.2969284733     1.1883461133     0.2966546434
   20      C      -2.7053411616    -0.1177631194     0.2742593692
   21      C      -4.0641788732    -0.6140161931     0.2882331538
   22      S      -4.4926129238    -2.1272397994     1.0088336213
   23      C      -5.1966188010    -0.0204499722    -0.2022465341
   24      C      -6.1503175115    -1.9600954789     0.6349210908
   25      S      -5.5198634462     1.4605762545    -1.0601381662
   26      C      -6.3893367446    -0.7798526341    -0.0119546370
   27      C      -7.2190638435     1.0488958359    -1.1475124496
   28      C      -7.5407096314    -0.1215432336    -0.5741406915
   29      H       9.0418935338    -1.8690033827    -0.6319615938
   30      H       8.4573459871     0.0503732923     0.8123774431
   31      H       7.2466607267    -3.1039603729    -1.8054753691
   32      H       6.1175625584     0.7214949644     1.0917297314
   33      H       4.9108077620    -2.4261164049    -1.5428165268
   34      H       3.1535994755    -2.4157138304    -0.1946105048
   35      H      -2.9625901335     2.0356940837     0.3678572215
   36      H      -6.8497993976    -2.7323111901     0.9046224586
   37      H      -7.8874191550     1.7349741975    -1.6418564565
   38      H      -8.5430788295    -0.5193736923    -0.5459287415
 ----------------------------------------------------------------

    9   -2579.8620208203      2.84E-09 Convergence criterion met
 Total energy in the final basis set = -2579.8620208203
 Final energy is   -2579.86202082030
 **  OPTIMIZATION CONVERGED  **

                    Orbital Energies (a.u.)
 --------------------------------------------------------------

 Alpha MOs
 -- Occupied --
-89.150 -89.090 -89.086 -89.078 -14.485 -14.482 -14.454 -14.443
-10.364 -10.362 -10.358 -10.356 -10.343 -10.342 -10.335 -10.333
-10.330 -10.327 -10.326 -10.322 -10.313 -10.313 -10.305 -10.297
-10.295 -10.295 -10.294 -10.293  -8.160  -8.105  -8.102  -8.093
 -6.110  -6.104  -6.104  -6.054  -6.051  -6.050  -6.048  -6.047
 -6.045  -6.043  -6.039  -6.035  -1.146  -1.086  -1.065  -1.023
 -1.010  -0.974  -0.959  -0.925  -0.919  -0.899  -0.877  -0.860
 -0.855  -0.833  -0.828  -0.802  -0.775  -0.746  -0.734  -0.713
 -0.704  -0.693  -0.691  -0.660  -0.651  -0.636  -0.626  -0.615
 -0.606  -0.598  -0.572  -0.564  -0.556  -0.549  -0.539  -0.531
 -0.530  -0.525  -0.513  -0.513  -0.507  -0.504  -0.497  -0.488
 -0.478  -0.476  -0.471  -0.455  -0.451  -0.440  -0.436  -0.433
 -0.432  -0.423  -0.420  -0.397  -0.393  -0.376  -0.367  -0.362
 -0.360  -0.353  -0.339  -0.338  -0.324  -0.304  -0.272

          Ground-State Mulliken Net Atomic Charges

     Atom                 Charge (a.u.)
  ----------------------------------------
      1 C                    -0.123046
      2 C                    -0.113789
      3 C                    -0.114942
      4 C                    -0.120148
      5 C                    -0.141452
      6 C                     0.117598
      7 C                     0.019222
      8 C                    -0.117345
      9 C                     0.051013
     10 N                    -0.175160
     11 N                    -0.295573
     12 C                    -0.008599
     13 C                     0.110551
     14 S                     0.412228
     15 N                    -0.221936
     16 C                    -0.008400
     17 N                    -0.137837
     18 S                     0.120670
     19 C                    -0.145293
     20 C                    -0.016398
     21 C                     0.004039
     22 S                     0.134182
     23 C                    -0.051444
     24 C                    -0.220285
     25 S                     0.057479
     26 C                     0.043278
     27 C                    -0.145615
     28 C                    -0.172445
     29 H                     0.117659
     30 H                     0.116008
     31 H                     0.114768
     32 H                     0.115879
     33 H                     0.124168
     34 H                     0.134507
     35 H                     0.146050
     36 H                     0.129864
     37 H                     0.132734
     38 H                     0.127808
  ----------------------------------------
  Sum of atomic charges =     0.000000

                    Cartesian Multipole Moments
 -----------------------------------------------------------------
    Charge (ESU x 10^10)
                 0.0000
    Dipole Moment (Debye)
         X      -0.7927      Y      -0.8901      Z      -0.1872
       Tot       1.2065
    Quadrupole Moments (Debye-Ang)
        XX    -139.7830     XY       1.1706     YY    -177.9388
        XZ       1.9003     YZ       1.1154     ZZ    -186.7130

 Total job time:  5314.42s(wall), 79821.66s(cpu)
        *  Thank you very much for using Q-Chem.  Have a nice day.  *
