 Q-Chem 4.4, Q-Chem, Inc., Pleasanton, CA (2016)
 Q-Chem 4.4.2 for Intel X86 Linux

User input:
--------------------------------------------------------------
$comment
OPTIMIZATION
$end

$rem
JOBTYPE OPT
EXCHANGE omegaB97X-D
BASIS cc-pVTZ
$end

$molecule
0 1
C          0.00000        0.00000        0.00000
C          1.38599        0.00000        0.00000
C         -0.68515       -1.20581        0.00000
C          2.08055       -1.19709        0.02226
C          0.00742       -2.40411        0.01179
C          1.40063       -2.41271        0.04151
C          2.15950       -3.67324        0.15696
C          3.17719       -3.80370        1.06187
C          1.90128       -4.82925       -0.63051
N          3.93153       -4.91294        1.24949
N          0.96996       -4.96392       -1.57710
C          2.69553       -6.00748       -0.44811
C          3.73114       -5.99075        0.54167
S          1.12731       -6.46302       -2.14465
N          2.34700       -7.00888       -1.25654
C          4.59622       -7.13331        0.83600
N          4.62477       -8.26104        0.19781
S          5.71732       -7.01827        2.16104
C          5.54110       -9.10291        0.73930
C          6.23899       -8.62604        1.81538
C          7.29282       -9.29229        2.54909
S          7.57999       -9.00441        4.23265
C          8.19804      -10.21198        2.09590
C          8.90137      -10.08618        4.30122
S          8.52234      -10.93240        0.54143
C          9.12085      -10.66751        3.08332
C          9.87191      -11.81469        1.22731
C         10.07342      -11.59957        2.53668
H         -0.54342        0.93472        0.00000
H          1.93260        0.93382       -0.01501
H         -1.76734       -1.21268        0.00047
H          3.16263       -1.19509        0.00785
H         -0.53593       -3.33924        0.01382
H          3.41124       -2.97319        1.71568
H          5.66839      -10.09214        0.32486
H          9.44647      -10.22840        5.21766
H         10.44845      -12.44828        0.57306
H         10.87020      -12.06089        3.09864
$end

$opt
CONSTRAINT
tors 4 6 7 8 45.00000
tors 10 13 16 18 4.63242
tors 18 20 21 22 32.71647
ENDCONSTRAINT
$end
--------------------------------------------------------------

   16   -2579.8621473423      4.68E-09 Convergence criterion met
 Total energy in the final basis set = -2579.8621473423
   11   -2579.8623590045      9.24E-09 Convergence criterion met
 Total energy in the final basis set = -2579.8623590045
   11   -2579.8624242063      7.34E-09 Convergence criterion met
 Total energy in the final basis set = -2579.8624242063
   10   -2579.8624373151      5.24E-09 Convergence criterion met
 Total energy in the final basis set = -2579.8624373151
    9   -2579.8624423670      8.51E-09 Convergence criterion met
 Total energy in the final basis set = -2579.8624423670
    9   -2579.8624436450      9.29E-09 Convergence criterion met
 Total energy in the final basis set = -2579.8624436450

             Standard Nuclear Orientation (Angstroms)
    I     Atom           X                Y                Z
 ----------------------------------------------------------------
    1      C      -8.0085228822     1.6067167781    -0.3771201484
    2      C      -7.0829395711     2.1101811878    -1.2772774037
    3      C      -7.5989644540     0.7131227271     0.6011482532
    4      C      -5.7547927460     1.7258411063    -1.1954531051
    5      C      -6.2729562047     0.3252988824     0.6825037051
    6      C      -5.3322148583     0.8359540318    -0.2099532318
    7      C      -3.9092552327     0.4574899014    -0.1162401852
    8      C      -2.9088096683     1.3864658377    -0.2008097306
    9      C      -3.4696727577    -0.8823622316     0.0844243417
   10      N      -1.5799746715     1.1275119969    -0.1279069763
   11      N      -4.2352101201    -1.9700555859     0.1987660563
   12      C      -2.0695370365    -1.1712704315     0.1676883467
   13      C      -1.1399107005    -0.0879819852     0.0499017995
   14      S      -3.2262673011    -3.2090814357     0.3984679123
   15      N      -1.8062827169    -2.4655717376     0.3497485889
   16      C       0.3116114014    -0.2532952527     0.1213684703
   17      N       0.9536634561    -1.3760275503     0.2163120087
   18      S       1.3223696011     1.1604852256     0.0902779264
   19      C       2.2923037185    -1.1679913694     0.2812409389
   20      C       2.7028689849     0.1369099990     0.2377589993
   21      C       4.0621027809     0.6313267130     0.2659905792
   22      S       4.4795001487     2.1601440771     0.9598201179
   23      C       5.2040614770     0.0201183714    -0.1787388775
   24      C       6.1454493382     1.9762339960     0.6337472023
   25      S       5.5429466752    -1.4867505327    -0.9840470760
   26      C       6.3951887445     0.7787671829     0.0236534552
   27      C       7.2463289706    -1.0859306441    -1.0349996158
   28      C       7.5581903273     0.0991184879    -0.4867760339
   29      H      -9.0462443336     1.9043132264    -0.4414313784
   30      H      -7.3937256764     2.7998292593    -2.0500009208
   31      H      -8.3165043127     0.3164001082     1.3062693819
   32      H      -5.0389156824     2.1035789066    -1.9134861115
   33      H      -5.9639555594    -0.3759019069     1.4439241281
   34      H      -3.1603965017     2.4319005803    -0.3276786368
   35      H       2.9561346957    -2.0135168118     0.3840235253
   36      H       6.8416706819     2.7519581736     0.9018045052
   37      H       7.9252873493    -1.7906049904    -1.4870292501
   38      H       8.5618442893     0.4920206194    -0.4405911747
 ----------------------------------------------------------------

    9   -2579.8624442690      8.66E-09 Convergence criterion met
 Total energy in the final basis set = -2579.8624442690
 Final energy is   -2579.86244426900
 **  OPTIMIZATION CONVERGED  **

                    Orbital Energies (a.u.)
 --------------------------------------------------------------

 Alpha MOs
 -- Occupied --
-89.149 -89.090 -89.086 -89.078 -14.485 -14.481 -14.454 -14.443
-10.365 -10.362 -10.357 -10.355 -10.343 -10.342 -10.335 -10.332
-10.330 -10.327 -10.324 -10.322 -10.313 -10.312 -10.305 -10.297
-10.296 -10.295 -10.295 -10.294  -8.159  -8.105  -8.101  -8.093
 -6.109  -6.104  -6.103  -6.054  -6.051  -6.050  -6.048  -6.047
 -6.044  -6.043  -6.039  -6.035  -1.146  -1.086  -1.064  -1.023
 -1.010  -0.974  -0.959  -0.925  -0.919  -0.899  -0.876  -0.860
 -0.855  -0.833  -0.828  -0.802  -0.775  -0.745  -0.734  -0.712
 -0.705  -0.693  -0.691  -0.660  -0.651  -0.637  -0.626  -0.614
 -0.606  -0.598  -0.572  -0.564  -0.556  -0.548  -0.541  -0.531
 -0.530  -0.525  -0.514  -0.513  -0.507  -0.504  -0.498  -0.486
 -0.478  -0.475  -0.469  -0.455  -0.449  -0.440  -0.436  -0.433
 -0.430  -0.423  -0.421  -0.399  -0.393  -0.374  -0.367  -0.362
 -0.359  -0.353  -0.339  -0.338  -0.324  -0.306  -0.272

          Ground-State Mulliken Net Atomic Charges

     Atom                 Charge (a.u.)
  ----------------------------------------
      1 C                    -0.124492
      2 C                    -0.109497
      3 C                    -0.110083
      4 C                    -0.151831
      5 C                    -0.120620
      6 C                     0.122875
      7 C                     0.015605
      8 C                    -0.110389
      9 C                     0.035478
     10 N                    -0.174371
     11 N                    -0.283288
     12 C                    -0.013362
     13 C                     0.109150
     14 S                     0.412345
     15 N                    -0.222381
     16 C                    -0.008757
     17 N                    -0.137477
     18 S                     0.120682
     19 C                    -0.145675
     20 C                    -0.015759
     21 C                     0.004164
     22 S                     0.134436
     23 C                    -0.052483
     24 C                    -0.220512
     25 S                     0.057357
     26 C                     0.043787
     27 C                    -0.145944
     28 C                    -0.172499
     29 H                     0.117965
     30 H                     0.115155
     31 H                     0.115632
     32 H                     0.128162
     33 H                     0.114116
     34 H                     0.135873
     35 H                     0.145979
     36 H                     0.129920
     37 H                     0.132895
     38 H                     0.127845
  ----------------------------------------
  Sum of atomic charges =     0.000000

                    Cartesian Multipole Moments
 -----------------------------------------------------------------
    Charge (ESU x 10^10)
                 0.0000
    Dipole Moment (Debye)
         X       0.7830      Y       0.9289      Z      -0.0402
       Tot       1.2156
    Quadrupole Moments (Debye-Ang)
        XX    -139.7505     XY       0.0164     YY    -179.3486
        XZ      -2.0797     YZ      -1.1327     ZZ    -185.1534

 Total job time:  5310.78s(wall), 79799.99s(cpu)
        *  Thank you very much for using Q-Chem.  Have a nice day.  *
