 Q-Chem 4.4, Q-Chem, Inc., Pleasanton, CA (2016)
 Q-Chem 4.4.2 for Intel X86 Linux

User input:
--------------------------------------------------------------
$comment
OPTIMIZATION
$end

$rem
JOBTYPE OPT
EXCHANGE omegaB97X-D
BASIS cc-pVTZ
$end

$molecule
0 1
C          0.00000        0.00000        0.00000
C          1.38599        0.00000        0.00000
C         -0.68515       -1.20581        0.00000
C          2.08055       -1.19709        0.02226
C          0.00742       -2.40411        0.01179
C          1.40063       -2.41271        0.04151
C          2.15950       -3.67324        0.15696
C          3.51023       -3.70574       -0.05765
C          1.57347       -4.92305        0.50002
N          4.29810       -4.80441        0.02496
N          0.28594       -5.16181        0.75843
C          2.39308       -6.09500        0.58429
C          3.79727       -5.97041        0.32903
S          0.18183       -6.73712        1.07733
N          1.71056       -7.19380        0.90777
C          4.74129       -7.08576        0.40157
N          4.44569       -8.33203        0.59984
S          6.43932       -6.76263        0.20639
C          5.56423       -9.10029        0.61590
C          6.75061       -8.44521        0.42679
C          8.07546       -9.02193        0.35654
S          9.49244       -8.16205        0.85903
C          8.44307      -10.26399       -0.08254
C         10.54417       -9.44894        0.46057
S          7.57641      -11.62044       -0.75301
C          9.84586      -10.51635       -0.03175
C          9.08470      -12.48865       -0.95670
C         10.17426      -11.82121       -0.54598
H         -0.54342        0.93472        0.00000
H          1.93260        0.93382       -0.01501
H         -1.76734       -1.21268        0.00047
H          3.16263       -1.19509        0.00785
H         -0.53593       -3.33924        0.01382
H          4.02885       -2.78551       -0.29473
H          5.48002      -10.16300        0.78938
H         11.60667       -9.35106        0.59745
H          9.04830      -13.47169       -1.39737
H         11.17501      -12.21759       -0.61578
$end

$opt
CONSTRAINT
tors 4 6 7 8 -15.00000
tors 10 13 16 18 4.63242
tors 18 20 21 22 32.71647
ENDCONSTRAINT
$end
--------------------------------------------------------------

   16   -2579.8575015832      5.24E-09 Convergence criterion met
 Total energy in the final basis set = -2579.8575015832
   13   -2579.8592184666      4.16E-09 Convergence criterion met
 Total energy in the final basis set = -2579.8592184666
   12   -2579.8599331369      5.38E-09 Convergence criterion met
 Total energy in the final basis set = -2579.8599331369
   12   -2579.8601907438      4.59E-09 Convergence criterion met
 Total energy in the final basis set = -2579.8601907438
   11   -2579.8602982238      6.79E-09 Convergence criterion met
 Total energy in the final basis set = -2579.8602982238
   11   -2579.8603253827      5.83E-09 Convergence criterion met
 Total energy in the final basis set = -2579.8603253827
   10   -2579.8603322081      7.20E-09 Convergence criterion met
 Total energy in the final basis set = -2579.8603322081
    9   -2579.8603347372      8.61E-09 Convergence criterion met
 Total energy in the final basis set = -2579.8603347372

             Standard Nuclear Orientation (Angstroms)
    I     Atom           X                Y                Z
 ----------------------------------------------------------------
    1      C       8.0283204736     1.6055671498     0.4616969519
    2      C       7.0392669536     2.5465160082     0.2196633515
    3      C       7.6779460324     0.2715912661     0.5781902340
    4      C       5.7190316893     2.1551413628     0.0974685473
    5      C       6.3557773002    -0.1229581766     0.4552173822
    6      C       5.3484071315     0.8107280622     0.2029136348
    7      C       3.9220825455     0.4166900016     0.1405247148
    8      C       2.9111928874     1.3331839153     0.2830371909
    9      C       3.4664499302    -0.9085612753    -0.1512515606
   10      N       1.5826178306     1.0882805596     0.1957531548
   11      N       4.2111157260    -1.9939704441    -0.3795058128
   12      C       2.0608651648    -1.1805829536    -0.2528087454
   13      C       1.1337914390    -0.1088445882    -0.0621072455
   14      S       3.1907446233    -3.2008606260    -0.6787696105
   15      N       1.7821951007    -2.4497637858    -0.5484840387
   16      C      -0.3181555283    -0.2623411105    -0.1358468030
   17      N      -0.9673156707    -1.3719361830    -0.3086358966
   18      S      -1.3208067017     1.1513400335    -0.0015312829
   19      C      -2.3045543438    -1.1521201320    -0.3541162114
   20      C      -2.7076745055     0.1488185084    -0.2171731919
   21      C      -4.0648245326     0.6488004266    -0.1958002383
   22      S      -4.4826260129     2.2286947412    -0.7645750623
   23      C      -5.2066833650     0.0048291299     0.2007697852
   24      C      -6.1476407066     2.0210883134    -0.4483028403
   25      S      -5.5468896762    -1.5655386975     0.8734698582
   26      C      -6.3971645908     0.7788504536     0.0644527660
   27      C      -7.2497614606    -1.1688187769     0.9597912050
   28      C      -7.5605869445     0.0593221773     0.5159270700
   29      H       9.0612922097     1.9109348152     0.5575906000
   30      H       7.2956706200     3.5922808632     0.1181986480
   31      H       8.4367712087    -0.4738960181     0.7729478798
   32      H       4.9782555047     2.9102962770    -0.1211098813
   33      H       6.1058508107    -1.1660512153     0.5575299863
   34      H       3.1445106444     2.3609883085     0.5214839137
   35      H      -2.9747768203    -1.9835238171    -0.5141590994
   36      H      -6.8440639559     2.8153650911    -0.6545440353
   37      H      -7.9303230643    -1.9094651975     1.3472946041
   38      H      -8.5637488923     0.4559147700     0.5033255405
 ----------------------------------------------------------------

    9   -2579.8603348608      6.16E-09 Convergence criterion met
 Total energy in the final basis set = -2579.8603348608
 Final energy is   -2579.86033486076
 **  OPTIMIZATION CONVERGED  **

                    Orbital Energies (a.u.)
 --------------------------------------------------------------

 Alpha MOs
 -- Occupied --
-89.150 -89.091 -89.087 -89.078 -14.486 -14.482 -14.454 -14.443
-10.364 -10.362 -10.360 -10.356 -10.343 -10.342 -10.335 -10.333
-10.330 -10.328 -10.327 -10.322 -10.314 -10.313 -10.305 -10.297
-10.295 -10.294 -10.293 -10.291  -8.160  -8.105  -8.102  -8.093
 -6.110  -6.104  -6.104  -6.055  -6.051  -6.051  -6.048  -6.047
 -6.045  -6.043  -6.039  -6.035  -1.147  -1.087  -1.065  -1.023
 -1.010  -0.973  -0.959  -0.925  -0.920  -0.900  -0.877  -0.860
 -0.854  -0.833  -0.829  -0.803  -0.776  -0.746  -0.734  -0.713
 -0.703  -0.693  -0.691  -0.661  -0.651  -0.636  -0.625  -0.616
 -0.606  -0.598  -0.572  -0.564  -0.556  -0.550  -0.536  -0.532
 -0.530  -0.526  -0.514  -0.512  -0.507  -0.502  -0.498  -0.489
 -0.478  -0.476  -0.472  -0.455  -0.452  -0.440  -0.436  -0.434
 -0.432  -0.424  -0.419  -0.395  -0.393  -0.377  -0.368  -0.363
 -0.361  -0.353  -0.339  -0.338  -0.324  -0.302  -0.271

          Ground-State Mulliken Net Atomic Charges

     Atom                 Charge (a.u.)
  ----------------------------------------
      1 C                    -0.120373
      2 C                    -0.118713
      3 C                    -0.119335
      4 C                    -0.137589
      5 C                    -0.125116
      6 C                     0.113237
      7 C                     0.024522
      8 C                    -0.115558
      9 C                     0.061631
     10 N                    -0.177951
     11 N                    -0.300715
     12 C                    -0.007715
     13 C                     0.111661
     14 S                     0.410486
     15 N                    -0.221205
     16 C                    -0.007658
     17 N                    -0.137483
     18 S                     0.120896
     19 C                    -0.146049
     20 C                    -0.015299
     21 C                     0.005327
     22 S                     0.134110
     23 C                    -0.053298
     24 C                    -0.220785
     25 S                     0.057534
     26 C                     0.044130
     27 C                    -0.146373
     28 C                    -0.171990
     29 H                     0.118177
     30 H                     0.115537
     31 H                     0.114631
     32 H                     0.117052
     33 H                     0.124743
     34 H                     0.133140
     35 H                     0.145596
     36 H                     0.129992
     37 H                     0.132868
     38 H                     0.127935
  ----------------------------------------
  Sum of atomic charges =     0.000000

                    Cartesian Multipole Moments
 -----------------------------------------------------------------
    Charge (ESU x 10^10)
                 0.0000
    Dipole Moment (Debye)
         X      -0.8825      Y       0.8744      Z       0.1273
       Tot       1.2489
    Quadrupole Moments (Debye-Ang)
        XX    -139.8295     XY      -1.0204     YY    -174.4526
        XZ      -0.2037     YZ      -2.7651     ZZ    -190.1707

 Total job time:  7226.08s(wall), 108438.98s(cpu)
        *  Thank you very much for using Q-Chem.  Have a nice day.  *
