 Q-Chem 4.4, Q-Chem, Inc., Pleasanton, CA (2016)
 Q-Chem 4.4.2 for Intel X86 Linux

User input:
--------------------------------------------------------------
$comment
OPTIMIZATION
$end

$rem
JOBTYPE OPT
EXCHANGE omegaB97X-D
BASIS cc-pVTZ
$end

$molecule
0 1
C          0.00000        0.00000        0.00000
C          1.38599        0.00000        0.00000
C         -0.68515       -1.20581        0.00000
C          2.08055       -1.19709        0.02226
C          0.00742       -2.40411        0.01179
C          1.40063       -2.41271        0.04151
C          2.15950       -3.67324        0.15696
C          2.33643       -4.49183       -0.92480
C          2.76248       -4.12827        1.36216
N          3.01517       -5.66398       -0.92717
N          2.73934       -3.52065        2.55036
C          3.47756       -5.36955        1.37654
C          3.57556       -6.11939        0.15975
S          3.56562       -4.47329        3.55231
N          3.98300       -5.67325        2.57241
C          4.29261       -7.38901        0.03991
N          4.84161       -8.05650        1.00580
S          4.45037       -8.11918       -1.53101
C          5.42901       -9.18848        0.54191
C          5.33710       -9.40905       -0.80541
C          5.83273      -10.54667       -1.54903
S          6.34639      -10.42774       -3.19879
C          5.98556      -11.83936       -1.12925
C          6.73260      -12.08893       -3.30951
S          5.64640      -12.68041        0.36011
C          6.49296      -12.72653       -2.12401
C          6.17640      -14.18528       -0.36426
C          6.59088      -14.07838       -1.63630
H         -0.54342        0.93472        0.00000
H          1.93260        0.93382       -0.01501
H         -1.76734       -1.21268        0.00047
H          3.16263       -1.19509        0.00785
H         -0.53593       -3.33924        0.01382
H          1.92937       -4.19493       -1.88300
H          5.94547       -9.84252        1.22896
H          7.10062      -12.50603       -4.23028
H          6.12749      -15.08070        0.23383
H          6.93613      -14.91655       -2.22090
$end

$opt
CONSTRAINT
tors 4 6 7 8 -105.00000
tors 10 13 16 18 4.63242
tors 18 20 21 22 32.71647
ENDCONSTRAINT
$end
--------------------------------------------------------------

   16   -2579.8589904312      4.45E-09 Convergence criterion met
 Total energy in the final basis set = -2579.8589904312
   12   -2579.8596922543      3.46E-09 Convergence criterion met
 Total energy in the final basis set = -2579.8596922543
   11   -2579.8599100862      8.40E-09 Convergence criterion met
 Total energy in the final basis set = -2579.8599100862
   11   -2579.8599666631      6.57E-09 Convergence criterion met
 Total energy in the final basis set = -2579.8599666631
   12   -2579.8600171301      4.97E-09 Convergence criterion met
 Total energy in the final basis set = -2579.8600171301
   11   -2579.8600275199      4.97E-09 Convergence criterion met
 Total energy in the final basis set = -2579.8600275199
   10   -2579.8600299227      5.98E-09 Convergence criterion met
 Total energy in the final basis set = -2579.8600299227

             Standard Nuclear Orientation (Angstroms)
    I     Atom           X                Y                Z
 ----------------------------------------------------------------
    1      C      -8.0201738756    -1.5251787821     0.4147817722
    2      C      -7.4578498375    -1.1892450539    -0.8078239622
    3      C      -7.2449314734    -1.4879772180     1.5624571004
    4      C      -6.1266684267    -0.8161380114    -0.8815805152
    5      C      -5.9118597924    -1.1141413944     1.4895342655
    6      C      -5.3445111605    -0.7684418601     0.2683169869
    7      C      -3.9078363340    -0.4195914894     0.1807630263
    8      C      -2.9210947810    -1.3538596195     0.3056596506
    9      C      -3.4639953199     0.8992069848    -0.1072849480
   10      N      -1.5888798538    -1.1074190096     0.2106531870
   11      N      -4.2308963377     1.9755534109    -0.2943915188
   12      C      -2.0647353612     1.1742346206    -0.2242464895
   13      C      -1.1428987305     0.0916961424    -0.0452976195
   14      S      -3.2193271406     3.1931773699    -0.5903290332
   15      N      -1.7992807681     2.4515234120    -0.5006983681
   16      C       0.3100230107     0.2444638037    -0.1257787290
   17      N       0.9564512242     1.3549774538    -0.3004444618
   18      S       1.3141928356    -1.1685056761    -0.0018992469
   19      C       2.2939140389     1.1368076301    -0.3545241234
   20      C       2.6989675207    -0.1639647012    -0.2228585631
   21      C       4.0567636592    -0.6626119297    -0.2066799650
   22      S       4.4740010735    -2.2420428988    -0.7771110501
   23      C       5.1996599970    -0.0168782218     0.1839807745
   24      C       6.1401450333    -2.0322985035    -0.4683930554
   25      S       5.5412705776     1.5548065757     0.8530215911
   26      C       6.3904552257    -0.7895571862     0.0427462608
   27      C       7.2450316555     1.1603024553     0.9314373138
   28      C       7.5551685333    -0.0680364353     0.4876496769
   29      H      -9.0597555025    -1.8177877723     0.4718535531
   30      H      -8.0557215376    -1.2202432060    -1.7083746691
   31      H      -7.6763100522    -1.7534178234     2.5179432334
   32      H      -5.6888545921    -0.5522036884    -1.8349599398
   33      H      -5.3065023288    -1.0856502728     2.3858533925
   34      H      -3.1823540828    -2.3858074952     0.5035755358
   35      H       2.9620830592     1.9694391655    -0.5166008925
   36      H       6.8364618034    -2.8262110401    -0.6763815257
   37      H       7.9266482670     1.9024412590     1.3141971191
   38      H       8.5587694229    -0.4633556233     0.4705871157
 ----------------------------------------------------------------

    8   -2579.8600305003      9.86E-09 Convergence criterion met
 Total energy in the final basis set = -2579.8600305003
 Final energy is   -2579.86003050025
 **  OPTIMIZATION CONVERGED  **

                    Orbital Energies (a.u.)
 --------------------------------------------------------------

 Alpha MOs
 -- Occupied --
-89.148 -89.090 -89.086 -89.078 -14.484 -14.480 -14.453 -14.443
-10.365 -10.362 -10.356 -10.355 -10.343 -10.342 -10.335 -10.333
-10.330 -10.327 -10.323 -10.322 -10.313 -10.311 -10.305 -10.297
-10.296 -10.295 -10.295 -10.294  -8.158  -8.105  -8.102  -8.093
 -6.108  -6.103  -6.102  -6.055  -6.051  -6.050  -6.048  -6.047
 -6.045  -6.043  -6.039  -6.035  -1.145  -1.086  -1.064  -1.023
 -1.009  -0.974  -0.959  -0.924  -0.920  -0.898  -0.876  -0.860
 -0.855  -0.833  -0.828  -0.802  -0.774  -0.742  -0.734  -0.711
 -0.707  -0.693  -0.691  -0.660  -0.651  -0.637  -0.627  -0.614
 -0.606  -0.597  -0.571  -0.563  -0.556  -0.549  -0.543  -0.531
 -0.530  -0.523  -0.514  -0.514  -0.507  -0.504  -0.498  -0.484
 -0.477  -0.475  -0.466  -0.455  -0.447  -0.441  -0.437  -0.434
 -0.427  -0.423  -0.421  -0.399  -0.393  -0.371  -0.368  -0.361
 -0.355  -0.353  -0.339  -0.336  -0.325  -0.312  -0.273

          Ground-State Mulliken Net Atomic Charges

     Atom                 Charge (a.u.)
  ----------------------------------------
      1 C                    -0.123936
      2 C                    -0.103303
      3 C                    -0.103001
      4 C                    -0.108128
      5 C                    -0.129136
      6 C                     0.073355
      7 C                    -0.037984
      8 C                    -0.080292
      9 C                     0.044760
     10 N                    -0.172443
     11 N                    -0.267763
     12 C                    -0.010800
     13 C                     0.109632
     14 S                     0.411516
     15 N                    -0.223276
     16 C                    -0.009305
     17 N                    -0.136419
     18 S                     0.121410
     19 C                    -0.146795
     20 C                    -0.015310
     21 C                     0.005414
     22 S                     0.134284
     23 C                    -0.053500
     24 C                    -0.221007
     25 S                     0.057396
     26 C                     0.044385
     27 C                    -0.146445
     28 C                    -0.172034
     29 H                     0.117964
     30 H                     0.115611
     31 H                     0.117220
     32 H                     0.117629
     33 H                     0.123109
     34 H                     0.130805
     35 H                     0.145633
     36 H                     0.129989
     37 H                     0.132836
     38 H                     0.127929
  ----------------------------------------
  Sum of atomic charges =     0.000000

                    Cartesian Multipole Moments
 -----------------------------------------------------------------
    Charge (ESU x 10^10)
                 0.0000
    Dipole Moment (Debye)
         X       0.8554      Y      -0.9909      Z       0.0798
       Tot       1.3115
    Quadrupole Moments (Debye-Ang)
        XX    -140.3916     XY       1.2302     YY    -181.3997
        XZ       1.6025     YZ       0.8772     ZZ    -182.6971

 Total job time:  6309.68s(wall), 94724.75s(cpu)
        *  Thank you very much for using Q-Chem.  Have a nice day.  *
