 Q-Chem 4.4, Q-Chem, Inc., Pleasanton, CA (2016)
 Q-Chem 4.4.2 for Intel X86 Linux

User input:
--------------------------------------------------------------
$comment
OPTIMIZATION
$end

$rem
JOBTYPE OPT
EXCHANGE omegaB97X-D
BASIS cc-pVTZ
$end

$molecule
0 1
C          0.00000        0.00000        0.00000
C          1.38599        0.00000        0.00000
C         -0.68515       -1.20581        0.00000
C          2.08055       -1.19709        0.02226
C          0.00742       -2.40411        0.01179
C          1.40063       -2.41271        0.04151
C          2.15950       -3.67324        0.15696
C          1.75959       -4.66150        1.01428
C          3.33025       -3.96580       -0.59597
N          2.38026       -5.85196        1.19379
N          3.92410       -3.17790       -1.49491
C          4.00142       -5.21795       -0.41165
C          3.46101       -6.15462        0.52805
S          5.20325       -3.99852       -2.02833
N          5.08535       -5.35295       -1.17630
C          4.04135       -7.47135        0.79237
N          5.15179       -7.93353        0.30947
S          3.19983       -8.56195        1.85456
C          5.38895       -9.19302        0.75564
C          4.45094       -9.72226        1.59970
C          4.47714      -11.01494        2.24859
S          3.03391      -11.88676        2.64450
C          5.56116      -11.74927        2.64393
C          3.88718      -13.19267        3.34271
S          7.28480      -11.48869        2.60214
C          5.23720      -12.98836        3.27147
C          7.53989      -13.01794        3.41858
C          6.41621      -13.69450        3.70303
H         -0.54342        0.93472        0.00000
H          1.93260        0.93382       -0.01501
H         -1.76734       -1.21268        0.00047
H          3.16263       -1.19509        0.00785
H         -0.53593       -3.33924        0.01382
H          0.85965       -4.52000        1.59915
H          6.27173       -9.71979        0.42438
H          3.35902      -14.02564        3.77218
H          8.55263      -13.30810        3.64672
H          6.40819      -14.64512        4.21268
$end

$opt
CONSTRAINT
tors 4 6 7 8 135.00000
tors 10 13 16 18 4.63242
tors 18 20 21 22 32.71647
ENDCONSTRAINT
$end
--------------------------------------------------------------

   16   -2579.8620915894      4.79E-09 Convergence criterion met
 Total energy in the final basis set = -2579.8620915894
   12   -2579.8625413254      5.45E-09 Convergence criterion met
 Total energy in the final basis set = -2579.8625413254
   11   -2579.8626353727      7.30E-09 Convergence criterion met
 Total energy in the final basis set = -2579.8626353727
   10   -2579.8626499593      5.61E-09 Convergence criterion met
 Total energy in the final basis set = -2579.8626499593
    9   -2579.8626552197      5.55E-09 Convergence criterion met
 Total energy in the final basis set = -2579.8626552197
    9   -2579.8626569500      4.77E-09 Convergence criterion met
 Total energy in the final basis set = -2579.8626569500

             Standard Nuclear Orientation (Angstroms)
    I     Atom           X                Y                Z
 ----------------------------------------------------------------
    1      C       7.9999908154    -1.5357225499    -0.6282412931
    2      C       7.5136678156    -0.3605717456    -1.1810219408
    3      C       7.1571992032    -2.3427728648     0.1194712823
    4      C       6.1929550516     0.0057580672    -0.9913796042
    5      C       5.8337912173    -1.9798169723     0.3073275792
    6      C       5.3347672235    -0.8035538097    -0.2487924974
    7      C       3.9114979152    -0.4492495075    -0.0898332482
    8      C       2.9151885241    -1.3757995962    -0.2321195553
    9      C       3.4653852583     0.8727569855     0.1978287885
   10      N       1.5858656843    -1.1322931562    -0.1225109544
   11      N       4.2263759363     1.9514408426     0.3972290616
   12      C       2.0650581049     1.1446839248     0.3213756081
   13      C       1.1403983457     0.0661742144     0.1384374465
   14      S       3.2132489846     3.1638159169     0.7065571714
   15      N       1.7969122012     2.4180321443     0.6121222830
   16      C      -0.3118590182     0.2245617537     0.2078932291
   17      N      -0.9546621603     1.3395829902     0.3680709975
   18      S      -1.3229642791    -1.1819137959     0.0654901056
   19      C      -2.2941077219     1.1302865936     0.3955539067
   20      C      -2.7051772814    -0.1677494859     0.2563497331
   21      C      -4.0663766478    -0.6555644521     0.2147523092
   22      S      -4.5106110052    -2.2293178613     0.7800282213
   23      C      -5.1929519059    -0.0041172249    -0.2120695164
   24      C      -6.1662260029    -2.0086931987     0.4244458078
   25      S      -5.5023274881     1.5639649882    -0.9044858624
   26      C      -6.3929858048    -0.7671001144    -0.1001725746
   27      C      -7.2057684397     1.1810711942    -1.0307777632
   28      C      -7.5385358248    -0.0409023800    -0.5856367667
   29      H       9.0334298019    -1.8177127725    -0.7765116464
   30      H       8.1646784816     0.2728151805    -1.7677865084
   31      H       7.5322710426    -3.2554284976     0.5619261030
   32      H       5.8198260130     0.9235649529    -1.4219231817
   33      H       5.1851492537    -2.6036432211     0.9080359846
   34      H       3.1690647572    -2.4001843066    -0.4737640355
   35      H      -2.9600046098     1.9675818236     0.5423427677
   36      H      -6.8739473798    -2.7957474149     0.6196317684
   37      H      -7.8697747520     1.9241805445    -1.4415728770
   38      H      -8.5452426563    -0.4284972133    -0.5953509576
 ----------------------------------------------------------------

    8   -2579.8626573697      6.80E-09 Convergence criterion met
 Total energy in the final basis set = -2579.8626573697
 Final energy is   -2579.86265736974
 **  OPTIMIZATION CONVERGED  **

                    Orbital Energies (a.u.)
 --------------------------------------------------------------

 Alpha MOs
 -- Occupied --
-89.149 -89.090 -89.086 -89.078 -14.485 -14.481 -14.454 -14.443
-10.365 -10.362 -10.357 -10.355 -10.343 -10.342 -10.335 -10.333
-10.330 -10.327 -10.325 -10.322 -10.313 -10.312 -10.305 -10.298
-10.296 -10.295 -10.295 -10.294  -8.159  -8.105  -8.102  -8.093
 -6.109  -6.104  -6.103  -6.054  -6.051  -6.050  -6.048  -6.047
 -6.045  -6.043  -6.039  -6.035  -1.146  -1.086  -1.064  -1.023
 -1.010  -0.974  -0.959  -0.925  -0.920  -0.899  -0.877  -0.860
 -0.855  -0.833  -0.828  -0.802  -0.775  -0.745  -0.734  -0.712
 -0.705  -0.693  -0.691  -0.660  -0.651  -0.637  -0.626  -0.615
 -0.606  -0.598  -0.572  -0.564  -0.556  -0.548  -0.541  -0.531
 -0.530  -0.524  -0.514  -0.514  -0.507  -0.503  -0.498  -0.487
 -0.477  -0.476  -0.469  -0.455  -0.449  -0.439  -0.435  -0.434
 -0.430  -0.423  -0.420  -0.399  -0.393  -0.374  -0.368  -0.362
 -0.359  -0.353  -0.339  -0.338  -0.324  -0.305  -0.272

          Ground-State Mulliken Net Atomic Charges

     Atom                 Charge (a.u.)
  ----------------------------------------
      1 C                    -0.124252
      2 C                    -0.109967
      3 C                    -0.109053
      4 C                    -0.121399
      5 C                    -0.151622
      6 C                     0.125245
      7 C                     0.017054
      8 C                    -0.109566
      9 C                     0.035879
     10 N                    -0.174574
     11 N                    -0.285117
     12 C                    -0.013797
     13 C                     0.109083
     14 S                     0.412635
     15 N                    -0.222333
     16 C                    -0.008410
     17 N                    -0.137291
     18 S                     0.121150
     19 C                    -0.146169
     20 C                    -0.016187
     21 C                     0.004827
     22 S                     0.133814
     23 C                    -0.052001
     24 C                    -0.220235
     25 S                     0.057619
     26 C                     0.043206
     27 C                    -0.146515
     28 C                    -0.172313
     29 H                     0.117866
     30 H                     0.114665
     31 H                     0.114896
     32 H                     0.114729
     33 H                     0.126268
     34 H                     0.135175
     35 H                     0.145691
     36 H                     0.129933
     37 H                     0.133028
     38 H                     0.128039
  ----------------------------------------
  Sum of atomic charges =     0.000000

                    Cartesian Multipole Moments
 -----------------------------------------------------------------
    Charge (ESU x 10^10)
                 0.0000
    Dipole Moment (Debye)
         X      -0.8085      Y      -0.8784      Z      -0.2920
       Tot       1.2290
    Quadrupole Moments (Debye-Ang)
        XX    -140.1056     XY       0.0336     YY    -176.4366
        XZ      -0.3424     YZ      -5.1005     ZZ    -187.7508

 Total job time:  5234.93s(wall), 78633.63s(cpu)
        *  Thank you very much for using Q-Chem.  Have a nice day.  *
