 Q-Chem 4.4, Q-Chem, Inc., Pleasanton, CA (2016)
 Q-Chem 4.4.2 for Intel X86 Linux

User input:
--------------------------------------------------------------
$comment
OPTIMIZATION
$end

$rem
JOBTYPE OPT
EXCHANGE omegaB97X-D
BASIS cc-pVTZ
$end

$molecule
0 1
C          0.00000        0.00000        0.00000
C          1.38599        0.00000        0.00000
C         -0.68515       -1.20581        0.00000
C          2.08055       -1.19709        0.02226
C          0.00742       -2.40411        0.01179
C          1.40063       -2.41271        0.04151
C          2.15950       -3.67324        0.15696
C          2.08706       -4.63201       -0.81623
C          3.01303       -3.98766        1.25047
N          2.74207       -5.81757       -0.80897
N          3.25797       -3.22940        2.32126
C          3.70683       -5.24080        1.27529
C          3.52777       -6.14634        0.17968
S          4.28137       -4.07129        3.23672
N          4.46399       -5.40307        2.36073
C          4.19348       -7.44518        0.07823
N          4.94003       -7.99950        0.98115
S          3.99402       -8.37966       -1.37532
C          5.40355       -9.20241        0.55715
C          5.01310       -9.59395       -0.69450
C          5.32489      -10.83580       -1.36782
S          5.45935      -10.95186       -3.09066
C          5.56043      -12.06705       -0.82086
C          5.80248      -12.62582       -3.05762
S          5.55661      -12.69359        0.80641
C          5.82916      -13.09404       -1.77331
C          5.90425      -14.29800        0.19385
C          6.02597      -14.37308       -1.14064
H         -0.54342        0.93472        0.00000
H          1.93260        0.93382       -0.01501
H         -1.76734       -1.21268        0.00047
H          3.16263       -1.19509        0.00785
H         -0.53593       -3.33924        0.01382
H          1.47864       -4.44886       -1.69274
H          6.05642       -9.77874        1.19600
H          5.95426      -13.17248       -3.97160
H          5.98487      -15.10522        0.90363
H          6.22810      -15.29215       -1.66784
$end

$opt
CONSTRAINT
tors 4 6 7 8 -120.00000
tors 10 13 16 18 4.63242
tors 18 20 21 22 32.71647
ENDCONSTRAINT
$end
--------------------------------------------------------------

   16   -2579.8604153655      4.53E-09 Convergence criterion met
 Total energy in the final basis set = -2579.8604153655
   12   -2579.8611362013      4.03E-09 Convergence criterion met
 Total energy in the final basis set = -2579.8611362013
   12   -2579.8613854411      4.91E-09 Convergence criterion met
 Total energy in the final basis set = -2579.8613854411
   11   -2579.8614355796      6.28E-09 Convergence criterion met
 Total energy in the final basis set = -2579.8614355796
   11   -2579.8614591012      7.68E-09 Convergence criterion met
 Total energy in the final basis set = -2579.8614591012
   10   -2579.8614645422      5.73E-09 Convergence criterion met
 Total energy in the final basis set = -2579.8614645422
    9   -2579.8614666795      7.12E-09 Convergence criterion met
 Total energy in the final basis set = -2579.8614666795
    9   -2579.8614677458      7.97E-09 Convergence criterion met
 Total energy in the final basis set = -2579.8614677458

             Standard Nuclear Orientation (Angstroms)
    I     Atom           X                Y                Z
 ----------------------------------------------------------------
    1      C      -8.0107254476    -1.5543635860     0.4079136465
    2      C      -7.5387339436    -0.9072058477    -0.7247622505
    3      C      -7.1490484261    -1.8176015480     1.4602884625
    4      C      -6.2121350949    -0.5213003017    -0.8038014446
    5      C      -5.8193448275    -1.4349071749     1.3809706499
    6      C      -5.3404047031    -0.7785265670     0.2513336752
    7      C      -3.9101773636    -0.4216102964     0.1515513860
    8      C      -2.9193599105    -1.3567879910     0.2507809955
    9      C      -3.4670245456     0.9053545311    -0.1049757925
   10      N      -1.5886375070    -1.1071595838     0.1590357139
   11      N      -4.2326440956     1.9875891367    -0.2614273441
   12      C      -2.0673897009     1.1845280121    -0.2112929812
   13      C      -1.1436686443     0.0997402039    -0.0603575373
   14      S      -3.2211591129     3.2133824361    -0.5215393568
   15      N      -1.8018460352     2.4691885442    -0.4508176096
   16      C       0.3087233988     0.2562445732    -0.1385404519
   17      N       0.9547262648     1.3731999091    -0.2681157481
   18      S       1.3142695928    -1.1592206661    -0.0602763810
   19      C       2.2927542799     1.1585477828    -0.3238902500
   20      C       2.6986578608    -0.1456887221    -0.2379665728
   21      C       4.0566355147    -0.6442497610    -0.2429605169
   22      S       4.4740100362    -2.1975712181    -0.8802783051
   23      C       5.1979326043    -0.0200071443     0.1852446277
   24      C       6.1388426838    -2.0053472144    -0.5533123168
   25      S       5.5366816847     1.5146612879     0.9362099269
   26      C       6.3882536087    -0.7877855255     0.0156567393
   27      C       7.2389575060     1.1125852084     1.0091007571
   28      C       7.5506067766    -0.0922727586     0.5058384880
   29      H      -9.0485844270    -1.8522130814     0.4693405414
   30      H      -8.2079251190    -0.7026495966    -1.5491379206
   31      H      -7.5131454473    -2.3173124503     2.3474155509
   32      H      -5.8453657760    -0.0171208735    -1.6871443096
   33      H      -5.1454414610    -1.6348366180     2.2035083659
   34      H      -3.1786074274    -2.3946954413     0.4182896834
   35      H       2.9602907023     1.9975567666    -0.4525525074
   36      H       6.8347679953    -2.7908306347    -0.7921974034
   37      H       7.9180203539     1.8320335223     1.4370951120
   38      H       8.5534174916    -0.4890153410     0.4781638404
 ----------------------------------------------------------------

    9   -2579.8614680857      4.99E-09 Convergence criterion met
 Total energy in the final basis set = -2579.8614680857
 Final energy is   -2579.86146808573
 **  OPTIMIZATION CONVERGED  **

                    Orbital Energies (a.u.)
 --------------------------------------------------------------

 Alpha MOs
 -- Occupied --
-89.149 -89.090 -89.086 -89.078 -14.485 -14.481 -14.453 -14.443
-10.365 -10.362 -10.356 -10.355 -10.343 -10.342 -10.335 -10.333
-10.330 -10.327 -10.323 -10.322 -10.313 -10.311 -10.305 -10.297
-10.296 -10.295 -10.295 -10.295  -8.159  -8.105  -8.101  -8.093
 -6.109  -6.103  -6.103  -6.054  -6.051  -6.050  -6.048  -6.047
 -6.045  -6.043  -6.039  -6.035  -1.145  -1.086  -1.064  -1.023
 -1.009  -0.974  -0.959  -0.925  -0.919  -0.898  -0.876  -0.860
 -0.855  -0.833  -0.828  -0.802  -0.774  -0.743  -0.734  -0.712
 -0.706  -0.693  -0.691  -0.660  -0.651  -0.637  -0.627  -0.614
 -0.606  -0.598  -0.571  -0.564  -0.556  -0.548  -0.543  -0.531
 -0.530  -0.524  -0.514  -0.514  -0.507  -0.504  -0.498  -0.485
 -0.477  -0.475  -0.468  -0.455  -0.448  -0.440  -0.436  -0.433
 -0.428  -0.423  -0.421  -0.399  -0.393  -0.373  -0.368  -0.362
 -0.357  -0.353  -0.339  -0.337  -0.324  -0.309  -0.272

          Ground-State Mulliken Net Atomic Charges

     Atom                 Charge (a.u.)
  ----------------------------------------
      1 C                    -0.123689
      2 C                    -0.106307
      3 C                    -0.104714
      4 C                    -0.119514
      5 C                    -0.149927
      6 C                     0.108487
      7 C                    -0.004188
      8 C                    -0.097980
      9 C                     0.032785
     10 N                    -0.173144
     11 N                    -0.273228
     12 C                    -0.013290
     13 C                     0.109290
     14 S                     0.411920
     15 N                    -0.223192
     16 C                    -0.009334
     17 N                    -0.137035
     18 S                     0.121068
     19 C                    -0.145882
     20 C                    -0.015917
     21 C                     0.004492
     22 S                     0.134294
     23 C                    -0.052474
     24 C                    -0.220463
     25 S                     0.057523
     26 C                     0.043631
     27 C                    -0.146181
     28 C                    -0.172292
     29 H                     0.118005
     30 H                     0.115334
     31 H                     0.115806
     32 H                     0.116647
     33 H                     0.128321
     34 H                     0.134606
     35 H                     0.145877
     36 H                     0.129903
     37 H                     0.132910
     38 H                     0.127851
  ----------------------------------------
  Sum of atomic charges =     0.000000

                    Cartesian Multipole Moments
 -----------------------------------------------------------------
    Charge (ESU x 10^10)
                 0.0000
    Dipole Moment (Debye)
         X       0.8040      Y      -0.9755      Z       0.0656
       Tot       1.2658
    Quadrupole Moments (Debye-Ang)
        XX    -140.0945     XY       0.6374     YY    -180.6715
        XZ       2.1960     YZ      -0.5322     ZZ    -183.6170

 Total job time:  6889.14s(wall), 103418.81s(cpu)
        *  Thank you very much for using Q-Chem.  Have a nice day.  *
