 Q-Chem 4.4, Q-Chem, Inc., Pleasanton, CA (2016)
 Q-Chem 4.4.2 for Intel X86 Linux

User input:
--------------------------------------------------------------
$comment
OPTIMIZATION
$end

$rem
JOBTYPE OPT
EXCHANGE omegaB97X-D
BASIS cc-pVTZ
$end

$molecule
0 1
C          0.00000        0.00000        0.00000
C          1.38599        0.00000        0.00000
C         -0.68515       -1.20581        0.00000
C          2.08055       -1.19709        0.02226
C          0.00742       -2.40411        0.01179
C          1.40063       -2.41271        0.04151
C          2.15950       -3.67324        0.15696
C          3.52467       -3.66925        0.24580
C          1.55681       -4.96106        0.19457
N          4.31332       -4.76482        0.35714
N          0.25318       -5.23940        0.12662
C          2.37862       -6.12929        0.30500
C          3.79931       -5.96388        0.38700
S          0.13709       -6.84391        0.20551
N          1.68084       -7.26535        0.32198
C          4.74300       -7.07378        0.52116
N          4.45513       -8.33696        0.48395
S          6.42997       -6.71824        0.75254
C          5.56916       -9.09440        0.64777
C          6.74429       -8.41350        0.81463
C          8.07167       -8.96839        0.96600
S          9.31246       -8.17697        1.87912
C          8.57025      -10.13763        0.46109
C         10.47068       -9.39250        1.55976
S          7.92037      -11.39540       -0.55687
C          9.93561      -10.38712        0.78917
C          9.46618      -12.22007       -0.53175
C         10.41470      -11.60862        0.19471
H         -0.54342        0.93472        0.00000
H          1.93260        0.93382       -0.01501
H         -1.76734       -1.21268        0.00047
H          3.16263       -1.19509        0.00785
H         -0.53593       -3.33924        0.01382
H          4.04996       -2.72267        0.25247
H          5.48637      -10.17124        0.65764
H         11.47304       -9.30845        1.94113
H          9.56211      -13.13459       -1.09418
H         11.41965      -11.98662        0.29802
$end

$opt
CONSTRAINT
tors 4 6 7 8 0.00000
tors 10 13 16 18 4.63242
tors 18 20 21 22 32.71647
ENDCONSTRAINT
$end
--------------------------------------------------------------

   16   -2579.8565107390      5.29E-09 Convergence criterion met
 Total energy in the final basis set = -2579.8565107390
   13   -2579.8578501744      3.93E-09 Convergence criterion met
 Total energy in the final basis set = -2579.8578501744
   12   -2579.8585546085      6.56E-09 Convergence criterion met
 Total energy in the final basis set = -2579.8585546085
   11   -2579.8586243608      8.78E-09 Convergence criterion met
 Total energy in the final basis set = -2579.8586243608
   10   -2579.8587174024      8.65E-09 Convergence criterion met
 Total energy in the final basis set = -2579.8587174024
   10   -2579.8587308684      7.14E-09 Convergence criterion met
 Total energy in the final basis set = -2579.8587308684
   11   -2579.8587394439      5.66E-09 Convergence criterion met
 Total energy in the final basis set = -2579.8587394439
    9   -2579.8587411054      6.25E-09 Convergence criterion met
 Total energy in the final basis set = -2579.8587411054
    9   -2579.8587423895      9.52E-09 Convergence criterion met
 Total energy in the final basis set = -2579.8587423895

             Standard Nuclear Orientation (Angstroms)
    I     Atom           X                Y                Z
 ----------------------------------------------------------------
    1      C       8.0427151361     1.6394608698     0.3624041763
    2      C       7.0217433956     2.5626130804     0.5299451472
    3      C       7.7180092720     0.3162604871     0.1259217021
    4      C       5.7004515623     2.1647550534     0.4591818430
    5      C       6.3933259062    -0.0856026481     0.0569748075
    6      C       5.3508154324     0.8295201847     0.2225918771
    7      C       3.9246196207     0.4220216518     0.1342178057
    8      C       2.9044651494     1.3295686214     0.2796117990
    9      C       3.4683132586    -0.9176025984    -0.0997609801
   10      N       1.5765525895     1.0787327904     0.2082598645
   11      N       4.2064152302    -2.0183367139    -0.2703490326
   12      C       2.0606464582    -1.1975849176    -0.1735512659
   13      C       1.1296730560    -0.1259040202    -0.0129575562
   14      S       3.1849419608    -3.2393653141    -0.4965543925
   15      N       1.7791507043    -2.4801958762    -0.3979444425
   16      C      -0.3216556037    -0.2828391613    -0.0891248069
   17      N      -0.9709567843    -1.3967326531    -0.2311415858
   18      S      -1.3237729427     1.1353584006    -0.0054920329
   19      C      -2.3075813846    -1.1771446261    -0.2932234946
   20      C      -2.7099170740     0.1280042942    -0.2010654902
   21      C      -4.0655142104     0.6323894453    -0.2194114775
   22      S      -4.4668792002     2.1897877276    -0.8574665099
   23      C      -5.2160671441     0.0100904349     0.1862944297
   24      C      -6.1376297287     2.0016459332    -0.5602470991
   25      S      -5.5731336864    -1.5277120221     0.9220697969
   26      C      -6.4007390295     0.7825688326    -0.0006863867
   27      C      -7.2752653666    -1.1206182825     0.9665132229
   28      C      -7.5738960004     0.0880230902     0.4644265074
   29      H       9.0768450435     1.9511973839     0.4161916419
   30      H       7.2529868892     3.6024109507     0.7171777788
   31      H       8.4989058108    -0.4191519468    -0.0121202759
   32      H       4.9427775444     2.9203447279     0.5983040677
   33      H       6.1704611885    -1.1217563093    -0.1309643493
   34      H       3.1253212008     2.3691169668     0.4674065303
   35      H      -2.9773075642    -2.0126350627    -0.4330568295
   36      H      -6.8269115632     2.7904326042    -0.8073723664
   37      H      -7.9643423096    -1.8406591654     1.3771666651
   38      H      -8.5748626211     0.4879808859     0.4206597679
 ----------------------------------------------------------------

    8   -2579.8587427039      9.42E-09 Convergence criterion met
 Total energy in the final basis set = -2579.8587427039
 Final energy is   -2579.85874270388
 **  OPTIMIZATION CONVERGED  **

                    Orbital Energies (a.u.)
 --------------------------------------------------------------

 Alpha MOs
 -- Occupied --
-89.150 -89.091 -89.087 -89.079 -14.486 -14.482 -14.454 -14.444
-10.364 -10.362 -10.361 -10.356 -10.343 -10.342 -10.336 -10.333
-10.330 -10.330 -10.327 -10.322 -10.315 -10.313 -10.305 -10.297
-10.294 -10.294 -10.292 -10.289  -8.161  -8.105  -8.102  -8.093
 -6.111  -6.105  -6.105  -6.055  -6.051  -6.051  -6.048  -6.047
 -6.045  -6.043  -6.039  -6.035  -1.147  -1.087  -1.065  -1.023
 -1.011  -0.972  -0.959  -0.924  -0.920  -0.900  -0.877  -0.860
 -0.853  -0.833  -0.829  -0.803  -0.776  -0.747  -0.734  -0.713
 -0.703  -0.693  -0.691  -0.661  -0.652  -0.636  -0.625  -0.617
 -0.606  -0.598  -0.572  -0.564  -0.556  -0.551  -0.534  -0.532
 -0.530  -0.527  -0.514  -0.511  -0.507  -0.502  -0.497  -0.491
 -0.478  -0.476  -0.473  -0.455  -0.453  -0.440  -0.436  -0.434
 -0.433  -0.424  -0.419  -0.394  -0.392  -0.379  -0.368  -0.364
 -0.361  -0.353  -0.339  -0.337  -0.324  -0.301  -0.271

          Ground-State Mulliken Net Atomic Charges

     Atom                 Charge (a.u.)
  ----------------------------------------
      1 C                    -0.116728
      2 C                    -0.123161
      3 C                    -0.131497
      4 C                    -0.128758
      5 C                    -0.130739
      6 C                     0.106623
      7 C                     0.045468
      8 C                    -0.111717
      9 C                     0.054770
     10 N                    -0.181492
     11 N                    -0.296850
     12 C                    -0.014212
     13 C                     0.106877
     14 S                     0.405723
     15 N                    -0.219505
     16 C                    -0.006222
     17 N                    -0.137711
     18 S                     0.120921
     19 C                    -0.144956
     20 C                    -0.015054
     21 C                     0.004318
     22 S                     0.134513
     23 C                    -0.053387
     24 C                    -0.220563
     25 S                     0.057603
     26 C                     0.043981
     27 C                    -0.146025
     28 C                    -0.172037
     29 H                     0.118350
     30 H                     0.113441
     31 H                     0.114576
     32 H                     0.117579
     33 H                     0.135142
     34 H                     0.134252
     35 H                     0.145741
     36 H                     0.130002
     37 H                     0.132886
     38 H                     0.127844
  ----------------------------------------
  Sum of atomic charges =     0.000000

                    Cartesian Multipole Moments
 -----------------------------------------------------------------
    Charge (ESU x 10^10)
                 0.0000
    Dipole Moment (Debye)
         X      -0.9591      Y       0.8663      Z       0.0186
       Tot       1.2925
    Quadrupole Moments (Debye-Ang)
        XX    -140.2559     XY      -1.3149     YY    -174.6083
        XZ      -0.9626     YZ      -0.7932     ZZ    -190.0906

 Total job time:  7707.75s(wall), 115934.02s(cpu)
        *  Thank you very much for using Q-Chem.  Have a nice day.  *
