 Q-Chem 4.4, Q-Chem, Inc., Pleasanton, CA (2016)
 Q-Chem 4.4.2 for Intel X86 Linux

User input:
--------------------------------------------------------------
$comment
OPTIMIZATION
$end

$rem
JOBTYPE OPT
EXCHANGE omegaB97X-D
BASIS cc-pVTZ
$end

$molecule
0 1
C          0.00000        0.00000        0.00000
C          1.38599        0.00000        0.00000
C         -0.68515       -1.20581        0.00000
C          2.08055       -1.19709        0.02226
C          0.00742       -2.40411        0.01179
C          1.40063       -2.41271        0.04151
C          2.15950       -3.67324        0.15696
C          2.18923       -4.37377        1.33168
C          2.89504       -4.25671       -0.91154
N          2.84984       -5.53733        1.54229
N          3.02609       -3.77861       -2.15080
C          3.60447       -5.48349       -0.70163
C          3.54216       -6.10009        0.59001
S          3.96469       -4.82715       -2.93423
N          4.25358       -5.90951       -1.78560
C          4.20558       -7.36036        0.92474
N          5.00688       -8.03439        0.16088
S          3.92783       -8.06542        2.49049
C          5.43845       -9.16074        0.78273
C          4.96833       -9.36947        2.05072
C          5.29804      -10.45685        2.94607
S          4.18545      -11.05746        4.12976
C          6.46067      -11.17264        3.02705
C          5.28231      -12.22637        4.72265
S          7.99123      -11.10072        2.19471
C          6.46445      -12.17937        4.03728
C          8.60440      -12.39693        3.20173
C          7.72782      -12.86832        4.10212
H         -0.54342        0.93472        0.00000
H          1.93260        0.93382       -0.01501
H         -1.76734       -1.21268        0.00047
H          3.16263       -1.19509        0.00785
H         -0.53593       -3.33924        0.01382
H          1.62811       -4.00412        2.18049
H          6.10137       -9.83709        0.26348
H          5.00835      -12.87083        5.53925
H          9.62172      -12.71916        3.04966
H          7.95973      -13.65724        4.80019
$end

$opt
CONSTRAINT
tors 4 6 7 8 105.00000
tors 10 13 16 18 4.63242
tors 18 20 21 22 32.71647
ENDCONSTRAINT
$end
--------------------------------------------------------------

   16   -2579.8593195597      4.41E-09 Convergence criterion met
 Total energy in the final basis set = -2579.8593195597
   12   -2579.8598074719      5.20E-09 Convergence criterion met
 Total energy in the final basis set = -2579.8598074719
   12   -2579.8599488497      3.93E-09 Convergence criterion met
 Total energy in the final basis set = -2579.8599488497
   10   -2579.8599661916      7.59E-09 Convergence criterion met
 Total energy in the final basis set = -2579.8599661916
   10   -2579.8599755359      6.38E-09 Convergence criterion met
 Total energy in the final basis set = -2579.8599755359

             Standard Nuclear Orientation (Angstroms)
    I     Atom           X                Y                Z
 ----------------------------------------------------------------
    1      C      -8.0205895173     1.5142262929    -0.5089209314
    2      C      -7.3995277201     0.7757931855    -1.5053997147
    3      C      -7.3011846077     1.9023099122     0.6098022941
    4      C      -6.0662873815     0.4234120724    -1.3820604851
    5      C      -5.9652893592     1.5535101306     0.7321870518
    6      C      -5.3391740068     0.8067580051    -0.2595925278
    7      C      -3.9038073737     0.4620823695    -0.1394320751
    8      C      -2.9125608258     1.3826169627    -0.3169707232
    9      C      -3.4640990006    -0.8602857974     0.1387718671
   10      N      -1.5808151068     1.1303256633    -0.2283534040
   11      N      -4.2350698475    -1.9315072431     0.3382633110
   12      C      -2.0652782143    -1.1428876519     0.2404773364
   13      C      -1.1392973342    -0.0668182809     0.0436985202
   14      S      -3.2270490652    -3.1543358035     0.6241635640
   15      N      -1.8039591608    -2.4209037311     0.5177699735
   16      C       0.3133480035    -0.2250163609     0.1206470921
   17      N       0.9551151974    -1.3350752668     0.3144933014
   18      S       1.3234168188     1.1812038970    -0.0283396592
   19      C       2.2935389716    -1.1217778287     0.3637324970
   20      C       2.7039829489     0.1747877240     0.2092918981
   21      C       4.0639323378     0.6673869667     0.1866426061
   22      S       4.4875570219     2.2535923519     0.7329422920
   23      C       5.2042923869     0.0107724886    -0.1930449441
   24      C       6.1529998993     2.0319117041     0.4287431964
   25      S       5.5395933198    -1.5730113390    -0.8363948885
   26      C       6.3984215697     0.7801624639    -0.0623713287
   27      C       7.2451885162    -1.1874685458    -0.9187793729
   28      C       7.5603781379     0.0463791708    -0.4942719684
   29      H      -9.0628744559     1.7856616197    -0.6063475814
   30      H      -7.9552613859     0.4735654079    -2.3825569042
   31      H      -7.7802196746     2.4763017491     1.3911424710
   32      H      -5.5815789777    -0.1521105714    -2.1592369517
   33      H      -5.4022734409     1.8556580339     1.6053852695
   34      H      -3.1693323917     2.4086183460    -0.5487442261
   35      H       2.9586138283    -1.9541081781     0.5395829828
   36      H       6.8527825353     2.8251425265     0.6274847410
   37      H       7.9242374439    -1.9388351668    -1.2878068835
   38      H       8.5659332354     0.4368600278    -0.4811722566
 ----------------------------------------------------------------

    9   -2579.8599762655      5.72E-09 Convergence criterion met
 Total energy in the final basis set = -2579.8599762655
 Final energy is   -2579.85997626548
 **  OPTIMIZATION CONVERGED  **

                    Orbital Energies (a.u.)
 --------------------------------------------------------------

 Alpha MOs
 -- Occupied --
-89.148 -89.090 -89.086 -89.078 -14.484 -14.480 -14.453 -14.443
-10.365 -10.362 -10.356 -10.355 -10.343 -10.342 -10.335 -10.333
-10.330 -10.327 -10.323 -10.322 -10.313 -10.311 -10.305 -10.297
-10.296 -10.295 -10.295 -10.294  -8.158  -8.105  -8.102  -8.093
 -6.108  -6.103  -6.102  -6.055  -6.051  -6.050  -6.048  -6.047
 -6.045  -6.043  -6.039  -6.035  -1.145  -1.086  -1.064  -1.023
 -1.009  -0.974  -0.959  -0.924  -0.920  -0.898  -0.876  -0.860
 -0.855  -0.833  -0.828  -0.802  -0.774  -0.742  -0.734  -0.711
 -0.707  -0.693  -0.691  -0.660  -0.651  -0.637  -0.627  -0.614
 -0.606  -0.597  -0.571  -0.563  -0.556  -0.549  -0.544  -0.531
 -0.530  -0.523  -0.514  -0.514  -0.507  -0.504  -0.498  -0.484
 -0.477  -0.476  -0.466  -0.455  -0.447  -0.440  -0.437  -0.434
 -0.426  -0.423  -0.421  -0.399  -0.393  -0.370  -0.369  -0.361
 -0.355  -0.353  -0.339  -0.336  -0.325  -0.312  -0.273

          Ground-State Mulliken Net Atomic Charges

     Atom                 Charge (a.u.)
  ----------------------------------------
      1 C                    -0.124172
      2 C                    -0.103015
      3 C                    -0.102760
      4 C                    -0.106188
      5 C                    -0.126040
      6 C                     0.070470
      7 C                    -0.041168
      8 C                    -0.079901
      9 C                     0.046703
     10 N                    -0.172365
     11 N                    -0.267544
     12 C                    -0.011058
     13 C                     0.109401
     14 S                     0.411421
     15 N                    -0.223094
     16 C                    -0.008982
     17 N                    -0.136466
     18 S                     0.121448
     19 C                    -0.146443
     20 C                    -0.015453
     21 C                     0.005288
     22 S                     0.134188
     23 C                    -0.053344
     24 C                    -0.221025
     25 S                     0.057392
     26 C                     0.044312
     27 C                    -0.146434
     28 C                    -0.172051
     29 H                     0.117895
     30 H                     0.116270
     31 H                     0.116611
     32 H                     0.116621
     33 H                     0.122835
     34 H                     0.130327
     35 H                     0.145522
     36 H                     0.129996
     37 H                     0.132809
     38 H                     0.127990
  ----------------------------------------
  Sum of atomic charges =     0.000000

                    Cartesian Multipole Moments
 -----------------------------------------------------------------
    Charge (ESU x 10^10)
                 0.0000
    Dipole Moment (Debye)
         X       0.8556      Y       0.9458      Z      -0.1761
       Tot       1.2875
    Quadrupole Moments (Debye-Ang)
        XX    -140.3250     XY      -0.9818     YY    -179.8509
        XZ       0.2248     YZ       4.8339     ZZ    -184.2176

 Total job time:  4769.84s(wall), 71544.39s(cpu)
        *  Thank you very much for using Q-Chem.  Have a nice day.  *
