 Q-Chem 4.4, Q-Chem, Inc., Pleasanton, CA (2016)
 Q-Chem 4.4.2 for Intel X86 Linux

User input:
--------------------------------------------------------------
$comment
OPTIMIZATION
$end

$rem
JOBTYPE OPT
EXCHANGE omegaB97X-D
BASIS cc-pVTZ
$end

$molecule
0 1
C          0.00000        0.00000        0.00000
C          1.38599        0.00000        0.00000
C         -0.68515       -1.20581        0.00000
C          2.08055       -1.19709        0.02226
C          0.00742       -2.40411        0.01179
C          1.40063       -2.41271        0.04151
C          2.15950       -3.67324        0.15696
C          1.86735       -4.74792       -0.63758
C          3.23320       -3.87177        1.06849
N          2.50129       -5.94467       -0.61399
N          3.71418       -2.98907        1.94657
C          3.90851       -5.13455        1.10967
C          3.48546       -6.16875        0.21308
S          4.91110       -3.73948        2.72015
N          4.88727       -5.18000        2.01398
C          4.10506       -7.49233        0.14463
N          5.03081       -7.94972        0.92800
S          3.58235       -8.60130       -1.08938
C          5.38204       -9.21332        0.57936
C          4.72091       -9.75123       -0.49113
C          4.86856      -11.08069       -1.04205
S          4.61583      -11.42577       -2.72037
C          5.21335      -12.23734       -0.39869
C          4.94886      -13.09206       -2.53725
S          5.56827      -12.64511        1.25912
C          5.25807      -13.38891       -1.23892
C          5.76247      -14.32710        0.80810
C          5.58391      -14.58033       -0.49778
H         -0.54342        0.93472        0.00000
H          1.93260        0.93382       -0.01501
H         -1.76734       -1.21268        0.00047
H          3.16263       -1.19509        0.00785
H         -0.53593       -3.33924        0.01382
H          1.08018       -4.65969       -1.37553
H          6.15761       -9.72376        1.13115
H          4.89066      -13.75858       -3.37962
H          5.99468      -15.03687        1.58539
H          5.65886      -15.56701       -0.92712
$end

$opt
CONSTRAINT
tors 4 6 7 8 -135.00000
tors 10 13 16 18 4.63242
tors 18 20 21 22 32.71647
ENDCONSTRAINT
$end
--------------------------------------------------------------

   16   -2579.8615073119      4.71E-09 Convergence criterion met
 Total energy in the final basis set = -2579.8615073119
   11   -2579.8621709153      8.99E-09 Convergence criterion met
 Total energy in the final basis set = -2579.8621709153
   12   -2579.8624134668      5.57E-09 Convergence criterion met
 Total energy in the final basis set = -2579.8624134668
   11   -2579.8624544172      5.87E-09 Convergence criterion met
 Total energy in the final basis set = -2579.8624544172
   11   -2579.8624721822      5.26E-09 Convergence criterion met
 Total energy in the final basis set = -2579.8624721822
   10   -2579.8624791132      7.09E-09 Convergence criterion met
 Total energy in the final basis set = -2579.8624791132
   10   -2579.8624820258      6.95E-09 Convergence criterion met
 Total energy in the final basis set = -2579.8624820258
    9   -2579.8624831222      8.97E-09 Convergence criterion met
 Total energy in the final basis set = -2579.8624831222

             Standard Nuclear Orientation (Angstroms)
    I     Atom           X                Y                Z
 ----------------------------------------------------------------
    1      C      -8.0121724442    -1.5870871694     0.3657187680
    2      C      -7.6005620622    -0.6821505354    -0.6011187139
    3      C      -7.0899445512    -2.0937454764     1.2675450101
    4      C      -6.2763163825    -0.2858093117    -0.6692070096
    5      C      -5.7636987072    -1.7005909057     1.1992665087
    6      C      -5.3395214947    -0.7952102871     0.2284294987
    7      C      -3.9150721115    -0.4222051707     0.1359640056
    8      C      -2.9177074536    -1.3529695915     0.2381537279
    9      C      -3.4694801279     0.9133934043    -0.0810642097
   10      N      -1.5879018038    -1.0999703498     0.1644449224
   11      N      -4.2301837184     2.0029035790    -0.2103419813
   12      C      -2.0680419435     1.1958388608    -0.1655077754
   13      C      -1.1427428933     0.1109096199    -0.0315389867
   14      S      -3.2161024618     3.2352607186    -0.4238987737
   15      N      -1.7993616202     2.4866616417    -0.3636174582
   16      C       0.3093870058     0.2688404362    -0.1057273912
   17      N       0.9564702814     1.3867543714    -0.2216207515
   18      S       1.3135682436    -1.1490389298    -0.0537291796
   19      C       2.2938990864     1.1712018637    -0.2868456446
   20      C       2.6984411939    -0.1347689706    -0.2228980887
   21      C       4.0552448567    -0.6359851598    -0.2454073570
   22      S       4.4634061075    -2.1791237948    -0.9126538215
   23      C       5.2018258966    -0.0210783569     0.1822097325
   24      C       6.1315600947    -1.9958321607    -0.5980405102
   25      S       5.5509810858     1.5004227225     0.9547638669
   26      C       6.3889039902    -0.7882359389    -0.0115404631
   27      C       7.2531126370     1.0941524237     1.0044020466
   28      C       7.5573336660    -0.1029893565     0.4786237992
   29      H      -9.0481610420    -1.8929235626     0.4184980509
   30      H      -8.3148720388    -0.2843172597    -1.3088760552
   31      H      -7.4018450963    -2.7935298364     2.0306337694
   32      H      -5.9662327178     0.4216859772    -1.4241168450
   33      H      -5.0511125391    -2.0823239854     1.9184407326
   34      H      -3.1725106423    -2.3957467483     0.3792989698
   35      H       2.9616681653     2.0113653472    -0.4065493276
   36      H       6.8234587811    -2.7790992091    -0.8551786295
   37      H       7.9376798051     1.8055294643     1.4370996807
   38      H       8.5590709054    -0.5009996458     0.4346741090
 ----------------------------------------------------------------

    9   -2579.8624835087      4.12E-09 Convergence criterion met
 Total energy in the final basis set = -2579.8624835087
 Final energy is   -2579.86248350873
 **  OPTIMIZATION CONVERGED  **

                    Orbital Energies (a.u.)
 --------------------------------------------------------------

 Alpha MOs
 -- Occupied --
-89.149 -89.090 -89.086 -89.078 -14.485 -14.481 -14.454 -14.443
-10.365 -10.362 -10.357 -10.355 -10.343 -10.342 -10.335 -10.333
-10.330 -10.327 -10.325 -10.322 -10.313 -10.312 -10.305 -10.297
-10.296 -10.295 -10.295 -10.294  -8.159  -8.105  -8.101  -8.093
 -6.109  -6.104  -6.103  -6.054  -6.051  -6.050  -6.048  -6.047
 -6.044  -6.043  -6.039  -6.035  -1.146  -1.086  -1.064  -1.023
 -1.010  -0.974  -0.959  -0.925  -0.919  -0.899  -0.876  -0.860
 -0.855  -0.833  -0.828  -0.802  -0.775  -0.745  -0.734  -0.712
 -0.705  -0.693  -0.691  -0.660  -0.651  -0.637  -0.626  -0.615
 -0.606  -0.598  -0.572  -0.564  -0.556  -0.548  -0.541  -0.531
 -0.530  -0.525  -0.514  -0.513  -0.507  -0.504  -0.498  -0.487
 -0.478  -0.475  -0.469  -0.455  -0.449  -0.440  -0.436  -0.433
 -0.430  -0.423  -0.421  -0.399  -0.393  -0.375  -0.367  -0.362
 -0.359  -0.353  -0.339  -0.338  -0.324  -0.306  -0.272

          Ground-State Mulliken Net Atomic Charges

     Atom                 Charge (a.u.)
  ----------------------------------------
      1 C                    -0.124434
      2 C                    -0.110619
      3 C                    -0.109650
      4 C                    -0.120928
      5 C                    -0.152650
      6 C                     0.124500
      7 C                     0.016343
      8 C                    -0.110629
      9 C                     0.036415
     10 N                    -0.174483
     11 N                    -0.284333
     12 C                    -0.013221
     13 C                     0.109400
     14 S                     0.412474
     15 N                    -0.222373
     16 C                    -0.008872
     17 N                    -0.137394
     18 S                     0.120720
     19 C                    -0.145783
     20 C                    -0.015588
     21 C                     0.004410
     22 S                     0.134500
     23 C                    -0.052974
     24 C                    -0.220673
     25 S                     0.057439
     26 C                     0.043959
     27 C                    -0.146079
     28 C                    -0.172291
     29 H                     0.117989
     30 H                     0.115662
     31 H                     0.115124
     32 H                     0.114144
     33 H                     0.127753
     34 H                     0.135657
     35 H                     0.145864
     36 H                     0.129935
     37 H                     0.132887
     38 H                     0.127801
  ----------------------------------------
  Sum of atomic charges =     0.000000

                    Cartesian Multipole Moments
 -----------------------------------------------------------------
    Charge (ESU x 10^10)
                 0.0000
    Dipole Moment (Debye)
         X       0.7838      Y      -0.9467      Z       0.0223
       Tot       1.2292
    Quadrupole Moments (Debye-Ang)
        XX    -139.7559     XY       0.0385     YY    -179.1632
        XZ       2.1220     YZ      -1.2624     ZZ    -185.3363

 Total job time:  6893.93s(wall), 103572.95s(cpu)
        *  Thank you very much for using Q-Chem.  Have a nice day.  *
