 Q-Chem 4.4, Q-Chem, Inc., Pleasanton, CA (2016)
 Q-Chem 4.4.2 for Intel X86 Linux

User input:
--------------------------------------------------------------
$comment
OPTIMIZATION
$end

$rem
JOBTYPE OPT
EXCHANGE omegaB97X-D
BASIS cc-pVTZ
$end

$molecule
0 1
C          0.00000        0.00000        0.00000
C          1.38599        0.00000        0.00000
C         -0.68515       -1.20581        0.00000
C          2.08055       -1.19709        0.02226
C          0.00742       -2.40411        0.01179
C          1.40063       -2.41271        0.04151
C          2.15950       -3.67324        0.15696
C          2.70811       -4.05979        1.34910
C          2.37200       -4.57275       -0.92418
N          3.41764       -5.19363        1.56268
N          1.94480       -4.43234       -2.18089
C          3.12649       -5.77247       -0.71498
C          3.64104       -6.04011        0.59500
S          2.47280       -5.72921       -2.97681
N          3.25128       -6.51562       -1.81497
C          4.40868       -7.23663        0.94071
N          4.81398       -8.15426        0.12001
S          4.84930       -7.50040        2.60267
C          5.49414       -9.12776        0.77674
C          5.62279       -8.96823        2.12966
C          6.32865       -9.82631        3.05606
S          5.84943      -10.00245        4.71107
C          7.42584      -10.60996        2.82646
C          7.11764      -11.08931        5.07349
S          8.44420      -10.89710        1.44044
C          7.88596      -11.32988        3.96842
C          9.45799      -11.95651        2.39967
C          9.06645      -12.10152        3.67520
H         -0.54342        0.93472        0.00000
H          1.93260        0.93382       -0.01501
H         -1.76734       -1.21268        0.00047
H          3.16263       -1.19509        0.00785
H         -0.53593       -3.33924        0.01382
H          2.56206       -3.43794        2.22315
H          5.88053       -9.97338        0.22706
H          7.23651      -11.48095        6.06833
H         10.31564      -12.40445        1.92462
H          9.59294      -12.71134        4.39243
$end

$opt
CONSTRAINT
tors 4 6 7 8 75.00000
tors 10 13 16 18 4.63242
tors 18 20 21 22 32.71647
ENDCONSTRAINT
$end
--------------------------------------------------------------

   16   -2579.8591492178      4.43E-09 Convergence criterion met
 Total energy in the final basis set = -2579.8591492178
   12   -2579.8596539603      5.58E-09 Convergence criterion met
 Total energy in the final basis set = -2579.8596539603
   12   -2579.8599373367      8.72E-09 Convergence criterion met
 Total energy in the final basis set = -2579.8599373367
   10   -2579.8599737350      7.91E-09 Convergence criterion met
 Total energy in the final basis set = -2579.8599737350
   11   -2579.8599948142      5.77E-09 Convergence criterion met
 Total energy in the final basis set = -2579.8599948142
    9   -2579.8599967557      6.73E-09 Convergence criterion met
 Total energy in the final basis set = -2579.8599967557
    9   -2579.8599979463      6.97E-09 Convergence criterion met
 Total energy in the final basis set = -2579.8599979463

             Standard Nuclear Orientation (Angstroms)
    I     Atom           X                Y                Z
 ----------------------------------------------------------------
    1      C      -8.0365703746     1.4892126395    -0.4253327034
    2      C      -7.2541595702     1.4749130033    -1.5686891937
    3      C      -7.4689860979     1.1814003506     0.8021788336
    4      C      -5.9073225843     1.1568236791    -1.4858482698
    5      C      -6.1242680287     0.8626000550     0.8856110663
    6      C      -5.3296174245     0.8605854316    -0.2565080290
    7      C      -3.8950686535     0.5024177612    -0.1694765500
    8      C      -2.8989162989     1.4276361808    -0.2848255019
    9      C      -3.4646450417    -0.8261527845     0.0936632350
   10      N      -1.5689404044     1.1664108121    -0.1952628348
   11      N      -4.2418547593    -1.8980295695     0.2626473045
   12      C      -2.0678447714    -1.1177392492     0.1995779484
   13      C      -1.1351526568    -0.0416650610     0.0382154108
   14      S      -3.2418134859    -3.1315054876     0.5311546753
   15      N      -1.8145712629    -2.4028462151     0.4500616290
   16      C       0.3161116250    -0.2102074678     0.1190971419
   17      N       0.9509403260    -1.3306996185     0.2704912667
   18      S       1.3348500179     1.1947415702     0.0252720503
   19      C       2.2905015553    -1.1274801460     0.3306687116
   20      C       2.7089509554     0.1715390527     0.2269904912
   21      C       4.0718519319     0.6564296681     0.2279542976
   22      S       4.5034047525     2.2170390706     0.8378150250
   23      C       5.2089473090     0.0096970327    -0.1776597302
   24      C       6.1681027594     1.9983152250     0.5275179190
   25      S       5.5355159987    -1.5460977860    -0.8896518244
   26      C       6.4071466608     0.7664747222    -0.0144055636
   27      C       7.2431845002    -1.1664584919    -0.9559791747
   28      C       7.5651491712     0.0458772029    -0.4778665178
   29      H      -9.0876464721     1.7352391529    -0.4909987465
   30      H      -7.6925019236     1.7073497444    -2.5296049083
   31      H      -8.0746305395     1.1864301574     1.6980443779
   32      H      -5.2981293897     1.1377020380    -2.3798003289
   33      H      -5.6839242126     0.6127682566     1.8416226074
   34      H      -3.1497395479     2.4648229934    -0.4682707816
   35      H       2.9496275681    -1.9704109918     0.4757274239
   36      H       6.8715031046     2.7802439878     0.7560121138
   37      H       7.9176638411    -1.9040297489    -1.3596360329
   38      H       8.5726520808     0.4305069210    -0.4493193918
 ----------------------------------------------------------------

    8   -2579.8599981902      7.02E-09 Convergence criterion met
 Total energy in the final basis set = -2579.8599981902
 Final energy is   -2579.85999819019
 **  OPTIMIZATION CONVERGED  **

                    Orbital Energies (a.u.)
 --------------------------------------------------------------

 Alpha MOs
 -- Occupied --
-89.148 -89.090 -89.086 -89.078 -14.484 -14.480 -14.453 -14.443
-10.365 -10.362 -10.356 -10.355 -10.343 -10.342 -10.335 -10.333
-10.330 -10.327 -10.323 -10.322 -10.313 -10.310 -10.305 -10.297
-10.296 -10.295 -10.295 -10.294  -8.158  -8.105  -8.102  -8.093
 -6.108  -6.103  -6.102  -6.055  -6.051  -6.050  -6.048  -6.047
 -6.045  -6.043  -6.039  -6.035  -1.145  -1.086  -1.064  -1.023
 -1.009  -0.974  -0.959  -0.924  -0.919  -0.898  -0.876  -0.860
 -0.855  -0.833  -0.828  -0.802  -0.774  -0.742  -0.734  -0.710
 -0.707  -0.693  -0.691  -0.660  -0.651  -0.637  -0.627  -0.614
 -0.606  -0.597  -0.571  -0.563  -0.556  -0.549  -0.543  -0.531
 -0.530  -0.523  -0.514  -0.514  -0.507  -0.504  -0.498  -0.484
 -0.477  -0.475  -0.466  -0.455  -0.447  -0.441  -0.437  -0.434
 -0.427  -0.423  -0.421  -0.399  -0.393  -0.371  -0.368  -0.361
 -0.355  -0.353  -0.339  -0.336  -0.325  -0.312  -0.273

          Ground-State Mulliken Net Atomic Charges

     Atom                 Charge (a.u.)
  ----------------------------------------
      1 C                    -0.123935
      2 C                    -0.103447
      3 C                    -0.102516
      4 C                    -0.123431
      5 C                    -0.108452
      6 C                     0.067447
      7 C                    -0.036350
      8 C                    -0.080280
      9 C                     0.044557
     10 N                    -0.172642
     11 N                    -0.267116
     12 C                    -0.010483
     13 C                     0.109465
     14 S                     0.411401
     15 N                    -0.223161
     16 C                    -0.009195
     17 N                    -0.136573
     18 S                     0.121222
     19 C                    -0.146379
     20 C                    -0.015418
     21 C                     0.004626
     22 S                     0.134313
     23 C                    -0.052963
     24 C                    -0.220525
     25 S                     0.057444
     26 C                     0.044058
     27 C                    -0.146394
     28 C                    -0.172322
     29 H                     0.118006
     30 H                     0.117309
     31 H                     0.115585
     32 H                     0.122390
     33 H                     0.117065
     34 H                     0.130094
     35 H                     0.145761
     36 H                     0.129903
     37 H                     0.132940
     38 H                     0.127997
  ----------------------------------------
  Sum of atomic charges =     0.000000

                    Cartesian Multipole Moments
 -----------------------------------------------------------------
    Charge (ESU x 10^10)
                 0.0000
    Dipole Moment (Debye)
         X       0.8391      Y       0.9070      Z      -0.0734
       Tot       1.2378
    Quadrupole Moments (Debye-Ang)
        XX    -140.0241     XY      -0.7723     YY    -181.7457
        XZ      -1.3615     YZ       1.0979     ZZ    -182.5548

 Total job time:  6089.65s(wall), 91424.25s(cpu)
        *  Thank you very much for using Q-Chem.  Have a nice day.  *
