 Q-Chem 4.4, Q-Chem, Inc., Pleasanton, CA (2016)
 Q-Chem 4.4.2 for Intel X86 Linux

User input:
--------------------------------------------------------------
$comment
OPTIMIZATION
$end

$rem
JOBTYPE OPT
EXCHANGE omegaB97X-D
BASIS cc-pVTZ
$end

$molecule
0 1
C          0.00000        0.00000        0.00000
C          1.38599        0.00000        0.00000
C         -0.68515       -1.20581        0.00000
C          2.08055       -1.19709        0.02226
C          0.00742       -2.40411        0.01179
C          1.40063       -2.41271        0.04151
C          2.15950       -3.67324        0.15696
C          1.51987       -4.88237        0.17849
C          3.57768       -3.73996        0.24341
N          2.11949       -6.09279        0.27837
N          4.43096       -2.71359        0.24285
C          4.22542       -5.01274        0.35656
C          3.41729       -6.19563        0.36775
S          5.90133       -3.35859        0.37000
N          5.55344       -4.92352        0.43546
C          3.95829       -7.55185        0.45946
N          5.20045       -7.87380        0.64186
S          2.86970       -8.90134        0.31912
C          5.35398       -9.22183        0.67088
C          4.21561       -9.96378        0.50962
C          4.08971      -11.40459        0.54103
S          2.88335      -12.25322       -0.36685
C          4.84114      -12.31169        1.23612
C          3.37955      -13.78575        0.20422
S          6.17023      -12.18212        2.35741
C          4.44331      -13.66929        1.05524
C          6.16820      -13.92172        2.56716
C          5.24263      -14.57129        1.84419
H         -0.54342        0.93472        0.00000
H          1.93260        0.93382       -0.01501
H         -1.76734       -1.21268        0.00047
H          3.16263       -1.19509        0.00785
H         -0.53593       -3.33924        0.01382
H          0.44146       -4.91020        0.08767
H          6.33963       -9.64466        0.79838
H          2.86409      -14.67854       -0.10309
H          6.88102      -14.35056        3.25264
H          5.10941      -15.64128        1.87350
$end

$opt
CONSTRAINT
tors 4 6 7 8 180.00000
tors 10 13 16 18 4.63242
tors 18 20 21 22 32.71647
ENDCONSTRAINT
$end
--------------------------------------------------------------

   16   -2579.8559096422      5.34E-09 Convergence criterion met
 Total energy in the final basis set = -2579.8559096422
   13   -2579.8552372744      5.89E-09 Convergence criterion met
 Total energy in the final basis set = -2579.8552372744
   13   -2579.8582812770      5.20E-09 Convergence criterion met
 Total energy in the final basis set = -2579.8582812770
   12   -2579.8585257205      6.35E-09 Convergence criterion met
 Total energy in the final basis set = -2579.8585257205
   11   -2579.8587060943      5.27E-09 Convergence criterion met
 Total energy in the final basis set = -2579.8587060943
   10   -2579.8587258700      8.91E-09 Convergence criterion met
 Total energy in the final basis set = -2579.8587258700
   11   -2579.8587395420      7.68E-09 Convergence criterion met
 Total energy in the final basis set = -2579.8587395420
    9   -2579.8587417401      8.90E-09 Convergence criterion met
 Total energy in the final basis set = -2579.8587417401
    9   -2579.8587439300      9.99E-09 Convergence criterion met
 Total energy in the final basis set = -2579.8587439300

             Standard Nuclear Orientation (Angstroms)
    I     Atom           X                Y                Z
 ----------------------------------------------------------------
    1      C       8.0448374861    -1.6215089028    -0.3979696320
    2      C       7.7188749408    -0.2985075308    -0.1621268698
    3      C       7.0247349944    -2.5472633104    -0.5562705915
    4      C       6.3937994932     0.1002836583    -0.0832068160
    5      C       5.7031118318    -2.1524596462    -0.4756332923
    6      C       5.3522335805    -0.8183201479    -0.2347173178
    7      C       3.9256538946    -0.4119672357    -0.1471097263
    8      C       2.9063529589    -1.3197771866    -0.2969488414
    9      C       3.4681523998     0.9256380693     0.0956380454
   10      N       1.5782115201    -1.0706258687    -0.2244267183
   11      N       4.2052224749     2.0256985257     0.2747594733
   12      C       2.0601738077     1.2037965664     0.1710543567
   13      C       1.1301818284     0.1322764336     0.0039021891
   14      S       3.1826234829     3.2441379160     0.5093319946
   15      N       1.7775017200     2.4845158841     0.4046302257
   16      C      -0.3213057480     0.2870263723     0.0815844208
   17      N      -0.9720887095     1.3991280200     0.2308197255
   18      S      -1.3214304444    -1.1320550463    -0.0097955678
   19      C      -2.3083410232     1.1771848905     0.2928635044
   20      C      -2.7088396829    -0.1280052031     0.1933860825
   21      C      -4.0635613571    -0.6347836043     0.2103999961
   22      S      -4.4612065401    -2.1966830428     0.8398595738
   23      C      -5.2159339641    -0.0118551981    -0.1891048781
   24      C      -6.1328352543    -2.0094183623     0.5470922420
   25      S      -5.5770462593     1.5302355580    -0.9138456432
   26      C      -6.3989905127    -0.7873776335    -0.0045088133
   27      C      -7.2786373565     1.1207559351    -0.9572439513
   28      C      -7.5742499650    -0.0916370290    -0.4624776801
   29      H       9.0792320650    -1.9310567475    -0.4586988733
   30      H       8.4990933012     0.4393155148    -0.0334029267
   31      H       7.2569602690    -3.5865604847    -0.7450945336
   32      H       6.1699380040     1.1365368137     0.1030608296
   33      H       4.9462371823    -2.9099213894    -0.6087545574
   34      H       3.1281948330    -2.3579956466    -0.4907780272
   35      H      -2.9792665442     2.0107390232     0.4383790220
   36      H      -6.8204211151    -2.8006873079     0.7909973031
   37      H      -7.9698178809     1.8425096678    -1.3612990229
   38      H      -8.5744908301    -0.4934404811    -0.4190301686
 ----------------------------------------------------------------

    9   -2579.8587447721      9.02E-09 Convergence criterion met
 Total energy in the final basis set = -2579.8587447721
 Final energy is   -2579.85874477209
 **  OPTIMIZATION CONVERGED  **

                    Orbital Energies (a.u.)
 --------------------------------------------------------------

 Alpha MOs
 -- Occupied --
-89.150 -89.091 -89.087 -89.079 -14.486 -14.482 -14.454 -14.444
-10.364 -10.362 -10.361 -10.356 -10.343 -10.342 -10.336 -10.333
-10.330 -10.330 -10.327 -10.322 -10.315 -10.313 -10.305 -10.297
-10.294 -10.294 -10.292 -10.289  -8.161  -8.105  -8.102  -8.093
 -6.111  -6.105  -6.105  -6.055  -6.051  -6.051  -6.048  -6.047
 -6.045  -6.043  -6.039  -6.035  -1.147  -1.087  -1.065  -1.023
 -1.011  -0.972  -0.959  -0.924  -0.920  -0.900  -0.877  -0.860
 -0.853  -0.833  -0.829  -0.803  -0.776  -0.747  -0.734  -0.713
 -0.703  -0.693  -0.691  -0.661  -0.652  -0.636  -0.625  -0.617
 -0.606  -0.598  -0.572  -0.564  -0.556  -0.551  -0.534  -0.532
 -0.530  -0.527  -0.514  -0.511  -0.507  -0.502  -0.497  -0.491
 -0.478  -0.476  -0.473  -0.455  -0.453  -0.440  -0.436  -0.434
 -0.433  -0.424  -0.419  -0.394  -0.392  -0.379  -0.368  -0.364
 -0.361  -0.353  -0.339  -0.337  -0.324  -0.301  -0.271

          Ground-State Mulliken Net Atomic Charges

     Atom                 Charge (a.u.)
  ----------------------------------------
      1 C                    -0.116714
      2 C                    -0.131646
      3 C                    -0.123129
      4 C                    -0.130705
      5 C                    -0.128753
      6 C                     0.106444
      7 C                     0.045657
      8 C                    -0.111745
      9 C                     0.054630
     10 N                    -0.181444
     11 N                    -0.296828
     12 C                    -0.014267
     13 C                     0.106848
     14 S                     0.405735
     15 N                    -0.219504
     16 C                    -0.006217
     17 N                    -0.137739
     18 S                     0.120953
     19 C                    -0.144906
     20 C                    -0.014987
     21 C                     0.004394
     22 S                     0.134509
     23 C                    -0.053531
     24 C                    -0.220631
     25 S                     0.057601
     26 C                     0.044021
     27 C                    -0.146023
     28 C                    -0.171964
     29 H                     0.118342
     30 H                     0.114668
     31 H                     0.113410
     32 H                     0.135233
     33 H                     0.117657
     34 H                     0.134251
     35 H                     0.145681
     36 H                     0.130015
     37 H                     0.132859
     38 H                     0.127828
  ----------------------------------------
  Sum of atomic charges =     0.000000

                    Cartesian Multipole Moments
 -----------------------------------------------------------------
    Charge (ESU x 10^10)
                 0.0000
    Dipole Moment (Debye)
         X      -0.9582      Y      -0.8670      Z      -0.0263
       Tot       1.2925
    Quadrupole Moments (Debye-Ang)
        XX    -140.2498     XY       1.3661     YY    -174.5843
        XZ       0.8058     YZ      -0.7397     ZZ    -190.1235

 Total job time:  7985.12s(wall), 120004.74s(cpu)
        *  Thank you very much for using Q-Chem.  Have a nice day.  *
