 Q-Chem 4.4, Q-Chem, Inc., Pleasanton, CA (2016)
 Q-Chem 4.4.2 for Intel X86 Linux

User input:
--------------------------------------------------------------
$comment
OPTIMIZATION
$end

$rem
JOBTYPE OPT
EXCHANGE omegaB97X-D
BASIS cc-pVTZ
$end

$molecule
0 1
C          0.00000        0.00000        0.00000
C          1.38599        0.00000        0.00000
C         -0.68515       -1.20581        0.00000
C          2.08055       -1.19709        0.02226
C          0.00742       -2.40411        0.01179
C          1.40063       -2.41271        0.04151
C          2.15950       -3.67324        0.15696
C          2.85531       -4.17785       -0.90738
C          2.23944       -4.44431        1.34952
N          3.58298       -5.32028       -0.90679
N          1.65805       -4.17438        2.52027
C          2.99957       -5.65854        1.36319
C          3.67443       -6.05941        0.16474
S          2.07372       -5.37536        3.50974
N          2.98070       -6.27936        2.54304
C          4.49571       -7.26527        0.05588
N          4.64871       -8.17637        0.96493
S          5.37184       -7.55415       -1.41883
C          5.48470       -9.15550        0.53593
C          5.99157       -9.00781       -0.72647
C          6.86333       -9.91613       -1.43904
S          8.01037       -9.37273       -2.61749
C          6.95072      -11.27667       -1.32984
C          8.56792      -10.95187       -2.95867
S          6.09938      -12.47679       -0.39416
C          7.91447      -11.87704       -2.19287
C          7.02998      -13.74486       -1.16632
C          7.92951      -13.31159       -2.06321
H         -0.54342        0.93472        0.00000
H          1.93260        0.93382       -0.01501
H         -1.76734       -1.21268        0.00047
H          3.16263       -1.19509        0.00785
H         -0.53593       -3.33924        0.01382
H          2.86332       -3.62876       -1.84034
H          5.72462       -9.97881        1.19253
H          9.32878      -11.11615       -3.70120
H          6.82141      -14.76599       -0.89121
H          8.56934      -13.97066       -2.62867
$end

$opt
CONSTRAINT
tors 4 6 7 8 -75.00000
tors 10 13 16 18 4.63242
tors 18 20 21 22 32.71647
ENDCONSTRAINT
$end
--------------------------------------------------------------

   16   -2579.8591252766      4.42E-09 Convergence criterion met
 Total energy in the final basis set = -2579.8591252766
   11   -2579.8597763992      9.64E-09 Convergence criterion met
 Total energy in the final basis set = -2579.8597763992
   11   -2579.8599406383      8.93E-09 Convergence criterion met
 Total energy in the final basis set = -2579.8599406383
   10   -2579.8599573911      7.31E-09 Convergence criterion met
 Total energy in the final basis set = -2579.8599573911
   10   -2579.8599657844      9.12E-09 Convergence criterion met
 Total energy in the final basis set = -2579.8599657844

             Standard Nuclear Orientation (Angstroms)
    I     Atom           X                Y                Z
 ----------------------------------------------------------------
    1      C      -8.0415578081    -1.4408485594     0.4812860441
    2      C      -7.3203253192    -1.8500787632    -0.6286240865
    3      C      -7.4132497967    -0.7138329593     1.4816692571
    4      C      -5.9740321162    -1.5379753389    -0.7361287804
    5      C      -6.0696622925    -0.3980200911     1.3730565267
    6      C      -5.3365345567    -0.8172728159     0.2674945598
    7      C      -3.9011711373    -0.4739778943     0.1423383009
    8      C      -2.9080509066    -1.3911165835     0.3261183136
    9      C      -3.4646509746     0.8453677599    -0.1550395892
   10      N      -1.5767407744    -1.1376472235     0.2324137906
   11      N      -4.2377600316     1.9122940601    -0.3682832073
   12      C      -2.0664994188     1.1286059562    -0.2642678874
   13      C      -1.1380596570     0.0570280040    -0.0544068517
   14      S      -3.2324779425     3.1323205395    -0.6748770220
   15      N      -1.8079376798     2.4027714393    -0.5610953674
   16      C       0.3142677050     0.2181950791    -0.1317598403
   17      N       0.9530780951     1.3278470947    -0.3373563767
   18      S       1.3282167647    -1.1830096194     0.0362642151
   19      C       2.2922328881     1.1180907805    -0.3811287466
   20      C       2.7062692055    -0.1752571566    -0.2102525954
   21      C       4.0676938531    -0.6632200535    -0.1779716218
   22      S       4.4978411472    -2.2547181435    -0.7034370401
   23      C       5.2048806546     0.0015370029     0.1970695570
   24      C       6.1616140566    -2.0241789708    -0.3966753024
   25      S       5.5333734163     1.5942667278     0.8215749264
   26      C       6.4017411689    -0.7657550099     0.0797256280
   27      C       7.2398520490     1.2150615795     0.9139970235
   28      C       7.5601073123    -0.0230618629     0.5060398515
   29      H      -9.0918621595    -1.6838627848     0.5670994389
   30      H      -7.8065775089    -2.4088562738    -1.4165138943
   31      H      -7.9721651522    -0.3886684345     2.3485046590
   32      H      -5.4111294459    -1.8510215795    -1.6055490295
   33      H      -5.5808984594     0.1745618180     2.1498405554
   34      H      -3.1625812052    -2.4151381215     0.5688335522
   35      H       2.9551411923     1.9503163939    -0.5653985764
   36      H       6.8643612288    -2.8175689738    -0.5840621361
   37      H       7.9155612612     1.9730021944     1.2756085459
   38      H       8.5668892281    -0.4105554438     0.5009180812
 ----------------------------------------------------------------

    9   -2579.8599667396      4.51E-09 Convergence criterion met
 Total energy in the final basis set = -2579.8599667396
 Final energy is   -2579.85996673955
 **  OPTIMIZATION CONVERGED  **

                    Orbital Energies (a.u.)
 --------------------------------------------------------------

 Alpha MOs
 -- Occupied --
-89.148 -89.090 -89.086 -89.078 -14.484 -14.480 -14.453 -14.443
-10.365 -10.362 -10.356 -10.355 -10.343 -10.342 -10.335 -10.333
-10.330 -10.327 -10.323 -10.322 -10.313 -10.310 -10.305 -10.297
-10.296 -10.295 -10.295 -10.294  -8.158  -8.105  -8.102  -8.093
 -6.108  -6.103  -6.102  -6.055  -6.051  -6.050  -6.048  -6.047
 -6.045  -6.043  -6.039  -6.035  -1.145  -1.086  -1.064  -1.023
 -1.009  -0.974  -0.959  -0.924  -0.919  -0.898  -0.876  -0.860
 -0.855  -0.833  -0.828  -0.802  -0.774  -0.742  -0.734  -0.710
 -0.707  -0.693  -0.691  -0.660  -0.651  -0.637  -0.627  -0.614
 -0.606  -0.597  -0.571  -0.563  -0.556  -0.549  -0.544  -0.531
 -0.530  -0.523  -0.514  -0.514  -0.507  -0.504  -0.498  -0.484
 -0.477  -0.476  -0.466  -0.455  -0.447  -0.440  -0.437  -0.434
 -0.426  -0.423  -0.421  -0.399  -0.393  -0.370  -0.369  -0.361
 -0.355  -0.353  -0.339  -0.336  -0.325  -0.313  -0.273

          Ground-State Mulliken Net Atomic Charges

     Atom                 Charge (a.u.)
  ----------------------------------------
      1 C                    -0.124256
      2 C                    -0.102657
      3 C                    -0.102507
      4 C                    -0.122850
      5 C                    -0.106396
      6 C                     0.066628
      7 C                    -0.039332
      8 C                    -0.080021
      9 C                     0.046296
     10 N                    -0.172431
     11 N                    -0.267155
     12 C                    -0.010727
     13 C                     0.109213
     14 S                     0.411420
     15 N                    -0.223073
     16 C                    -0.008912
     17 N                    -0.136475
     18 S                     0.121523
     19 C                    -0.146403
     20 C                    -0.015506
     21 C                     0.005285
     22 S                     0.134146
     23 C                    -0.053284
     24 C                    -0.221050
     25 S                     0.057408
     26 C                     0.044263
     27 C                    -0.146479
     28 C                    -0.172049
     29 H                     0.117892
     30 H                     0.116446
     31 H                     0.116248
     32 H                     0.122401
     33 H                     0.116239
     34 H                     0.129850
     35 H                     0.145418
     36 H                     0.130032
     37 H                     0.132816
     38 H                     0.128039
  ----------------------------------------
  Sum of atomic charges =     0.000000

                    Cartesian Multipole Moments
 -----------------------------------------------------------------
    Charge (ESU x 10^10)
                 0.0000
    Dipole Moment (Debye)
         X       0.8448      Y      -0.8950      Z       0.1717
       Tot       1.2427
    Quadrupole Moments (Debye-Ang)
        XX    -140.0701     XY       0.6606     YY    -179.9429
        XZ       0.0909     YZ       4.8243     ZZ    -184.3107

 Total job time:  4667.93s(wall), 70086.80s(cpu)
        *  Thank you very much for using Q-Chem.  Have a nice day.  *
