 Q-Chem 4.4, Q-Chem, Inc., Pleasanton, CA (2016)
 Q-Chem 4.4.2 for Intel X86 Linux

User input:
--------------------------------------------------------------
$comment
OPTIMIZATION
$end

$rem
JOBTYPE OPT
EXCHANGE omegaB97X-D
BASIS cc-pVTZ
$end

$molecule
0 1
C          0.00000        0.00000        0.00000
C          1.38599        0.00000        0.00000
C         -0.68515       -1.20581        0.00000
C          2.08055       -1.19709        0.02226
C          0.00742       -2.40411        0.01179
C          1.40063       -2.41271        0.04151
C          2.15950       -3.67324        0.15696
C          1.57375       -4.87752       -0.12267
C          3.52549       -3.74356        0.54720
N          2.17902       -6.08713       -0.05114
N          4.32137       -2.72206        0.87071
C          4.17695       -5.01649        0.63411
C          3.42828       -6.19426        0.31043
S          5.74966       -3.37056        1.23623
N          5.45122       -4.93177        1.01739
C          3.98332       -7.54755        0.34197
N          5.16561       -7.88465        0.75237
S          3.00036       -8.87134       -0.21228
C          5.35638       -9.22338        0.63823
C          4.30810       -9.94267        0.13216
C          4.22918      -11.37512       -0.05396
S          3.28240      -12.09940       -1.31043
C          4.84102      -12.36397        0.66608
C          3.69466      -13.69248       -0.84880
S          5.88590      -12.38035        2.06197
C          4.54070      -13.68668        0.22525
C          5.89910      -14.13232        2.03661
C          5.17842      -14.68293        1.04729
H         -0.54342        0.93472        0.00000
H          1.93260        0.93382       -0.01501
H         -1.76734       -1.21268        0.00047
H          3.16263       -1.19509        0.00785
H         -0.53593       -3.33924        0.01382
H          0.54330       -4.89850       -0.45392
H          6.30420       -9.65436        0.92533
H          3.29107      -14.53818       -1.37713
H          6.45856      -14.64623        2.80133
H          5.07978      -15.74773        0.90601
$end

$opt
CONSTRAINT
tors 4 6 7 8 -165.00000
tors 10 13 16 18 4.63242
tors 18 20 21 22 32.71647
ENDCONSTRAINT
$end
--------------------------------------------------------------

   16   -2579.8579477689      5.07E-09 Convergence criterion met
 Total energy in the final basis set = -2579.8579477689
   13   -2579.8584649193      4.26E-09 Convergence criterion met
 Total energy in the final basis set = -2579.8584649193
   12   -2579.8598656506      7.32E-09 Convergence criterion met
 Total energy in the final basis set = -2579.8598656506
   11   -2579.8600141379      5.84E-09 Convergence criterion met
 Total energy in the final basis set = -2579.8600141379
   10   -2579.8600723069      6.86E-09 Convergence criterion met
 Total energy in the final basis set = -2579.8600723069
   10   -2579.8600919348      7.34E-09 Convergence criterion met
 Total energy in the final basis set = -2579.8600919348
    9   -2579.8600951014      7.83E-09 Convergence criterion met
 Total energy in the final basis set = -2579.8600951014
    9   -2579.8600967680      8.92E-09 Convergence criterion met
 Total energy in the final basis set = -2579.8600967680

             Standard Nuclear Orientation (Angstroms)
    I     Atom           X                Y                Z
 ----------------------------------------------------------------
    1      C       8.0071929261    -1.5912362233    -0.5882704065
    2      C       7.7099742643    -0.3669668271    -0.0150887756
    3      C       6.9701938372    -2.4319690416    -0.9619842452
    4      C       6.3941775162     0.0147073726     0.1910363748
    5      C       5.6566129876    -2.0527190843    -0.7584706962
    6      C       5.3382816682    -0.8287969366    -0.1604001544
    7      C       3.9220162498    -0.4353285675     0.0240863161
    8      C       2.9072987729    -1.3573623437    -0.0321210971
    9      C       3.4711152514     0.9124381877     0.1957976554
   10      N       1.5802686715    -1.1032813762     0.0451128748
   11      N       4.2163089483     2.0181399581     0.2767822349
   12      C       2.0662038782     1.1949755422     0.2865400666
   13      C       1.1355323035     0.1137808615     0.1927488921
   14      S       3.1988731306     3.2507109061     0.4601344107
   15      N       1.7901363734     2.4890734749     0.4430008936
   16      C      -0.3163815076     0.2789079305     0.2380267927
   17      N      -0.9629283247     1.4022299385     0.2857570567
   18      S      -1.3239790116    -1.1376071963     0.2176159851
   19      C      -2.3023672551     1.1928224246     0.3190049753
   20      C      -2.7096574521    -0.1137366937     0.2973816820
   21      C      -4.0681324673    -0.6110668100     0.2937996933
   22      S      -4.5052189798    -2.1244300046     1.0089891055
   23      C      -5.1941739303    -0.0189175785    -0.2130141787
   24      C      -6.1575132834    -1.9595464073     0.6106857799
   25      S      -5.5069283693     1.4613399060    -1.0761050759
   26      C      -6.3885080125    -0.7799147927    -0.0401851567
   27      C      -7.2040329257     1.0473215617    -1.1883566635
   28      C      -7.5324240483    -0.1234162683    -0.6194743282
   29      H       9.0351283122    -1.8833806846    -0.7538532670
   30      H       8.5062000780     0.3063610203     0.2714609619
   31      H       7.1827270012    -3.3838450855    -1.4292445958
   32      H       6.1884183565     0.9746149544     0.6347504229
   33      H       4.8744164727    -2.7152507864    -1.0987145467
   34      H       3.1395787930    -2.4082885555    -0.1293422335
   35      H      -2.9688740306     2.0402669746     0.3799777267
   36      H      -6.8598050830    -2.7327381921     0.8700875095
   37      H      -7.8658206099     1.7320128620    -1.6933232868
   38      H      -8.5344294544    -0.5229101024    -0.6062036031
 ----------------------------------------------------------------

    9   -2579.8600974307      6.69E-09 Convergence criterion met
 Total energy in the final basis set = -2579.8600974307
 Final energy is   -2579.86009743065
 **  OPTIMIZATION CONVERGED  **

                    Orbital Energies (a.u.)
 --------------------------------------------------------------

 Alpha MOs
 -- Occupied --
-89.150 -89.091 -89.087 -89.078 -14.486 -14.482 -14.454 -14.443
-10.364 -10.362 -10.360 -10.356 -10.343 -10.342 -10.335 -10.333
-10.330 -10.328 -10.327 -10.322 -10.314 -10.313 -10.305 -10.297
-10.295 -10.294 -10.293 -10.291  -8.160  -8.105  -8.102  -8.093
 -6.110  -6.105  -6.104  -6.055  -6.051  -6.051  -6.048  -6.047
 -6.045  -6.043  -6.039  -6.035  -1.147  -1.087  -1.065  -1.023
 -1.011  -0.973  -0.959  -0.925  -0.920  -0.900  -0.877  -0.860
 -0.854  -0.833  -0.829  -0.803  -0.776  -0.746  -0.734  -0.713
 -0.703  -0.693  -0.691  -0.661  -0.651  -0.636  -0.625  -0.616
 -0.606  -0.598  -0.572  -0.564  -0.556  -0.550  -0.536  -0.531
 -0.530  -0.526  -0.513  -0.512  -0.507  -0.503  -0.497  -0.490
 -0.478  -0.476  -0.472  -0.455  -0.452  -0.440  -0.437  -0.433
 -0.433  -0.423  -0.419  -0.394  -0.393  -0.378  -0.368  -0.363
 -0.361  -0.353  -0.339  -0.338  -0.324  -0.302  -0.271

          Ground-State Mulliken Net Atomic Charges

     Atom                 Charge (a.u.)
  ----------------------------------------
      1 C                    -0.119393
      2 C                    -0.121883
      3 C                    -0.119691
      4 C                    -0.125311
      5 C                    -0.131404
      6 C                     0.107886
      7 C                     0.026896
      8 C                    -0.116853
      9 C                     0.060006
     10 N                    -0.177317
     11 N                    -0.300122
     12 C                    -0.007958
     13 C                     0.111168
     14 S                     0.409547
     15 N                    -0.220978
     16 C                    -0.007707
     17 N                    -0.137863
     18 S                     0.120806
     19 C                    -0.145427
     20 C                    -0.016265
     21 C                     0.004357
     22 S                     0.134109
     23 C                    -0.051379
     24 C                    -0.220183
     25 S                     0.057510
     26 C                     0.043439
     27 C                    -0.145568
     28 C                    -0.172379
     29 H                     0.117847
     30 H                     0.115102
     31 H                     0.115024
     32 H                     0.125154
     33 H                     0.118471
     34 H                     0.134106
     35 H                     0.145862
     36 H                     0.129848
     37 H                     0.132685
     38 H                     0.127859
  ----------------------------------------
  Sum of atomic charges =     0.000000

                    Cartesian Multipole Moments
 -----------------------------------------------------------------
    Charge (ESU x 10^10)
                 0.0000
    Dipole Moment (Debye)
         X      -0.8812      Y      -0.8594      Z      -0.2804
       Tot       1.2624
    Quadrupole Moments (Debye-Ang)
        XX    -140.3080     XY       1.8070     YY    -176.2645
        XZ       1.3705     YZ       0.3991     ZZ    -188.3203

 Total job time:  6981.09s(wall), 104896.40s(cpu)
        *  Thank you very much for using Q-Chem.  Have a nice day.  *
