 Q-Chem 4.4, Q-Chem, Inc., Pleasanton, CA (2016)
 Q-Chem 4.4.2 for Intel X86 Linux

User input:
--------------------------------------------------------------
$comment
OPTIMIZATION
$end

$rem
JOBTYPE OPT
EXCHANGE omegaB97X-D
BASIS cc-pVTZ
$end

$molecule
0 1
C          0.00000        0.00000        0.00000
C          1.38599        0.00000        0.00000
C         -0.68515       -1.20581        0.00000
C          2.08055       -1.19709        0.02226
C          0.00742       -2.40411        0.01179
C          1.40063       -2.41271        0.04151
C          2.15950       -3.67324        0.15696
C          1.53430       -4.84589        0.48195
C          3.56101       -3.77797       -0.06204
N          2.13472       -6.05320        0.61055
N          4.39820       -2.79118       -0.38897
C          4.21096       -5.04702        0.07727
C          3.41933       -6.18909        0.42572
S          5.85659       -3.46538       -0.50183
N          5.52372       -4.99507       -0.15033
C          3.96000       -7.53987        0.57906
N          5.20989       -7.87873        0.52597
S          2.86035       -8.85694        0.86528
C          5.35891       -9.21594        0.70275
C          4.20929       -9.93206        0.89746
C          4.08591      -11.35105        1.15050
S          2.70337      -12.26813        0.65325
C          4.96833      -12.18533        1.77975
C          3.30606      -13.72931        1.30342
S          6.51420      -11.95707        2.55355
C          4.53306      -13.54007        1.87616
C          6.54968      -13.65314        2.99212
C          5.48307      -14.35869        2.58489
H         -0.54342        0.93472        0.00000
H          1.93260        0.93382       -0.01501
H         -1.76734       -1.21268        0.00047
H          3.16263       -1.19509        0.00785
H         -0.53593       -3.33924        0.01382
H          0.46258       -4.84737        0.63489
H          6.34598       -9.65290        0.66663
H          2.73045      -14.63593        1.24061
H          7.39483      -14.01346        3.55583
H          5.35406      -15.41030        2.78731
$end

$opt
CONSTRAINT
tors 4 6 7 8 165.00000
tors 10 13 16 18 4.63242
tors 18 20 21 22 32.71647
ENDCONSTRAINT
$end
--------------------------------------------------------------

   16   -2579.8576769692      5.29E-09 Convergence criterion met
 Total energy in the final basis set = -2579.8576769692
   13   -2579.8581554369      5.19E-09 Convergence criterion met
 Total energy in the final basis set = -2579.8581554369
   12   -2579.8598476565      9.61E-09 Convergence criterion met
 Total energy in the final basis set = -2579.8598476565
   11   -2579.8600549136      9.76E-09 Convergence criterion met
 Total energy in the final basis set = -2579.8600549136
   11   -2579.8601499567      5.19E-09 Convergence criterion met
 Total energy in the final basis set = -2579.8601499567
   12   -2579.8602022681      4.11E-09 Convergence criterion met
 Total energy in the final basis set = -2579.8602022681
   11   -2579.8602134575      5.91E-09 Convergence criterion met
 Total energy in the final basis set = -2579.8602134575
   10   -2579.8602167761      5.50E-09 Convergence criterion met
 Total energy in the final basis set = -2579.8602167761

             Standard Nuclear Orientation (Angstroms)
    I     Atom           X                Y                Z
 ----------------------------------------------------------------
    1      C       8.0373998774    -1.5912500649    -0.4191907232
    2      C       7.6885807924    -0.2582438549    -0.5492292635
    3      C       7.0414243956    -2.5347280717    -0.2187282062
    4      C       6.3607728361     0.1321437838    -0.4877586296
    5      C       5.7156592374    -2.1476608702    -0.1590162223
    6      C       5.3433738838    -0.8079912374    -0.3125288331
    7      C       3.9184361332    -0.4121801359    -0.2243081587
    8      C       2.9068721777    -1.3298245076    -0.3564058849
    9      C       3.4645500166     0.9103904105     0.0827320238
   10      N       1.5793563107    -1.0897074772    -0.2463155872
   11      N       4.2083292108     1.9983496389     0.3018133597
   12      C       2.0598162645     1.1762585686     0.2133691060
   13      C       1.1320874744     0.1041812503     0.0289305705
   14      S       3.1893544547     3.1990734406     0.6288481344
   15      N       1.7819261271     2.4424263218     0.5223195049
   16      C      -0.3191337531     0.2557709314     0.1184478918
   17      N      -0.9672513675     1.3630862807     0.3090030609
   18      S      -1.3222866233    -1.1570305619    -0.0214938845
   19      C      -2.3038938537     1.1421518416     0.3634215482
   20      C      -2.7077102169    -0.1574459740     0.2158240184
   21      C      -4.0651090295    -0.6567355222     0.1958341638
   22      S      -4.4806887176    -2.2438690054     0.7456566362
   23      C      -5.2088986693    -0.0065758876    -0.1848878004
   24      C      -6.1473113450    -2.0311080218     0.4415491687
   25      S      -5.5522430451     1.5737571988    -0.8323808158
   26      C      -6.3990498845    -0.7817621202    -0.0525408233
   27      C      -7.2558407546     1.1793237540    -0.9140315724
   28      C      -7.5647153922    -0.0550515583    -0.4864234585
   29      H       9.0749186378    -1.8932888868    -0.4629185865
   30      H       8.4536429428     0.4909815201    -0.7005649891
   31      H       7.2969206234    -3.5780034177    -0.0924406895
   32      H       6.1141243068     1.1757963272    -0.5904534266
   33      H       4.9698611926    -2.9034243734     0.0388146541
   34      H       3.1392017396    -2.3552888421    -0.6059344943
   35      H      -2.9731962881     1.9714624870     0.5375117477
   36      H      -6.8430519516    -2.8276908895     0.6411000412
   37      H      -7.9384538464     1.9261587722    -1.2856977821
   38      H      -8.5680995970    -0.4510563112    -0.4731913004
 ----------------------------------------------------------------

    9   -2579.8602175744      4.12E-09 Convergence criterion met
 Total energy in the final basis set = -2579.8602175744
 Final energy is   -2579.86021757444
 **  OPTIMIZATION CONVERGED  **

                    Orbital Energies (a.u.)
 --------------------------------------------------------------

 Alpha MOs
 -- Occupied --
-89.150 -89.091 -89.087 -89.078 -14.486 -14.482 -14.454 -14.443
-10.364 -10.362 -10.360 -10.356 -10.343 -10.342 -10.335 -10.333
-10.330 -10.328 -10.327 -10.322 -10.314 -10.313 -10.305 -10.297
-10.295 -10.294 -10.293 -10.291  -8.160  -8.105  -8.102  -8.093
 -6.110  -6.105  -6.104  -6.055  -6.051  -6.051  -6.048  -6.047
 -6.045  -6.043  -6.039  -6.035  -1.147  -1.087  -1.065  -1.023
 -1.010  -0.973  -0.959  -0.925  -0.920  -0.900  -0.877  -0.860
 -0.854  -0.833  -0.829  -0.803  -0.776  -0.746  -0.734  -0.713
 -0.703  -0.693  -0.691  -0.661  -0.651  -0.636  -0.625  -0.616
 -0.606  -0.598  -0.572  -0.564  -0.556  -0.550  -0.536  -0.532
 -0.530  -0.526  -0.514  -0.512  -0.507  -0.502  -0.498  -0.489
 -0.478  -0.476  -0.472  -0.455  -0.452  -0.440  -0.436  -0.434
 -0.432  -0.424  -0.419  -0.394  -0.393  -0.377  -0.368  -0.363
 -0.361  -0.353  -0.339  -0.338  -0.324  -0.302  -0.271

          Ground-State Mulliken Net Atomic Charges

     Atom                 Charge (a.u.)
  ----------------------------------------
      1 C                    -0.119682
      2 C                    -0.121114
      3 C                    -0.120872
      4 C                    -0.125302
      5 C                    -0.129527
      6 C                     0.109268
      7 C                     0.026006
      8 C                    -0.115667
      9 C                     0.059191
     10 N                    -0.177536
     11 N                    -0.300294
     12 C                    -0.007988
     13 C                     0.111551
     14 S                     0.410012
     15 N                    -0.221209
     16 C                    -0.007705
     17 N                    -0.137323
     18 S                     0.121035
     19 C                    -0.146311
     20 C                    -0.015240
     21 C                     0.005502
     22 S                     0.134120
     23 C                    -0.053297
     24 C                    -0.220961
     25 S                     0.057429
     26 C                     0.044264
     27 C                    -0.146408
     28 C                    -0.171937
     29 H                     0.118315
     30 H                     0.114618
     31 H                     0.115143
     32 H                     0.124885
     33 H                     0.117030
     34 H                     0.133656
     35 H                     0.145554
     36 H                     0.130030
     37 H                     0.132812
     38 H                     0.127952
  ----------------------------------------
  Sum of atomic charges =     0.000000

                    Cartesian Multipole Moments
 -----------------------------------------------------------------
    Charge (ESU x 10^10)
                 0.0000
    Dipole Moment (Debye)
         X      -0.8961      Y      -0.8524      Z      -0.0521
       Tot       1.2379
    Quadrupole Moments (Debye-Ang)
        XX    -139.7844     XY       1.1121     YY    -174.3895
        XZ       0.7961     YZ      -2.7518     ZZ    -190.3655

 Total job time:  7337.42s(wall), 110243.87s(cpu)
        *  Thank you very much for using Q-Chem.  Have a nice day.  *
