 Q-Chem 4.4, Q-Chem, Inc., Pleasanton, CA (2016)
 Q-Chem 4.4.2 for Intel X86 Linux

User input:
--------------------------------------------------------------
$comment
OPTIMIZATION
$end

$rem
JOBTYPE OPT
EXCHANGE omegaB97X-D
BASIS cc-pVTZ
$end

$molecule
0 1
C          0.00000        0.00000        0.00000
C          1.38599        0.00000        0.00000
C         -0.68515       -1.20581        0.00000
C          2.08055       -1.19709        0.02226
C          0.00742       -2.40411        0.01179
C          1.40063       -2.41271        0.04151
C          2.15950       -3.67324        0.15696
C          3.35228       -3.71996        0.82532
C          1.72649       -4.91251       -0.39064
N          4.12357       -4.82100        0.99101
N          0.60725       -5.13696       -1.08234
C          2.53518       -6.08398       -0.22942
C          3.76507       -5.97441        0.49707
S          0.62651       -6.70203       -1.46232
N          2.01028       -7.16963       -0.79835
C          4.66791       -7.09839        0.74604
N          4.54784       -8.30021        0.27585
S          6.05624       -6.85056        1.76435
C          5.55719       -9.09576        0.71165
C          6.47945       -8.50710        1.53342
C          7.66654       -9.10834        2.10095
S          8.32250       -8.61301        3.62544
C          8.44342      -10.11070        1.58874
C          9.62031       -9.72236        3.54783
S          8.41002      -11.03924        0.11318
C          9.56032      -10.46537        2.40165
C          9.87367      -11.87120        0.59878
C         10.36250      -11.49389        1.79042
H         -0.54342        0.93472        0.00000
H          1.93260        0.93382       -0.01501
H         -1.76734       -1.21268        0.00047
H          3.16263       -1.19509        0.00785
H         -0.53593       -3.33924        0.01382
H          3.73027       -2.81982        1.29314
H          5.58387      -10.13456        0.41718
H         10.35483       -9.76259        4.33274
H         10.28688      -12.60483       -0.07421
H         11.26187      -11.90550        2.22075
$end

$opt
CONSTRAINT
tors 4 6 7 8 30.00000
tors 10 13 16 18 4.63242
tors 18 20 21 22 32.71647
ENDCONSTRAINT
$end
--------------------------------------------------------------

   16   -2579.8616485257      4.77E-09 Convergence criterion met
 Total energy in the final basis set = -2579.8616485257
   12   -2579.8619883833      5.79E-09 Convergence criterion met
 Total energy in the final basis set = -2579.8619883833
   11   -2579.8620635124      4.43E-09 Convergence criterion met
 Total energy in the final basis set = -2579.8620635124
   10   -2579.8620873035      8.18E-09 Convergence criterion met
 Total energy in the final basis set = -2579.8620873035
    9   -2579.8620930363      8.27E-09 Convergence criterion met
 Total energy in the final basis set = -2579.8620930363
    9   -2579.8620957370      6.21E-09 Convergence criterion met
 Total energy in the final basis set = -2579.8620957370

             Standard Nuclear Orientation (Angstroms)
    I     Atom           X                Y                Z
 ----------------------------------------------------------------
    1      C       7.9999546601     1.6385945296     0.4322313970
    2      C       7.0021412967     2.3189695626     1.1125420972
    3      C       7.6660867642     0.5507432493    -0.3587354473
    4      C       5.6834818191     1.9155955970     0.9989774961
    5      C       6.3475880323     0.1441736394    -0.4724752432
    6      C       5.3338523701     0.8208450165     0.2065186986
    7      C       3.9152943638     0.4403900277     0.0536414924
    8      C       2.9091865828     1.3680480111     0.1166433680
    9      C       3.4700703389    -0.9046104768    -0.1206589695
   10      N       1.5815941770     1.1113498780     0.0371652151
   11      N       4.2267389740    -2.0022419573    -0.1974163691
   12      C       2.0683386360    -1.1905763994    -0.2111170577
   13      C       1.1390083534    -0.1060284219    -0.1182917009
   14      S       3.2140731287    -3.2404630813    -0.3778608566
   15      N       1.7994108846    -2.4871873704    -0.3639125442
   16      C      -0.3127225919    -0.2706602428    -0.1797548896
   17      N      -0.9578235252    -1.3939924576    -0.2426109144
   18      S      -1.3209371371     1.1453200497    -0.1669462573
   19      C      -2.2968235629    -1.1849425029    -0.2947943082
   20      C      -2.7047930562     0.1213483830    -0.2732481128
   21      C      -4.0633470638     0.6181504200    -0.2925960787
   22      S      -4.4877618708     2.1328931546    -1.0123985122
   23      C      -5.1987498348     0.0229110652     0.1890125245
   24      C      -6.1477169055     1.9643733872    -0.6493546131
   25      S      -5.5272956627    -1.4611107107     1.0397108507
   26      C      -6.3904412749     0.7824814850    -0.0068762205
   27      C      -7.2272466001    -1.0504348471     1.1167164258
   28      C      -7.5453887233     0.1218597410     0.5451720171
   29      H       9.0313183749     1.9509098077     0.5230396340
   30      H       7.2510670429     3.1612552300     1.7434446958
   31      H       8.4368653455     0.0144594060    -0.8951863143
   32      H       4.9209375958     2.4383253942     1.5598936733
   33      H       6.1024624398    -0.7016223753    -1.0959014910
   34      H       3.1533033071     2.4170357846     0.2204256434
   35      H      -2.9625161562    -2.0318675103    -0.3704975080
   36      H      -6.8457087878     2.7371780510    -0.9212154666
   37      H      -7.8989340452    -1.7389526825     1.6031149175
   38      H      -8.5477808458     0.5191821140     0.5111503186
 ----------------------------------------------------------------

    8   -2579.8620961751      8.59E-09 Convergence criterion met
 Total energy in the final basis set = -2579.8620961751
 Final energy is   -2579.86209617513
 **  OPTIMIZATION CONVERGED  **

                    Orbital Energies (a.u.)
 --------------------------------------------------------------

 Alpha MOs
 -- Occupied --
-89.149 -89.090 -89.086 -89.078 -14.485 -14.482 -14.454 -14.443
-10.364 -10.362 -10.358 -10.356 -10.343 -10.342 -10.335 -10.333
-10.330 -10.327 -10.326 -10.322 -10.313 -10.313 -10.305 -10.297
-10.295 -10.295 -10.294 -10.294  -8.160  -8.105  -8.102  -8.093
 -6.110  -6.104  -6.104  -6.054  -6.051  -6.050  -6.048  -6.047
 -6.045  -6.043  -6.039  -6.035  -1.146  -1.086  -1.065  -1.023
 -1.010  -0.974  -0.959  -0.925  -0.919  -0.899  -0.877  -0.860
 -0.855  -0.833  -0.828  -0.802  -0.775  -0.746  -0.734  -0.713
 -0.704  -0.693  -0.691  -0.660  -0.651  -0.636  -0.626  -0.615
 -0.606  -0.598  -0.572  -0.564  -0.556  -0.549  -0.539  -0.531
 -0.530  -0.525  -0.513  -0.513  -0.507  -0.504  -0.497  -0.488
 -0.478  -0.476  -0.471  -0.455  -0.451  -0.440  -0.436  -0.433
 -0.432  -0.423  -0.420  -0.397  -0.393  -0.376  -0.367  -0.362
 -0.360  -0.353  -0.339  -0.338  -0.324  -0.304  -0.272

          Ground-State Mulliken Net Atomic Charges

     Atom                 Charge (a.u.)
  ----------------------------------------
      1 C                    -0.123496
      2 C                    -0.113704
      3 C                    -0.113551
      4 C                    -0.145297
      5 C                    -0.121030
      6 C                     0.120747
      7 C                     0.018443
      8 C                    -0.116328
      9 C                     0.050391
     10 N                    -0.175333
     11 N                    -0.294899
     12 C                    -0.009206
     13 C                     0.110577
     14 S                     0.412348
     15 N                    -0.221875
     16 C                    -0.008254
     17 N                    -0.137794
     18 S                     0.120644
     19 C                    -0.145551
     20 C                    -0.016209
     21 C                     0.004191
     22 S                     0.134241
     23 C                    -0.051745
     24 C                    -0.220379
     25 S                     0.057436
     26 C                     0.043451
     27 C                    -0.145695
     28 C                    -0.172449
     29 H                     0.117803
     30 H                     0.115083
     31 H                     0.116084
     32 H                     0.124254
     33 H                     0.116081
     34 H                     0.134496
     35 H                     0.146050
     36 H                     0.129887
     37 H                     0.132785
     38 H                     0.127805
  ----------------------------------------
  Sum of atomic charges =     0.000000

                    Cartesian Multipole Moments
 -----------------------------------------------------------------
    Charge (ESU x 10^10)
                 0.0000
    Dipole Moment (Debye)
         X      -0.7919      Y       0.9288      Z       0.1258
       Tot       1.2271
    Quadrupole Moments (Debye-Ang)
        XX    -139.7673     XY      -0.7373     YY    -177.7992
        XZ      -2.2115     YZ       1.0471     ZZ    -186.7819

 Total job time:  5315.90s(wall), 79881.62s(cpu)
        *  Thank you very much for using Q-Chem.  Have a nice day.  *
