 Q-Chem 4.4, Q-Chem, Inc., Pleasanton, CA (2016)
 Q-Chem 4.4.2 for Intel X86 Linux

User input:
--------------------------------------------------------------
$comment
SP
$end

$rem
MEM_STATIC 5000
MEM_TOTAL 20000
JOBTYPE SP
EXCHANGE B3LYP
BASIS 6-31g(d,p)
$end

$molecule
0 1
C         -22.173000    -13.708000     -3.465000
C         -21.912000    -12.358000     -3.245000
N         -23.248000    -14.249000     -2.842000
C         -22.760000    -11.559000     -2.413000
C         -24.071000    -13.545000     -2.030000
C         -23.884000    -12.167000     -1.746000
C         -24.892000    -11.407000     -0.964000
C         -26.234000    -11.805000     -0.889000
C         -24.548000    -10.364000     -0.054000
N         -27.251000    -11.260000     -0.127000
N         -23.326000     -9.748000      0.107000
C         -25.555000     -9.708000      0.633000
C         -26.923000    -10.198000      0.617000
S         -23.590000     -8.622000      1.215000
N         -25.193000     -8.657000      1.413000
C         -27.999000     -9.427000      1.258000
S         -28.002000     -7.758000      1.709000
C         -29.104000    -10.018000      1.880000
C         -29.308000     -7.996000      2.830000
S         -29.484000    -11.723000      1.868000
C         -29.790000     -9.230000      2.694000
C         -29.731000     -6.973000      3.685000
C         -30.750000    -11.349000      3.057000
C         -30.718000     -9.991000      3.425000
N         -30.413000     -7.278000      4.755000
S         -29.349000     -5.280000      3.367000
C         -30.830000     -6.121000      5.370000
C         -30.260000     -4.967000      4.892000
C         -21.438000    -14.582000     -4.530000
H         -21.068000    -11.807000     -3.650000
H         -22.445000    -10.537000     -2.226000
H         -24.918000    -14.087000     -1.612000
H         -26.591000    -12.655000     -1.467000
H         -31.299000    -12.160000      3.517000
H         -31.271000     -9.634000      4.286000
H         -31.378000     -6.164000      6.302000
H         -30.481000     -3.947000      5.177000
H         -20.360000    -14.671000     -4.350000
C         -21.687000    -14.114000     -5.984000
H         -21.777000    -15.624000     -4.476000
H         -21.456000    -13.042000     -6.000000
H         -22.756000    -14.144000     -6.226000
C         -20.864000    -14.847000     -7.119000
H         -19.782000    -14.732000     -6.981000
C         -21.328000    -14.398000     -8.577000
H         -21.087000    -15.921000     -7.139000
H         -21.043000    -13.359000     -8.782000
H         -22.425000    -14.395000     -8.561000
C         -20.843000    -15.290000     -9.706000
H         -19.750000    -15.277000     -9.617000
C         -21.185000    -14.707000    -11.094000
H         -21.105000    -16.354000     -9.644000
H         -22.257000    -14.607000    -11.302000
H         -20.569000    -15.133000    -11.895000
H         -20.922000    -13.643000    -11.137000
C         -20.145000    -11.197000      2.382000
C         -20.293000    -12.104000      3.458000
N         -20.671000    -11.398000      1.151000
C         -21.101000    -13.218000      3.307000
C         -21.348000    -12.533000      0.966000
C         -21.624000    -13.507000      1.972000
C         -22.247000    -14.806000      1.595000
C         -23.313000    -15.277000      2.324000
C         -21.816000    -15.567000      0.530000
N         -23.891000    -16.462000      2.092000
N         -20.843000    -15.181000     -0.361000
C         -22.455000    -16.792000      0.221000
C         -23.507000    -17.293000      1.044000
S         -20.881000    -16.337000     -1.453000
N         -22.123000    -17.305000     -0.937000
C         -24.223000    -18.576000      0.816000
S         -23.935000    -19.839000     -0.448000
C         -25.086000    -19.210000      1.682000
C         -25.089000    -20.947000      0.247000
S         -25.457000    -18.745000      3.337000
C         -25.581000    -20.482000      1.412000
C         -25.412000    -22.207000     -0.424000
C         -26.582000    -20.142000      3.478000
C         -26.510000    -20.937000      2.389000
N         -26.330000    -23.006000      0.094000
S         -24.498000    -22.809000     -1.796000
C         -26.227000    -24.153000     -0.554000
C         -25.356000    -24.229000     -1.635000
C         -19.286000     -9.985000      2.611000
H         -19.979000    -11.855000      4.467000
H         -21.204000    -13.860000      4.177000
H         -21.836000    -12.734000      0.014000
H         -23.837000    -14.630000      3.027000
H         -27.074000    -20.312000      4.426000
H         -27.042000    -21.877000      2.309000
H         -26.927000    -24.912000     -0.231000
H         -25.143000    -25.066000     -2.287000
H         -19.142000     -9.792000      3.681000
C         -19.660000     -8.742000      1.787000
H         -18.262000    -10.173000      2.265000
H         -20.620000     -8.335000      2.127000
H         -19.724000     -8.919000      0.706000
C         -18.653000     -7.592000      2.123000
H         -18.876000     -6.691000      1.538000
C         -17.134000     -7.853000      1.857000
H         -18.666000     -7.315000      3.185000
H         -16.776000     -8.598000      2.579000
H         -16.661000     -6.880000      2.042000
C         -16.823000     -8.193000      0.302000
H         -17.284000     -9.169000      0.108000
C         -15.341000     -8.339000      0.000000
H         -17.151000     -7.515000     -0.496000
H         -14.741000     -7.487000      0.343000
H         -15.118000     -8.525000     -1.058000
H         -14.907000     -9.189000      0.541000
$end

--------------------------------------------------------------

             Standard Nuclear Orientation (Angstroms)
    I     Atom           X                Y                Z
 ----------------------------------------------------------------
    1      C       2.0483422698    -3.1666397346     1.8622192855
    2      C       0.8145709555    -3.8037811388     1.7579112077
    3      N       2.0577442325    -1.8115628840     1.8515735205
    4      C      -0.4053712527    -3.0597642176     1.6689796069
    5      C       0.9369131413    -1.0594335018     1.7499464697
    6      C      -0.3625657009    -1.6192270934     1.6381660001
    7      C      -1.5695803535    -0.7548261375     1.6715518653
    8      C      -1.5671349800     0.5079428970     2.2801579659
    9      C      -2.7422949880    -1.0236388619     0.9055459218
   10      N      -2.5747751615     1.4546352006     2.2999808536
   11      N      -3.0531199357    -2.1683309910     0.2043121652
   12      C      -3.8221702170    -0.1625932571     0.9994818374
   13      C      -3.7115137460     1.1155249974     1.6820863152
   14      S      -4.5196649280    -1.8934323074    -0.3778497531
   15      N      -4.9529230832    -0.5081673555     0.3316334278
   16      C      -4.8967848484     1.9657194762     1.8702345597
   17      S      -6.5643312812     1.5199206402     1.7726472033
   18      C      -4.8491815287     3.3639045936     1.8687175216
   19      C      -7.0579578467     3.1678987454     1.5288809656
   20      S      -3.3949588768     4.3299968353     1.8098001287
   21      C      -6.0128646439     3.9745357608     1.7040749236
   22      C      -8.3834842209     3.4949441778     1.2247360718
   23      C      -4.4563579925     5.7372805575     1.5876797955
   24      C      -5.8050076287     5.3474951475     1.4885662605
   25      N      -8.6444140668     4.6471414061     0.6702938633
   26      S      -9.7127439892     2.3815750756     1.5515000702
   27      C     -10.0071959269     4.8075396492     0.5816315514
   28      C     -10.7466885707     3.6821009392     0.8492849462
   29      C       3.3884462536    -3.8971323775     2.1921098902
   30      H       0.6638873372    -4.8787882519     1.7177097901
   31      H      -1.3173584701    -3.6266363437     1.5089380246
   32      H       1.0742280501     0.0203704830     1.7825803496
   33      H      -0.6867194923     0.8628424376     2.8120864246
   34      H      -4.0161130169     6.7033846006     1.3789950107
   35      H      -6.5616076156     6.0420467668     1.1425409611
   36      H     -10.4247344366     5.6871207399     0.1096403461
   37      H     -11.8232782111     3.5891119207     0.9019517151
   38      H       3.6739279128    -4.6419281563     1.4396575860
   39      C       3.4034882337    -4.5439811115     3.5979909144
   40      H       4.2296435865    -3.1934209147     2.1642132161
   41      H       2.4953061967    -5.1557988265     3.6586989972
   42      H       3.2493512178    -3.7880223038     4.3770885086
   43      C       4.6617737093    -5.4319402865     3.9600532923
   44      H       4.7779485217    -6.2789751766     3.2730101294
   45      C       4.6421805124    -5.9013134962     5.4838531140
   46      H       5.5861400530    -4.8421387788     3.9241918356
   47      H       3.8423138956    -6.6294954834     5.6647823511
   48      H       4.3624112515    -5.0183303001     6.0718529746
   49      C       5.9587345007    -6.4540871956     6.0002413724
   50      H       6.1868776152    -7.2922922849     5.3308371988
   51      C       5.8238846937    -7.0415655856     7.4215371441
   52      H       6.8361625621    -5.7996617981     5.9200453859
   53      H       5.5395647257    -6.3186336542     8.1954748538
   54      H       6.6379154899    -7.7321076793     7.6726117940
   55      H       4.9401635676    -7.6881321672     7.4855888948
   56      C      -1.7365610931    -3.1067623716    -3.6401652190
   57      C      -1.3221646148    -2.1428829002    -4.5896603078
   58      N      -1.2609637014    -3.1685429182    -2.3742946549
   59      C      -0.4612832455    -1.1295006444    -4.2041727313
   60      C      -0.3369322848    -2.2671413973    -2.0360340466
   61      C       0.1305562155    -1.2066033139    -2.8688614452
   62      C       1.2825775633    -0.3716230612    -2.4291868023
   63      C       1.1943213010     0.9971455526    -2.5204080393
   64      C       2.4450914608    -0.9033786270    -1.9144981038
   65      N       2.2043210469     1.8175796856    -2.2058903976
   66      N       2.6430756130    -2.2383386706    -1.6531746306
   67      C       3.5027247895    -0.0536063275    -1.5098676786
   68      C       3.4127451227     1.3585570858    -1.6907879749
   69      S       4.0565274487    -2.2527976293    -0.9236618846
   70      N       4.4481430694    -0.6457440240    -0.8243647795
   71      C       4.4759631815     2.3295064376    -1.3199056277
   72      S       6.1262264962     2.0179959964    -0.6450713983
   73      C       4.5384180754     3.6622843053    -1.6612024804
   74      C       6.6047985028     3.6911124551    -0.7636258169
   75      S       3.4557294988     4.5308755072    -2.7411218153
   76      C       5.6608369458     4.4331337496    -1.3750626307
   77      C       7.8969662593     4.1370441537    -0.2405413023
   78      C       4.3939265170     6.0415534965    -2.4677111942
   79      C       5.5066301713     5.7991386178    -1.7422764249
   80      N       8.2150373354     5.4198316668    -0.2928479617
   81      S       9.1407208697     3.0170366885     0.2875133795
   82      C       9.5023969949     5.4914690247    -0.0035467414
   83      C      10.1589547660     4.3324155232     0.3945799644
   84      C      -2.7004240476    -4.1637512223    -4.1016939554
   85      H      -1.8172892084    -2.0316082390    -5.5494246468
   86      H      -0.2048344549    -0.3992588613    -4.9661792640
   87      H       0.0520278616    -2.2321584933    -1.0199950705
   88      H       0.2366479093     1.4829300108    -2.7055272845
   89      H       4.0997611538     6.9334064289    -3.0041187687
   90      H       6.2538043695     6.5561070630    -1.5379397164
   91      H       9.9053310989     6.4954750317    -0.0086502403
   92      H      11.1941647247     4.1928827972     0.6772687684
   93      H      -3.2079110239    -3.8668588359    -5.0275432302
   94      C      -3.6350846677    -4.7271495069    -3.0186921558
   95      H      -2.1575773167    -5.0663007418    -4.4088710894
   96      H      -4.3583638769    -3.9642693050    -2.7060742053
   97      H      -3.1184989377    -5.0992679423    -2.1250182479
   98      C      -4.5429954660    -5.8293962854    -3.6591568477
   99      H      -5.2128157810    -6.2706287512    -2.9105517070
  100      C      -3.8390455847    -7.0625671278    -4.3148871567
  101      H      -5.1626669358    -5.4435554366    -4.4788373397
  102      H      -3.3242527323    -6.7279167545    -5.2245411826
  103      H      -4.6668565416    -7.7374527682    -4.5677535089
  104      C      -2.9188410385    -7.8865892129    -3.2639079959
  105      H      -2.0822445123    -7.2242217440    -3.0107112571
  106      C      -2.3158083744    -9.1516328842    -3.8511559126
  107      H      -3.3393661020    -8.2536095763    -2.3191716709
  108      H      -3.0569876382    -9.8086410696    -4.3229043023
  109      H      -1.7279470944    -9.7391535574    -3.1349662911
  110      H      -1.6248005994    -8.9190855903    -4.6708918524
 ----------------------------------------------------------------

   10   -5663.5095457287      4.10E-06 Convergence criterion met
 Total energy in the final basis set = -5663.5095457287

                    Orbital Energies (a.u.)
 --------------------------------------------------------------

 Alpha MOs
 -- Occupied --
-88.986 -88.977 -88.929 -88.922 -88.922 -88.918 -88.902 -88.895
-14.386 -14.381 -14.378 -14.376 -14.352 -14.344 -14.341 -14.339
-14.332 -14.328 -10.267 -10.264 -10.263 -10.263 -10.256 -10.253
-10.247 -10.245 -10.242 -10.240 -10.239 -10.237 -10.235 -10.232
-10.230 -10.229 -10.228 -10.228 -10.228 -10.228 -10.225 -10.225
-10.224 -10.222 -10.222 -10.220 -10.219 -10.217 -10.216 -10.212
-10.212 -10.210 -10.203 -10.201 -10.195 -10.193 -10.193 -10.192
-10.190 -10.188 -10.188 -10.185 -10.184 -10.181 -10.181 -10.181
-10.180 -10.178 -10.173 -10.168  -8.042  -8.033  -7.992  -7.983
 -7.982  -7.977  -7.962  -7.955  -6.007  -6.001  -6.000  -5.998
 -5.992  -5.991  -5.955  -5.952  -5.949  -5.947  -5.946  -5.944
 -5.943  -5.942  -5.940  -5.939  -5.938  -5.934  -5.927  -5.923
 -5.919  -5.919  -5.916  -5.911  -1.044  -1.037  -0.987  -0.972
 -0.954  -0.942  -0.935  -0.934  -0.926  -0.913  -0.907  -0.906
 -0.847  -0.839  -0.834  -0.827  -0.827  -0.805  -0.803  -0.801
 -0.798  -0.797  -0.793  -0.792  -0.784  -0.776  -0.768  -0.762
 -0.752  -0.743  -0.741  -0.734  -0.723  -0.720  -0.708  -0.708
 -0.693  -0.689  -0.671  -0.666  -0.653  -0.651  -0.646  -0.638
 -0.636  -0.629  -0.622  -0.618  -0.613  -0.611  -0.596  -0.596
 -0.591  -0.589  -0.587  -0.585  -0.582  -0.580  -0.577  -0.556
 -0.552  -0.549  -0.534  -0.533  -0.526  -0.522  -0.514  -0.508
 -0.507  -0.505  -0.499  -0.492  -0.487  -0.481  -0.476  -0.474
 -0.472  -0.471  -0.468  -0.466  -0.464  -0.457  -0.450  -0.446
 -0.444  -0.443  -0.439  -0.438  -0.435  -0.433  -0.430  -0.429
 -0.428  -0.426  -0.424  -0.424  -0.417  -0.412  -0.410  -0.410
 -0.409  -0.407  -0.403  -0.401  -0.398  -0.398  -0.396  -0.395
 -0.392  -0.388  -0.388  -0.387  -0.385  -0.381  -0.380  -0.377
 -0.375  -0.374  -0.372  -0.372  -0.367  -0.365  -0.355  -0.353
 -0.351  -0.348  -0.348  -0.346  -0.344  -0.342  -0.342  -0.341
 -0.337  -0.334  -0.331  -0.330  -0.328  -0.327  -0.323  -0.321
 -0.316  -0.315  -0.313  -0.309  -0.308  -0.307  -0.301  -0.298
 -0.297  -0.296  -0.295  -0.289  -0.287  -0.284  -0.282  -0.279
 -0.276  -0.269  -0.261  -0.260  -0.253  -0.247  -0.247  -0.244
 -0.242  -0.240  -0.232  -0.230  -0.192  -0.190

          Ground-State Mulliken Net Atomic Charges

     Atom                 Charge (a.u.)
  ----------------------------------------
      1 C                     0.271766
      2 C                    -0.112412
      3 N                    -0.488389
      4 C                    -0.079005
      5 C                     0.064583
      6 C                     0.027839
      7 C                     0.045369
      8 C                     0.031328
      9 C                     0.217409
     10 N                    -0.496691
     11 N                    -0.516879
     12 C                     0.157465
     13 C                     0.279301
     14 S                     0.616787
     15 N                    -0.532688
     16 C                    -0.196521
     17 S                     0.326012
     18 C                    -0.149384
     19 C                    -0.249986
     20 S                     0.276902
     21 C                     0.227584
     22 C                     0.077411
     23 C                    -0.304853
     24 C                    -0.077422
     25 N                    -0.435185
     26 S                     0.241870
     27 C                     0.120320
     28 C                    -0.296273
     29 C                    -0.226323
     30 H                     0.094119
     31 H                     0.129507
     32 H                     0.113155
     33 H                     0.114348
     34 H                     0.129420
     35 H                     0.122837
     36 H                     0.113038
     37 H                     0.128393
     38 H                     0.104390
     39 C                    -0.184602
     40 H                     0.122625
     41 H                     0.094916
     42 H                     0.106425
     43 C                    -0.187784
     44 H                     0.093261
     45 C                    -0.174168
     46 H                     0.098187
     47 H                     0.092662
     48 H                     0.092573
     49 C                    -0.174123
     50 H                     0.093704
     51 C                    -0.324725
     52 H                     0.095868
     53 H                     0.105162
     54 H                     0.102148
     55 H                     0.098795
     56 C                     0.283215
     57 C                    -0.116269
     58 N                    -0.494898
     59 C                    -0.065961
     60 C                     0.115324
     61 C                    -0.004569
     62 C                     0.010039
     63 C                     0.061290
     64 C                     0.224635
     65 N                    -0.526674
     66 N                    -0.528075
     67 C                     0.200838
     68 C                     0.294289
     69 S                     0.604736
     70 N                    -0.557092
     71 C                    -0.194747
     72 S                     0.304630
     73 C                    -0.145521
     74 C                    -0.279821
     75 S                     0.259544
     76 C                     0.201634
     77 C                     0.060119
     78 C                    -0.314859
     79 C                    -0.030740
     80 N                    -0.411680
     81 S                     0.298560
     82 C                     0.118341
     83 C                    -0.311095
     84 C                    -0.236963
     85 H                     0.089202
     86 H                     0.101085
     87 H                     0.111494
     88 H                     0.117606
     89 H                     0.130051
     90 H                     0.123922
     91 H                     0.102159
     92 H                     0.138487
     93 H                     0.095494
     94 C                    -0.176822
     95 H                     0.127640
     96 H                     0.093888
     97 H                     0.128276
     98 C                    -0.188761
     99 H                     0.087791
    100 C                    -0.186833
    101 H                     0.085682
    102 H                     0.094899
    103 H                     0.092642
    104 C                    -0.179140
    105 H                     0.104228
    106 C                    -0.319297
    107 H                     0.096346
    108 H                     0.098218
    109 H                     0.096473
    110 H                     0.096977
  ----------------------------------------
  Sum of atomic charges =     0.000000

                    Cartesian Multipole Moments
 -----------------------------------------------------------------
    Charge (ESU x 10^10)
                 0.0000
    Dipole Moment (Debye)
         X      -0.1903      Y      -1.6208      Z      -1.2171
       Tot       2.0358
    Quadrupole Moments (Debye-Ang)
        XX    -379.1283     XY       2.3219     YY    -423.2819
        XZ      12.0809     YZ      -8.8810     ZZ    -440.9828

 Total job time:  94.91s(wall), 1125.09s(cpu)
        *  Thank you very much for using Q-Chem.  Have a nice day.  *
