 Q-Chem 4.4, Q-Chem, Inc., Pleasanton, CA (2016)
 Q-Chem 4.4.2 for Intel X86 Linux

User input:
--------------------------------------------------------------
$comment
SP
$end

$rem
MEM_STATIC 5000
MEM_TOTAL 20000
JOBTYPE SP
EXCHANGE B3LYP
BASIS 6-31g(d,p)
$end

$molecule
0 1
C           2.736000      8.303000      2.132000
C           1.451000      8.173000      1.656000
N           3.454000      9.462000      1.987000
C           0.857000      9.255000      1.035000
C           2.837000     10.579000      1.516000
C           1.513000     10.560000      1.092000
C           0.836000     11.827000      0.754000
C           1.453000     12.767000     -0.026000
C          -0.377000     12.176000      1.300000
N           0.913000     14.017000     -0.215000
N          -1.077000     11.427000      2.103000
C          -0.924000     13.416000      1.023000
C          -0.231000     14.373000      0.327000
S          -2.498000     12.175000      2.323000
N          -2.158000     13.578000      1.578000
C          -0.678000     15.804000      0.043000
S          -2.172000     16.565000      0.723000
C           0.102000     16.799000     -0.566000
C          -1.778000     18.104000     -0.019000
S           1.768000     16.794000     -1.229000
C          -0.570000     17.988000     -0.711000
C          -2.593000     19.318000      0.053000
C           1.530000     18.491000     -1.636000
C           0.253000     18.989000     -1.402000
N          -2.002000     20.477000     -0.148000
S          -4.237000     19.311000      0.586000
C          -2.959000     21.461000     -0.151000
C          -4.225000     21.059000      0.014000
C           3.599000      7.111000      2.646000
H           0.882000      7.248000      1.656000
H          -0.186000      9.150000      0.751000
H           3.469000     11.461000      1.421000
H           2.398000     12.600000     -0.540000
H           2.364000     18.929000     -2.169000
H           0.043000     20.045000     -1.532000
H          -2.564000     22.443000     -0.379000
H          -5.178000     21.571000      0.031000
H           2.881000      6.283000      2.680000
C           4.228000      7.304000      4.033000
H           4.308000      6.881000      1.841000
H           3.591000      7.746000      4.810000
H           5.009000      8.073000      3.990000
C           4.669000      5.903000      4.672000
H           3.769000      5.287000      4.785000
C           5.160000      6.114000      6.129000
H           5.410000      5.347000      4.084000
H           4.313000      6.571000      6.656000
H           6.074000      6.718000      6.196000
C           5.453000      4.848000      6.896000
H           5.968000      5.041000      7.846000
C           6.305000      3.797000      6.120000
H           4.518000      4.524000      7.370000
H           6.593000      2.958000      6.765000
H           7.207000      4.214000      5.655000
H           5.723000      3.367000      5.296000
C           5.891000     14.821000      7.122000
C           5.151000     13.676000      6.866000
N           6.470000     15.507000      6.091000
C           4.988000     13.121000      5.559000
C           6.304000     15.015000      4.833000
C           5.598000     13.840000      4.511000
C           5.756000     13.341000      3.112000
C           6.153000     12.041000      2.845000
C           5.405000     14.069000      1.917000
N           6.210000     11.500000      1.624000
N           4.981000     15.354000      1.959000
C           5.382000     13.473000      0.652000
C           5.856000     12.117000      0.548000
S           4.561000     15.646000      0.433000
N           4.908000     14.215000     -0.348000
C           5.952000     11.419000     -0.757000
S           5.606000     12.046000     -2.355000
C           6.392000     10.134000     -0.842000
C           6.150000     10.603000     -3.178000
S           6.953000      8.936000      0.263000
C           6.567000      9.782000     -2.173000
C           6.422000     10.386000     -4.549000
C           7.428000      7.936000     -1.059000
C           7.189000      8.519000     -2.290000
N           7.406000     11.122000     -5.019000
S           5.876000      8.989000     -5.425000
C           7.755000     10.628000     -6.286000
C           7.066000      9.519000     -6.638000
C           5.994000     15.438000      8.540000
H           4.808000     13.275000      7.815000
H           4.458000     12.192000      5.370000
H           6.830000     15.534000      4.033000
H           6.371000     11.443000      3.728000
H           7.873000      7.002000     -0.743000
H           7.410000      8.004000     -3.218000
H           8.573000     11.073000     -6.837000
H           7.253000      9.008000     -7.574000
H           6.649000     16.316000      8.472000
C           6.585000     14.562000      9.619000
H           5.014000     15.779000      8.895000
H           7.574000     14.282000      9.235000
H           6.076000     13.624000      9.871000
C           6.808000     15.405000     10.841000
H           7.571000     14.907000     11.452000
C           5.526000     15.487000     11.648000
H           7.207000     16.393000     10.578000
H           5.460000     14.504000     12.130000
H           4.679000     15.568000     10.956000
C           5.543000     16.691000     12.639000
H           6.291000     16.540000     13.427000
C           4.084000     16.887000     13.213000
H           5.831000     17.624000     12.138000
H           3.372000     17.180000     12.432000
H           4.117000     17.653000     13.997000
H           3.657000     15.961000     13.619000
$end

--------------------------------------------------------------

             Standard Nuclear Orientation (Angstroms)
    I     Atom           X                Y                Z
 ----------------------------------------------------------------
    1      C      -3.4124242855    -0.2883458852    -3.2717549610
    2      C      -2.6939499457    -0.9066042040    -4.2698793391
    3      N      -2.9376132222    -0.1815335371    -1.9899688725
    4      C      -1.4424107238    -1.4127237703    -3.9754416370
    5      C      -1.6530793680    -0.5371939174    -1.7184960907
    6      C      -0.8264343365    -1.0913929995    -2.6893896839
    7      C       0.6051556173    -1.2995576155    -2.3977054421
    8      C       1.0071182597    -1.8606189707    -1.2160433966
    9      C       1.5960531097    -0.8328415536    -3.2293209044
   10      N       2.3322151240    -1.9109740346    -0.8535469585
   11      N       1.3938694479    -0.2285209493    -4.3649829907
   12      C       2.9227059069    -0.9719437726    -2.8630137541
   13      C       3.2862559317    -1.4401170363    -1.6264219966
   14      S       2.8450743060    -0.0426816018    -5.0625596510
   15      N       3.7792948863    -0.5269807969    -3.8249328102
   16      C       4.7014885414    -1.5468676589    -1.0661122921
   17      S       6.1813711837    -0.9142316768    -1.8927174451
   18      C       5.0361440940    -1.9148893456     0.2460887974
   19      C       7.1888200407    -1.3693930045    -0.5317633803
   20      S       4.0424055721    -2.3982527610     1.6581771653
   21      C       6.3922887783    -1.9446800187     0.4612959327
   22      C       8.6402953060    -1.1965657055    -0.4507987036
   23      C       5.5445096418    -2.5642048343     2.5627462744
   24      C       6.7098538385    -2.3880363351     1.8248936041
   25      N       9.1967151180    -1.1577059080     0.7416147772
   26      S       9.6185501691    -0.8405993475    -1.8303563772
   27      C      10.5596612354    -1.1080482034     0.5866115726
   28      C      11.0159292129    -1.1356105076    -0.6714205621
   29      C      -4.9101088603     0.1231546070    -3.4038051758
   30      H      -3.0687036531    -1.1052117238    -5.2696296639
   31      H      -0.8647512323    -1.8138408383    -4.8030554417
   32      H      -1.3454601772    -0.4321298688    -0.6789264782
   33      H       0.3225835426    -2.2953867382    -0.4897519886
   34      H       5.4043454397    -2.9368216779     3.5692251288
   35      H       7.6756528386    -2.3764065466     2.3180802212
   36      H      11.0996949706    -1.1425843729     1.5244302213
   37      H      12.0048500482    -1.1377401545    -1.1103659414
   38      H      -5.1187557772    -0.0423927464    -4.4674425848
   39      C      -5.2269428807     1.5799947193    -3.0378924942
   40      H      -5.4816328198    -0.6312581369    -2.8489828838
   41      H      -4.5318670026     2.3464669682    -3.4042963907
   42      H      -5.1029545349     1.7341104434    -1.9589827511
   43      C      -6.6354380731     2.0397078468    -3.6465041383
   44      H      -6.5699668300     1.9656164277    -4.7384972600
   45      C      -6.8570283950     3.5540906133    -3.3896120092
   46      H      -7.4950735837     1.4522511261    -3.3002637737
   47      H      -6.0061448642     4.0557405522    -3.8674525221
   48      H      -6.9509545399     3.8047372085    -2.3251613699
   49      C      -8.0756436764     4.1451630014    -4.0548219221
   50      H      -8.2968817361     5.1608051829    -3.7019782173
   51      C      -9.3813692932     3.3087972340    -3.8867329079
   52      H      -7.7802810674     4.4668735620    -5.0613706017
   53      H     -10.2547635086     3.8444273249    -4.2781060678
   54      H      -9.5839053487     3.0067411960    -2.8516197276
   55      H      -9.3120487453     2.3741424071    -4.4561317280
   56      C      -0.5326959109     5.9300891687     2.2397492773
   57      C      -0.9597788548     5.4289458739     1.0188411903
   58      N      -0.2921092269     5.0797391879     3.2827358341
   59      C      -1.2192214057     4.0429724890     0.7851526383
   60      C      -0.5030918994     3.7512245353     3.0760497686
   61      C      -0.9708865432     3.1840818217     1.8751075079
   62      C      -1.3791626927     1.7487885600     1.9415141235
   63      C      -2.6289070787     1.3287094416     1.5165782414
   64      C      -0.5222247339     0.6491502038     2.3125435299
   65      N      -3.0180967255     0.0517584807     1.4480314532
   66      N       0.7454084155     0.8430034119     2.7464699434
   67      C      -0.9026644870    -0.6875556170     2.1561685226
   68      C      -2.2532889669    -0.9480925305     1.7293640815
   69      S       1.3218981843    -0.6554280529     2.8591761619
   70      N       0.0299003992    -1.6058478468     2.4057724363
   71      C      -2.7848991668    -2.3275652118     1.6115051963
   72      S      -1.9870257990    -3.8382658336     1.9957326294
   73      C      -4.0599221347    -2.5620672565     1.1975302907
   74      C      -3.4075861421    -4.8117956102     1.6961294154
   75      S      -5.4100872492    -1.6011324830     0.7236014727
   76      C      -4.3672594195    -3.9064035297     1.3537153662
   77      C      -3.6665318480    -6.1650529360     2.0160602387
   78      C      -6.4115964788    -3.0048019136     0.7229749173
   79      C      -5.7354844286    -4.1505317996     1.1005282566
   80      N      -3.6690476891    -6.4151329273     3.3076893141
   81      S      -4.3752756510    -7.2943865061     0.9027817878
   82      C      -4.1988946534    -7.7004960212     3.5032140221
   83      C      -4.6236537960    -8.2853579157     2.3604007237
   84      C      -0.1939842560     7.4285330026     2.4445967608
   85      H      -1.1176144812     6.2660366520     0.3454780310
   86      H      -1.6102634230     3.6619087398    -0.1537502106
   87      H      -0.3741956022     3.0971671138     3.9372301411
   88      H      -3.2837275613     2.1279000073     1.1740558695
   89      H      -7.4374232685    -2.7911330687     0.4541589539
   90      H      -6.2224037291    -5.1188167366     1.1246917725
   91      H      -4.3226519293    -8.0913682023     4.5045396808
   92      H      -5.0859900128    -9.2643518834     2.3618268549
   93      H       0.0947425290     7.5618680364     3.4950212524
   94      C      -1.3084717467     8.4159739966     2.1920578204
   95      H       0.6578809755     7.7299205447     1.8231491148
   96      H      -2.1163460620     8.0962767109     2.8622143216
   97      H      -1.7450117549     8.4692252981     1.1875548985
   98      C      -0.8551381815     9.7683207746     2.6603620706
   99      H      -1.7520989918    10.3706794455     2.8504129490
  100      C      -0.0462651537    10.4439740820     1.5691636317
  101      H      -0.3108425268     9.7006953513     3.6109845206
  102      H      -0.8047879279    10.7614821149     0.8433531537
  103      H       0.5799723609     9.6899693886     1.0770889446
  104      C       0.8308331016    11.6032579053     2.1337392844
  105      H       0.2052118903    12.4309302026     2.4898371195
  106      C       1.8518570304    12.0492247852     1.0133836807
  107      H       1.4142162929    11.2820054933     3.0060322054
  108      H       2.5662920252    11.2537081226     0.7694782119
  109      H       2.3873194752    12.9399496212     1.3632268411
  110      H       1.3652341844    12.2640302018     0.0533327244
 ----------------------------------------------------------------

    9   -5663.5004444002      9.90E-06 Convergence criterion met
 Total energy in the final basis set = -5663.5004444002

                    Orbital Energies (a.u.)
 --------------------------------------------------------------

 Alpha MOs
 -- Occupied --
-88.989 -88.975 -88.934 -88.925 -88.923 -88.917 -88.907 -88.899
-14.386 -14.383 -14.380 -14.376 -14.345 -14.344 -14.338 -14.336
-14.325 -14.325 -10.269 -10.265 -10.260 -10.254 -10.249 -10.248
-10.247 -10.246 -10.245 -10.239 -10.235 -10.231 -10.230 -10.230
-10.228 -10.227 -10.227 -10.227 -10.227 -10.225 -10.224 -10.222
-10.220 -10.220 -10.216 -10.215 -10.213 -10.213 -10.213 -10.213
-10.212 -10.211 -10.208 -10.197 -10.196 -10.195 -10.194 -10.189
-10.186 -10.184 -10.183 -10.181 -10.181 -10.176 -10.176 -10.176
-10.174 -10.173 -10.173 -10.171  -8.045  -8.031  -7.994  -7.984
 -7.984  -7.976  -7.966  -7.960  -6.010  -6.005  -6.003  -5.996
 -5.990  -5.989  -5.958  -5.955  -5.951  -5.948  -5.948  -5.945
 -5.944  -5.940  -5.940  -5.940  -5.936  -5.933  -5.931  -5.927
 -5.924  -5.922  -5.920  -5.916  -1.049  -1.035  -0.971  -0.970
 -0.963  -0.962  -0.927  -0.925  -0.915  -0.911  -0.906  -0.903
 -0.845  -0.837  -0.835  -0.829  -0.816  -0.806  -0.805  -0.800
 -0.799  -0.796  -0.791  -0.791  -0.783  -0.777  -0.768  -0.766
 -0.749  -0.746  -0.738  -0.735  -0.724  -0.721  -0.704  -0.704
 -0.691  -0.689  -0.674  -0.667  -0.657  -0.651  -0.650  -0.638
 -0.635  -0.634  -0.625  -0.623  -0.615  -0.608  -0.596  -0.594
 -0.589  -0.589  -0.583  -0.582  -0.576  -0.575  -0.567  -0.556
 -0.548  -0.545  -0.540  -0.539  -0.524  -0.519  -0.514  -0.513
 -0.506  -0.503  -0.498  -0.494  -0.489  -0.483  -0.477  -0.473
 -0.473  -0.471  -0.469  -0.467  -0.461  -0.457  -0.451  -0.446
 -0.440  -0.437  -0.436  -0.436  -0.435  -0.429  -0.429  -0.426
 -0.425  -0.421  -0.420  -0.415  -0.414  -0.413  -0.412  -0.411
 -0.410  -0.405  -0.403  -0.402  -0.397  -0.396  -0.395  -0.394
 -0.393  -0.390  -0.389  -0.388  -0.386  -0.386  -0.383  -0.381
 -0.378  -0.374  -0.373  -0.372  -0.363  -0.358  -0.356  -0.354
 -0.351  -0.348  -0.347  -0.346  -0.344  -0.343  -0.341  -0.339
 -0.337  -0.335  -0.333  -0.330  -0.330  -0.329  -0.323  -0.319
 -0.316  -0.312  -0.311  -0.307  -0.298  -0.297  -0.297  -0.294
 -0.293  -0.290  -0.288  -0.287  -0.282  -0.280  -0.277  -0.276
 -0.272  -0.266  -0.263  -0.260  -0.253  -0.251  -0.248  -0.247
 -0.246  -0.240  -0.234  -0.229  -0.194  -0.192

          Ground-State Mulliken Net Atomic Charges

     Atom                 Charge (a.u.)
  ----------------------------------------
      1 C                     0.253243
      2 C                    -0.113253
      3 N                    -0.478842
      4 C                    -0.057263
      5 C                     0.093603
      6 C                     0.018242
      7 C                     0.022626
      8 C                     0.035563
      9 C                     0.284532
     10 N                    -0.549313
     11 N                    -0.561435
     12 C                     0.174793
     13 C                     0.346615
     14 S                     0.596743
     15 N                    -0.560853
     16 C                    -0.232546
     17 S                     0.319156
     18 C                    -0.113254
     19 C                    -0.228068
     20 S                     0.285803
     21 C                     0.141708
     22 C                     0.069308
     23 C                    -0.310379
     24 C                    -0.052690
     25 N                    -0.428783
     26 S                     0.240055
     27 C                     0.141925
     28 C                    -0.304794
     29 C                    -0.214109
     30 H                     0.092259
     31 H                     0.103888
     32 H                     0.094214
     33 H                     0.139011
     34 H                     0.130011
     35 H                     0.128329
     36 H                     0.114679
     37 H                     0.131339
     38 H                     0.085623
     39 C                    -0.176267
     40 H                     0.131343
     41 H                     0.090729
     42 H                     0.118655
     43 C                    -0.179728
     44 H                     0.092590
     45 C                    -0.173177
     46 H                     0.096270
     47 H                     0.086427
     48 H                     0.094000
     49 C                    -0.183317
     50 H                     0.089070
     51 C                    -0.320862
     52 H                     0.087665
     53 H                     0.098338
     54 H                     0.105792
     55 H                     0.105936
     56 C                     0.268504
     57 C                    -0.109560
     58 N                    -0.492168
     59 C                    -0.083739
     60 C                     0.096507
     61 C                     0.041680
     62 C                     0.018058
     63 C                     0.056748
     64 C                     0.186911
     65 N                    -0.524167
     66 N                    -0.518195
     67 C                     0.219403
     68 C                     0.328645
     69 S                     0.614645
     70 N                    -0.583137
     71 C                    -0.238725
     72 S                     0.330284
     73 C                    -0.078647
     74 C                    -0.209831
     75 S                     0.295846
     76 C                     0.137698
     77 C                    -0.000003
     78 C                    -0.322414
     79 C                    -0.073513
     80 N                    -0.381569
     81 S                     0.280226
     82 C                     0.119418
     83 C                    -0.297634
     84 C                    -0.229576
     85 H                     0.080491
     86 H                     0.114553
     87 H                     0.111593
     88 H                     0.106786
     89 H                     0.128585
     90 H                     0.103759
     91 H                     0.120581
     92 H                     0.124691
     93 H                     0.124058
     94 C                    -0.185112
     95 H                     0.112270
     96 H                     0.097472
     97 H                     0.090443
     98 C                    -0.178547
     99 H                     0.087379
    100 C                    -0.165868
    101 H                     0.091936
    102 H                     0.094657
    103 H                     0.089786
    104 C                    -0.178918
    105 H                     0.096868
    106 C                    -0.323116
    107 H                     0.098553
    108 H                     0.104760
    109 H                     0.097351
    110 H                     0.102146
  ----------------------------------------
  Sum of atomic charges =     0.000000

                    Cartesian Multipole Moments
 -----------------------------------------------------------------
    Charge (ESU x 10^10)
                 0.0000
    Dipole Moment (Debye)
         X      -0.4336      Y      -1.5731      Z      -4.1676
       Tot       4.4757
    Quadrupole Moments (Debye-Ang)
        XX    -396.2760     XY      12.2898     YY    -409.1467
        XZ       3.3773     YZ     -10.7241     ZZ    -433.5635

 Total job time:  87.53s(wall), 1056.47s(cpu)
        *  Thank you very much for using Q-Chem.  Have a nice day.  *
