 Q-Chem 4.4, Q-Chem, Inc., Pleasanton, CA (2016)
 Q-Chem 4.4.2 for Intel X86 Linux

User input:
--------------------------------------------------------------
$comment
SP
$end

$rem
MEM_STATIC 5000
MEM_TOTAL 20000
JOBTYPE SP
EXCHANGE B3LYP
BASIS 6-31g(d,p)
$end

$molecule
0 1
C          10.913000     23.372000      2.705000
C          11.901000     23.622000      3.661000
N           9.735000     22.771000      3.015000
C          11.637000     23.244000      4.988000
C           9.519000     22.365000      4.290000
C          10.437000     22.604000      5.339000
C          10.235000     22.070000      6.776000
C          10.887000     22.741000      7.826000
C           9.390000     21.000000      7.130000
N          10.772000     22.408000      9.106000
N           8.629000     20.218000      6.214000
C           9.322000     20.600000      8.495000
C           9.983000     21.317000      9.487000
S           7.962000     19.081000      7.234000
N           8.482000     19.510000      8.612000
C           9.683000     21.077000     10.940000
S           8.312000     20.128000     11.605000
C          10.232000     21.810000     11.960000
C           8.554000     20.810000     13.217000
S          11.492000     23.036000     11.934000
C           9.633000     21.651000     13.187000
C           7.683000     20.762000     14.375000
C          11.272000     23.287000     13.704000
C          10.297000     22.442000     14.193000
N           8.113000     20.975000     15.583000
S           5.942000     20.429000     14.272000
C           7.077000     20.839000     16.471000
C           5.867000     20.719000     15.967000
C          11.019000     23.962000      1.271000
H          12.820000     24.094000      3.327000
H          12.384000     23.409000      5.759000
H           8.613000     21.821000      4.557000
H          11.469000     23.659000      7.745000
H          11.841000     23.909000     14.382000
H          10.022000     22.441000     15.241000
H           7.116000     20.820000     17.552000
H           4.920000     20.686000     16.491000
H          11.457000     24.967000      1.248000
C           9.672000     24.000000      0.446000
H          11.791000     23.396000      0.736000
H           9.083000     24.844000      0.826000
H           9.135000     23.062000      0.636000
C           9.942000     24.301000     -1.075000
H          10.550000     25.211000     -1.155000
C           8.672000     24.539000     -1.984000
H          10.656000     23.516000     -1.352000
H           8.390000     25.564000     -1.711000
H           7.826000     23.999000     -1.541000
C           8.893000     24.418000     -3.522000
H           9.453000     25.287000     -3.888000
C           7.514000     24.402000     -4.306000
H           9.446000     23.479000     -3.654000
H           7.087000     25.361000     -3.987000
H           6.925000     23.553000     -3.939000
H           7.784000     24.307000     -5.366000
C          11.911000     29.351000      6.157000
C          12.056000     28.170000      5.304000
N          11.005000     29.388000      7.152000
C          11.243000     27.078000      5.494000
C          10.290000     28.261000      7.443000
C          10.364000     27.099000      6.634000
C           9.473000     25.908000      6.884000
C           8.742000     25.257000      5.873000
C           9.025000     25.402000      8.187000
N           7.804000     24.296000      5.977000
N           9.486000     25.922000      9.353000
C           8.096000     24.390000      8.365000
C           7.444000     23.883000      7.175000
S           8.700000     25.089000     10.507000
N           7.746000     24.126000      9.622000
C           6.360000     22.898000      7.286000
S           6.078000     21.820000      8.643000
C           5.472000     22.614000      6.238000
C           4.763000     20.984000      7.833000
S           5.182000     23.423000      4.718000
C           4.666000     21.554000      6.546000
C           3.904000     20.018000      8.408000
C           4.080000     22.038000      4.320000
C           3.898000     21.209000      5.407000
N           2.861000     19.578000      7.697000
S           4.194000     19.187000      9.891000
C           2.209000     18.614000      8.401000
C           2.785000     18.218000      9.567000
C          12.694000     30.660000      5.900000
H          12.797000     28.182000      4.511000
H          11.141000     26.201000      4.861000
H           9.699000     28.415000      8.344000
H           8.889000     25.606000      4.852000
H           3.606000     22.053000      3.347000
H           3.207000     20.375000      5.347000
H           1.318000     18.211000      7.938000
H           2.480000     17.427000     10.239000
H          12.892000     31.153000      6.859000
C          12.000000     31.674000      5.017000
H          13.581000     30.342000      5.339000
H          10.938000     31.610000      5.287000
H          12.083000     31.322000      3.981000
C          12.620000     33.040000      5.142000
H          12.514000     33.406000      6.170000
C          11.935000     34.138000      4.273000
H          13.693000     33.079000      4.916000
H          11.992000     33.821000      3.225000
H          12.412000     35.125000      4.322000
C          10.354000     34.246000      4.536000
H           9.934000     33.237000      4.435000
C           9.839000     35.311000      3.571000
H          10.233000     34.683000      5.535000
H          10.495000     36.172000      3.392000
H           8.949000     35.788000      4.000000
H           9.571000     34.869000      2.604000
$end

--------------------------------------------------------------

             Standard Nuclear Orientation (Angstroms)
    I     Atom           X                Y                Z
 ----------------------------------------------------------------
    1      C       3.9527684050    -2.3481204070     2.6777530337
    2      C       3.6975219873    -1.1218317326     3.2971441485
    3      N       3.0163662753    -3.0012916346     1.9418838883
    4      C       2.4237172259    -0.5551015362     3.1246700509
    5      C       1.7762729520    -2.4657665579     1.8300874592
    6      C       1.4268697955    -1.2128838336     2.3854686916
    7      C      -0.0070219687    -0.6365168495     2.3336564514
    8      C      -0.1613014023     0.7571188288     2.4423875538
    9      C      -1.1753774118    -1.3926542870     2.1158429209
   10      N      -1.3305032067     1.3828412511     2.3795179209
   11      N      -1.2188383752    -2.8076822194     1.9561303817
   12      C      -2.4349091164    -0.7282576893     2.1183018216
   13      C      -2.5157187424     0.6569178119     2.2174614669
   14      S      -2.8613036654    -3.0726341803     1.8553026635
   15      N      -3.4426918433    -1.6555198010     1.9395619230
   16      C      -3.8043547113     1.3754211521     1.9311412094
   17      S      -5.2713177479     0.6751456691     1.1694977908
   18      C      -3.9271868205     2.7406840551     1.9234289718
   19      C      -5.9422344334     2.2808674477     0.8632946382
   20      S      -2.7807225398     3.9919058569     2.3832285544
   21      C      -5.0860556990     3.2237257250     1.3636927235
   22      C      -7.0585834727     2.6648103535     0.0217118036
   23      C      -3.9679385907     5.2509464678     1.8835928985
   24      C      -5.1296783778     4.6634373403     1.4264663383
   25      N      -7.6780102857     3.7996173022     0.1560866986
   26      S      -7.6871974577     1.6450221508    -1.2888054528
   27      C      -8.7008323561     3.8762718753    -0.7540204868
   28      C      -8.7544272212     2.9387044267    -1.6763061637
   29      C       5.3924156995    -2.9308919506     2.6187191846
   30      H       4.4967859907    -0.6732064921     3.8792209875
   31      H       2.1807279278     0.3907148140     3.6001304939
   32      H       0.9840194485    -2.9969377671     1.3025909826
   33      H       0.6391465425     1.4957542960     2.4837364882
   34      H      -3.9070212505     6.3262927251     1.9848277967
   35      H      -5.9676663786     5.2579514201     1.0825781017
   36      H      -9.4849245213     4.6184413786    -0.8234964153
   37      H      -9.4235656488     2.8666702136    -2.5245625146
   38      H       6.1646184087    -2.1636402990     2.4867120673
   39      C       5.6317571342    -4.0531132853     1.5325272339
   40      H       5.6436305650    -3.2957712573     3.6218738003
   41      H       5.7193907772    -3.5505254763     0.5612482632
   42      H       4.7525432865    -4.7098321367     1.5284824629
   43      C       6.9994617688    -4.7948990635     1.7693391670
   44      H       7.8015390527    -4.0490619052     1.8368888820
   45      C       7.4471358030    -5.8229429470     0.6564426162
   46      H       6.9097325678    -5.1384065910     2.8069813255
   47      H       7.8131052484    -5.1535965007    -0.1326832925
   48      H       6.5469035212    -6.2058878435     0.1599549074
   49      C       8.5481951592    -6.8467112220     1.0669213771
   50      H       9.5181164516    -6.3407073192     1.1439261629
   51      C       8.7148319119    -7.9867266037    -0.0235602240
   52      H       8.2109902144    -7.2519989007     2.0297239128
   53      H       8.9648680986    -7.3877251093    -0.9081223276
   54      H       7.7485179733    -8.4927805101    -0.1356218850
   55      H       9.4997981872    -8.6482709854     0.3659419936
   56      C       5.4902735654     3.9663085630     0.1430314188
   57      C       5.4076737827     2.7504129712     0.9543083048
   58      N       4.5354797005     4.2742527637    -0.7546149730
   59      C       4.3534059804     1.8833843730     0.7920929822
   60      C       3.4138619503     3.4977538449    -0.8257349518
   61      C       3.2911669109     2.2923506204    -0.0894265966
   62      C       2.1091093426     1.3740046007    -0.2744738696
   63      C       2.2252739563    -0.0154147440    -0.4650064575
   64      C       0.7200791069     1.7692159191    -0.5370610324
   65      N       1.2801228008    -0.9177383184    -0.7916292679
   66      N       0.3327060169     3.0701097342    -0.5273465658
   67      C      -0.3081666617     0.8910859521    -0.8378390246
   68      C       0.0505559361    -0.5010880021    -1.0151037389
   69      S      -1.2496777572     3.0245147790    -0.8979996267
   70      N      -1.4840570586     1.4402503610    -1.1343946290
   71      C      -0.9561752304    -1.4759583835    -1.4552424647
   72      S      -2.6964916688    -1.3099509843    -1.2915438463
   73      C      -0.6272471117    -2.7417594495    -1.9622512951
   74      C      -3.0078928368    -2.9242447314    -1.9090436524
   75      S       0.8998810855    -3.4250625774    -2.4622085981
   76      C      -1.7449248463    -3.5064658639    -2.1469688668
   77      C      -4.2750224571    -3.4744458701    -2.2145321665
   78      C       0.0055933989    -4.9907331029    -2.6621044186
   79      C      -1.3543222767    -4.8183928174    -2.5109019669
   80      N      -4.3322349358    -4.6697969904    -2.8102102939
   81      S      -5.7891608360    -2.8293440059    -1.6995772613
   82      C      -5.6328284793    -5.0413999499    -2.9529817031
   83      C      -6.5629012168    -4.2317047809    -2.3806999227
   84      C       6.7208684760     4.9028603111     0.1765871810
   85      H       6.2000615176     2.5376743809     1.6648981794
   86      H       4.2322517457     0.8900821551     1.2150520291
   87      H       2.6900570915     3.9469793686    -1.5033048413
   88      H       3.2259511904    -0.4413832497    -0.4098076782
   89      H       0.5854725790    -5.8498127247    -2.9741177834
   90      H      -2.0307837557    -5.6506322489    -2.6734270301
   91      H      -5.8033502968    -5.9801919826    -3.4631295533
   92      H      -7.6331723638    -4.3728738220    -2.3108359563
   93      H       6.3918784567     5.9330290379    -0.0035570989
   94      C       7.8005724153     4.5999030839    -0.8392756650
   95      H       7.1793254822     4.7164563172     1.1552008557
   96      H       7.2633595157     4.2867670565    -1.7438131871
   97      H       8.3536595893     3.7220667531    -0.4820825039
   98      C       8.7439365905     5.7598899742    -1.0138478490
   99      H       8.1989118066     6.6305959745    -1.3969862650
  100      C       9.8688112019     5.5199691875    -2.0660289763
  101      H       9.2366891224     6.0929985872    -0.0918068552
  102      H      10.4451975551     4.6433810668    -1.7475732676
  103      H      10.5886093668     6.3425142277    -2.1630303096
  104      C       9.2974134643     5.0791756555    -3.5011595236
  105      H       8.6176494603     4.2328611243    -3.3388184837
  106      C      10.5193616128     4.8278818098    -4.3811419810
  107      H       8.8137382092     5.9655639835    -3.9300942267
  108      H      11.3760136357     5.4980897783    -4.2373831885
  109      H      10.2555595989     5.0169480416    -5.4291555580
  110      H      10.8663152537     3.7921058192    -4.2859145246
 ----------------------------------------------------------------

   10   -5663.5172951164      3.77E-06 Convergence criterion met
 Total energy in the final basis set = -5663.5172951164

                    Orbital Energies (a.u.)
 --------------------------------------------------------------

 Alpha MOs
 -- Occupied --
-88.995 -88.979 -88.932 -88.927 -88.926 -88.922 -88.910 -88.904
-14.385 -14.384 -14.380 -14.374 -14.354 -14.347 -14.344 -14.338
-14.329 -14.327 -10.275 -10.270 -10.267 -10.261 -10.258 -10.258
-10.250 -10.248 -10.247 -10.244 -10.241 -10.240 -10.238 -10.236
-10.232 -10.232 -10.230 -10.229 -10.227 -10.227 -10.226 -10.226
-10.225 -10.224 -10.224 -10.223 -10.222 -10.221 -10.220 -10.214
-10.213 -10.212 -10.207 -10.206 -10.205 -10.200 -10.195 -10.191
-10.189 -10.185 -10.180 -10.178 -10.178 -10.177 -10.176 -10.176
-10.175 -10.175 -10.174 -10.168  -8.050  -8.034  -7.990  -7.989
 -7.985  -7.984  -7.969  -7.964  -6.015  -6.009  -6.009  -5.999
 -5.994  -5.992  -5.955  -5.953  -5.951  -5.949  -5.949  -5.948
 -5.946  -5.946  -5.945  -5.945  -5.942  -5.941  -5.933  -5.930
 -5.928  -5.925  -5.925  -5.920  -1.040  -1.039  -0.983  -0.972
 -0.960  -0.955  -0.930  -0.930  -0.916  -0.912  -0.902  -0.893
 -0.842  -0.842  -0.826  -0.825  -0.817  -0.812  -0.809  -0.807
 -0.802  -0.795  -0.795  -0.790  -0.778  -0.777  -0.767  -0.766
 -0.748  -0.748  -0.737  -0.736  -0.729  -0.724  -0.708  -0.705
 -0.693  -0.693  -0.678  -0.669  -0.651  -0.647  -0.646  -0.638
 -0.634  -0.630  -0.624  -0.623  -0.608  -0.607  -0.597  -0.592
 -0.591  -0.589  -0.583  -0.579  -0.576  -0.573  -0.567  -0.560
 -0.551  -0.551  -0.543  -0.537  -0.520  -0.519  -0.515  -0.511
 -0.507  -0.504  -0.501  -0.496  -0.487  -0.484  -0.481  -0.474
 -0.472  -0.467  -0.465  -0.463  -0.461  -0.460  -0.454  -0.452
 -0.444  -0.443  -0.441  -0.438  -0.436  -0.434  -0.431  -0.430
 -0.428  -0.427  -0.423  -0.418  -0.417  -0.416  -0.416  -0.412
 -0.411  -0.406  -0.405  -0.404  -0.402  -0.398  -0.396  -0.394
 -0.393  -0.391  -0.389  -0.387  -0.384  -0.382  -0.378  -0.378
 -0.376  -0.371  -0.370  -0.367  -0.363  -0.362  -0.357  -0.354
 -0.352  -0.349  -0.346  -0.346  -0.345  -0.343  -0.339  -0.339
 -0.335  -0.334  -0.333  -0.332  -0.329  -0.328  -0.323  -0.315
 -0.311  -0.311  -0.309  -0.309  -0.307  -0.302  -0.297  -0.294
 -0.293  -0.292  -0.291  -0.290  -0.287  -0.286  -0.282  -0.281
 -0.276  -0.275  -0.267  -0.266  -0.254  -0.251  -0.251  -0.248
 -0.244  -0.243  -0.235  -0.227  -0.198  -0.191

          Ground-State Mulliken Net Atomic Charges

     Atom                 Charge (a.u.)
  ----------------------------------------
      1 C                     0.278742
      2 C                    -0.125245
      3 N                    -0.504816
      4 C                    -0.091862
      5 C                     0.108148
      6 C                     0.040106
      7 C                     0.031334
      8 C                     0.047779
      9 C                     0.206578
     10 N                    -0.526949
     11 N                    -0.571518
     12 C                     0.192414
     13 C                     0.292127
     14 S                     0.652226
     15 N                    -0.525267
     16 C                    -0.224709
     17 S                     0.336678
     18 C                    -0.123499
     19 C                    -0.238572
     20 S                     0.281122
     21 C                     0.163874
     22 C                     0.060424
     23 C                    -0.312479
     24 C                    -0.054691
     25 N                    -0.437750
     26 S                     0.249008
     27 C                     0.127815
     28 C                    -0.288133
     29 C                    -0.253469
     30 H                     0.090994
     31 H                     0.098130
     32 H                     0.144551
     33 H                     0.130047
     34 H                     0.130328
     35 H                     0.127794
     36 H                     0.112734
     37 H                     0.135303
     38 H                     0.103967
     39 C                    -0.172959
     40 H                     0.109409
     41 H                     0.094276
     42 H                     0.129636
     43 C                    -0.190063
     44 H                     0.083987
     45 C                    -0.184319
     46 H                     0.085679
     47 H                     0.089389
     48 H                     0.095499
     49 C                    -0.184458
     50 H                     0.096949
     51 C                    -0.313772
     52 H                     0.097627
     53 H                     0.107632
     54 H                     0.109070
     55 H                     0.103354
     56 C                     0.255863
     57 C                    -0.134698
     58 N                    -0.477834
     59 C                    -0.062818
     60 C                     0.086541
     61 C                     0.020853
     62 C                     0.055586
     63 C                     0.036790
     64 C                     0.169182
     65 N                    -0.507310
     66 N                    -0.540331
     67 C                     0.224876
     68 C                     0.300928
     69 S                     0.616305
     70 N                    -0.562600
     71 C                    -0.240883
     72 S                     0.332868
     73 C                    -0.101020
     74 C                    -0.241268
     75 S                     0.273528
     76 C                     0.156402
     77 C                     0.059490
     78 C                    -0.305542
     79 C                    -0.055276
     80 N                    -0.438992
     81 S                     0.274417
     82 C                     0.135496
     83 C                    -0.317947
     84 C                    -0.212271
     85 H                     0.087640
     86 H                     0.113765
     87 H                     0.123734
     88 H                     0.105116
     89 H                     0.130020
     90 H                     0.122185
     91 H                     0.110380
     92 H                     0.134603
     93 H                     0.119184
     94 C                    -0.169577
     95 H                     0.092150
     96 H                     0.116600
     97 H                     0.087958
     98 C                    -0.176840
     99 H                     0.096284
    100 C                    -0.187220
    101 H                     0.089726
    102 H                     0.087165
    103 H                     0.087676
    104 C                    -0.174235
    105 H                     0.105431
    106 C                    -0.320001
    107 H                     0.096581
    108 H                     0.102431
    109 H                     0.095333
    110 H                     0.103384
  ----------------------------------------
  Sum of atomic charges =     0.000000

                    Cartesian Multipole Moments
 -----------------------------------------------------------------
    Charge (ESU x 10^10)
                 0.0000
    Dipole Moment (Debye)
         X      -2.3437      Y      -0.0352      Z       0.0492
       Tot       2.3445
    Quadrupole Moments (Debye-Ang)
        XX    -385.3793     XY       5.7772     YY    -438.2804
        XZ      27.6729     YZ       1.8718     ZZ    -447.1373

 Total job time:  109.16s(wall), 1293.96s(cpu)
        *  Thank you very much for using Q-Chem.  Have a nice day.  *
