 Q-Chem 4.4, Q-Chem, Inc., Pleasanton, CA (2016)
 Q-Chem 4.4.2 for Intel X86 Linux

User input:
--------------------------------------------------------------
$comment
SP
$end

$rem
MEM_STATIC 5000
MEM_TOTAL 20000
JOBTYPE SP
EXCHANGE B3LYP
BASIS 6-31g(d,p)
$end

$molecule
0 1
C           6.676000      4.974000     -8.092000
C           5.474000      4.400000     -8.375000
N           7.065000      6.168000     -8.632000
C           4.581000      4.923000     -9.306000
C           6.195000      6.710000     -9.530000
C           4.901000      6.169000     -9.908000
C           4.040000      6.931000    -10.904000
C           4.186000      8.374000    -11.030000
C           3.092000      6.345000    -11.761000
N           3.481000      9.074000    -11.994000
N           2.890000      5.014000    -11.832000
C           2.392000      7.103000    -12.712000
C           2.578000      8.515000    -12.717000
S           1.840000      4.788000    -13.121000
N           1.540000      6.377000    -13.422000
C           1.641000      9.427000    -13.433000
S          -0.013000      9.023000    -13.941000
C           1.896000     10.741000    -13.761000
C          -0.296000     10.618000    -14.624000
S           3.362000     11.596000    -13.619000
C           0.853000     11.395000    -14.438000
C          -1.577000     10.979000    -15.250000
C           2.443000     13.066000    -14.106000
C           1.117000     12.796000    -14.540000
N          -1.637000     12.136000    -15.962000
S          -3.096000     10.042000    -15.120000
C          -2.941000     12.350000    -16.365000
C          -3.733000     11.284000    -16.122000
C           7.647000      4.477000     -7.046000
H           5.247000      3.506000     -7.803000
H           3.600000      4.474000     -9.425000
H           6.548000      7.658000     -9.935000
H           4.896000      8.923000    -10.412000
H           2.930000     14.033000    -14.116000
H           0.418000     13.573000    -14.830000
H          -3.179000     13.301000    -16.822000
H          -4.815000     11.284000    -16.127000
H           7.421000      3.433000     -6.797000
C           7.402000      5.393000     -5.747000
H           8.647000      4.506000     -7.495000
H           7.645000      6.424000     -6.034000
H           8.111000      5.001000     -5.007000
C           6.018000      5.364000     -5.106000
H           5.868000      6.230000     -4.451000
C           5.609000      4.118000     -4.351000
H           5.324000      5.611000     -5.919000
H           6.237000      4.087000     -3.453000
H           5.803000      3.225000     -4.958000
C           4.132000      4.298000     -3.841000
H           4.112000      5.057000     -3.049000
C           3.611000      2.998000     -3.158000
H           3.467000      4.652000     -4.638000
H           3.941000      2.103000     -3.700000
H           2.515000      2.974000     -3.106000
H           4.136000      2.907000     -2.199000
C           5.891000     14.821000      7.122000
C           5.151000     13.676000      6.866000
N           6.470000     15.507000      6.091000
C           4.988000     13.121000      5.559000
C           6.304000     15.015000      4.833000
C           5.598000     13.840000      4.511000
C           5.756000     13.341000      3.112000
C           6.153000     12.041000      2.845000
C           5.405000     14.069000      1.917000
N           6.210000     11.500000      1.624000
N           4.981000     15.354000      1.959000
C           5.382000     13.473000      0.652000
C           5.856000     12.117000      0.548000
S           4.561000     15.646000      0.433000
N           4.908000     14.215000     -0.348000
C           5.952000     11.419000     -0.757000
S           5.606000     12.046000     -2.355000
C           6.392000     10.134000     -0.842000
C           6.150000     10.603000     -3.178000
S           6.953000      8.936000      0.263000
C           6.567000      9.782000     -2.173000
C           6.422000     10.386000     -4.549000
C           7.428000      7.936000     -1.059000
C           7.189000      8.519000     -2.290000
N           7.406000     11.122000     -5.019000
S           5.876000      8.989000     -5.425000
C           7.755000     10.628000     -6.286000
C           7.066000      9.519000     -6.638000
C           5.994000     15.438000      8.540000
H           4.808000     13.275000      7.815000
H           4.458000     12.192000      5.370000
H           6.830000     15.534000      4.033000
H           6.371000     11.443000      3.728000
H           7.873000      7.002000     -0.743000
H           7.410000      8.004000     -3.218000
H           8.573000     11.073000     -6.837000
H           7.253000      9.008000     -7.574000
H           6.649000     16.316000      8.472000
C           6.585000     14.562000      9.619000
H           5.014000     15.779000      8.895000
H           7.574000     14.282000      9.235000
H           6.076000     13.624000      9.871000
C           6.808000     15.405000     10.841000
H           7.571000     14.907000     11.452000
C           5.526000     15.487000     11.648000
H           7.207000     16.393000     10.578000
H           5.460000     14.504000     12.130000
H           4.679000     15.568000     10.956000
C           5.543000     16.691000     12.639000
H           6.291000     16.540000     13.427000
C           4.084000     16.887000     13.213000
H           5.831000     17.624000     12.138000
H           3.372000     17.180000     12.432000
H           4.117000     17.653000     13.997000
H           3.657000     15.961000     13.619000
$end

--------------------------------------------------------------

             Standard Nuclear Orientation (Angstroms)
    I     Atom           X                Y                Z
 ----------------------------------------------------------------
    1      C       4.0195808479     5.3464587388    -0.6383040671
    2      C       4.6924452443     5.1833543548     0.5343081723
    3      N       4.1346832793     4.4681636114    -1.6794121784
    4      C       5.6244295879     4.1705786854     0.7427059335
    5      C       5.0257347842     3.4549405248    -1.4884300003
    6      C       5.7991776544     3.2053489717    -0.2844818356
    7      C       6.7234426282     1.9982686106    -0.2327879292
    8      C       6.4360372933     0.8322048542    -1.0556697490
    9      C       7.8855673846     1.9083649881     0.5532988276
   10      N       7.3128816215    -0.2382690835    -1.0950470643
   11      N       8.3413751999     2.9273088269     1.3092080079
   12      C       8.7340350662     0.7927005742     0.4872646785
   13      C       8.3321791480    -0.3122362959    -0.3164711824
   14      S       9.8386229426     2.4282615754     1.8786797261
   15      N       9.7735510206     0.8883836152     1.3041681834
   16      C       8.9700867173    -1.6529069580    -0.1821390984
   17      S       9.9074179658    -2.2191839957     1.2170522564
   18      C       8.8830713958    -2.6770969685    -1.1001086819
   19      C      10.1968620701    -3.8003516236     0.5051997133
   20      S       8.2134855635    -2.6337216036    -2.6653940843
   21      C       9.5739559920    -3.8483969127    -0.7470804742
   22      C      10.9667689333    -4.8389503112     1.2064230644
   23      C       8.4869663251    -4.4124004776    -2.7297348674
   24      C       9.2496023001    -4.9153161386    -1.6411604751
   25      N      11.3495541712    -5.9367347302     0.5010594482
   26      S      11.4128669626    -4.8078852731     2.9391265911
   27      C      11.9525760675    -6.8360041979     1.3591387086
   28      C      12.1701605548    -6.3084807659     2.5826766196
   29      C       2.9558569432     6.3907420346    -0.8871611601
   30      H       4.4346123891     5.8937109242     1.3133234244
   31      H       6.0630902453     4.0340901264     1.7261034629
   32      H       5.0853149042     2.7830758947    -2.3442256115
   33      H       5.5595223903     0.8031548053    -1.7024330129
   34      H       8.1409742211    -4.9851052924    -3.5810025450
   35      H       9.4704851095    -5.9688749517    -1.5082898165
   36      H      12.1868452503    -7.8201992843     0.9765527944
   37      H      12.4064682444    -6.8650181725     3.4799913864
   38      H       3.0409263394     7.1910955869    -0.1420367482
   39      C       1.5471642796     5.6392105468    -0.6941134920
   40      H       3.1570813470     6.8271088504    -1.8728257793
   41      H       1.4976156772     4.8541702309    -1.4593818360
   42      H       0.8003955107     6.4236572212    -0.8699680366
   43      C       1.2473358263     5.0281187010     0.6711145676
   44      H       0.4377231992     4.2921511264     0.6050833396
   45      C       0.9475643492     5.9656125710     1.8204901830
   46      H       2.0972970448     4.3660150993     0.8779931499
   47      H      -0.0244142534     6.4202438872     1.5961757553
   48      H       1.7095722644     6.7527778087     1.8774886545
   49      C       0.7367140450     5.1137209641     3.1258069412
   50      H      -0.2019398065     4.5515903195     3.0440568007
   51      C       0.5427411501     6.0310889570     4.3702909635
   52      H       1.5376092958     4.3774710625     3.2645616875
   53      H       1.2149503274     6.8974772628     4.3357203782
   54      H       0.7346047463     5.4944569182     5.3082197537
   55      H      -0.4490473475     6.4909592336     4.2783023509
   56      C     -12.6964224078    -1.6356077198     0.2951910441
   57      C     -11.9995617888    -1.0729172935     1.3544010147
   58      N     -12.0276876610    -2.0423238010    -0.8256005813
   59      C     -10.5897702351    -0.8387418401     1.3322056981
   60      C     -10.6797587481    -1.8574645195    -0.8587471014
   61      C      -9.9202341635    -1.2595723508     0.1651632267
   62      C      -8.5070647244    -0.9188704801    -0.1784068125
   63      C      -8.0029583491     0.3584546698     0.0038436303
   64      C      -7.4957429587    -1.8584149618    -0.5975660340
   65      N      -6.7248761597     0.7038866985    -0.1804214793
   66      N      -7.7783009696    -3.1633276410    -0.8214608089
   67      C      -6.1448183859    -1.5125238975    -0.7040186995
   68      C      -5.7961385045    -0.1288761547    -0.5086491415
   69      S      -6.3272750305    -3.8067401218    -1.0877014967
   70      N      -5.2944283869    -2.5042317127    -0.9659203200
   71      C      -4.4065259030     0.3601344771    -0.6797935828
   72      S      -2.9905526620    -0.5384065264    -1.1838698130
   73      C      -4.0869013682     1.6682111329    -0.4827514065
   74      C      -1.9572068835     0.8705818484    -1.2334909926
   75      S      -4.9363466131     3.1044788288    -0.0508626688
   76      C      -2.7795850879     1.9007244217    -0.8864241871
   77      C      -0.6680516562     1.0335079599    -1.7922824404
   78      C      -3.5334086768     4.0428664066    -0.4037123544
   79      C      -2.4744984070     3.2798566372    -0.8607639184
   80      N      -0.6272631037     0.8583748263    -3.0955539699
   81      S       0.6365657740     1.8371124417    -0.9741784142
   82      C       0.6194257418     1.3084907091    -3.5584671525
   83      C       1.3864184823     1.8555027064    -2.5884125094
   84      C     -14.2139989373    -1.9402454680     0.3737996926
   85      H     -12.7156214053    -0.7967775018     2.1225523286
   86      H     -10.0570542718    -0.3438272854     2.1390113042
   87      H     -10.1738260264    -2.1223290048    -1.7860635984
   88      H      -8.7257806339     1.0824941898     0.3754774796
   89      H      -3.6836275096     5.1023923418    -0.2453580211
   90      H      -1.5141789468     3.7219184897    -1.1008011092
   91      H       0.8476044885     1.2858299347    -4.6159031784
   92      H       2.3605098641     2.2757547441    -2.8045610804
   93      H     -14.5182181067    -2.3578180404    -0.5945064800
   94      C     -15.1290184413    -0.7652569015     0.6248757285
   95      H     -14.4270918655    -2.6918172671     1.1434991370
   96      H     -14.9063879401    -0.0643091948    -0.1894245678
   97      H     -15.0137309011    -0.2000394599     1.5574351243
   98      C     -16.5464167472    -1.2233425577     0.4383239292
   99      H     -17.1557379025    -0.3362421728     0.2255455542
  100      C     -17.0532242570    -1.8568303091     1.7202507667
  101      H     -16.6407877729    -1.8888635181    -0.4292531342
  102      H     -17.2376527966    -0.9987016251     2.3779515160
  103      H     -16.2413376977    -2.4422504903     2.1685335192
  104      C     -18.3027715866    -2.7547073658     1.4664117187
  105      H     -19.1656848635    -2.1493787177     1.1627558208
  106      C     -18.5818966660    -3.6034202634     2.7696187657
  107      H     -18.1349831490    -3.4585132909     0.6412218860
  108      H     -17.7701636319    -4.3100999834     2.9804439415
  109      H     -19.5261799456    -4.1452080962     2.6381043857
  110      H     -18.6322931848    -2.9881560593     3.6771159558
 ----------------------------------------------------------------

   10   -5663.5114329077      4.02E-06 Convergence criterion met
 Total energy in the final basis set = -5663.5114329077

                    Orbital Energies (a.u.)
 --------------------------------------------------------------

 Alpha MOs
 -- Occupied --
-88.991 -88.980 -88.933 -88.931 -88.924 -88.918 -88.909 -88.903
-14.391 -14.388 -14.385 -14.384 -14.353 -14.346 -14.344 -14.341
-14.340 -14.328 -10.277 -10.267 -10.264 -10.258 -10.258 -10.258
-10.255 -10.254 -10.249 -10.245 -10.241 -10.239 -10.238 -10.233
-10.231 -10.230 -10.229 -10.229 -10.228 -10.228 -10.227 -10.227
-10.227 -10.225 -10.224 -10.224 -10.220 -10.219 -10.219 -10.216
-10.216 -10.215 -10.212 -10.203 -10.200 -10.199 -10.196 -10.194
-10.192 -10.188 -10.186 -10.185 -10.184 -10.184 -10.178 -10.177
-10.177 -10.176 -10.174 -10.172  -8.046  -8.036  -7.993  -7.992
 -7.984  -7.978  -7.970  -7.964  -6.012  -6.006  -6.004  -6.001
 -5.996  -5.994  -5.957  -5.956  -5.954  -5.953  -5.950  -5.949
 -5.948  -5.944  -5.942  -5.940  -5.938  -5.935  -5.934  -5.931
 -5.929  -5.926  -5.925  -5.921  -1.040  -1.037  -0.969  -0.969
 -0.967  -0.961  -0.941  -0.928  -0.917  -0.913  -0.910  -0.905
 -0.848  -0.841  -0.833  -0.832  -0.818  -0.811  -0.809  -0.807
 -0.804  -0.802  -0.799  -0.794  -0.787  -0.780  -0.768  -0.768
 -0.751  -0.748  -0.743  -0.741  -0.723  -0.720  -0.713  -0.707
 -0.694  -0.693  -0.677  -0.670  -0.659  -0.654  -0.653  -0.642
 -0.637  -0.636  -0.632  -0.629  -0.614  -0.610  -0.596  -0.594
 -0.591  -0.589  -0.587  -0.585  -0.581  -0.577  -0.569  -0.568
 -0.554  -0.547  -0.543  -0.543  -0.529  -0.521  -0.515  -0.515
 -0.509  -0.507  -0.503  -0.496  -0.491  -0.486  -0.478  -0.476
 -0.475  -0.474  -0.472  -0.469  -0.467  -0.459  -0.454  -0.454
 -0.447  -0.441  -0.438  -0.438  -0.433  -0.431  -0.428  -0.427
 -0.423  -0.423  -0.421  -0.418  -0.417  -0.416  -0.415  -0.415
 -0.414  -0.412  -0.410  -0.406  -0.405  -0.402  -0.399  -0.397
 -0.395  -0.394  -0.393  -0.392  -0.391  -0.389  -0.387  -0.385
 -0.384  -0.382  -0.380  -0.376  -0.364  -0.360  -0.360  -0.357
 -0.356  -0.355  -0.350  -0.348  -0.347  -0.346  -0.345  -0.344
 -0.342  -0.338  -0.335  -0.334  -0.332  -0.332  -0.331  -0.329
 -0.322  -0.319  -0.314  -0.314  -0.303  -0.301  -0.301  -0.299
 -0.294  -0.292  -0.292  -0.290  -0.287  -0.286  -0.283  -0.280
 -0.279  -0.270  -0.268  -0.267  -0.262  -0.253  -0.251  -0.250
 -0.244  -0.243  -0.233  -0.233  -0.195  -0.194

          Ground-State Mulliken Net Atomic Charges

     Atom                 Charge (a.u.)
  ----------------------------------------
      1 C                     0.259228
      2 C                    -0.111316
      3 N                    -0.484153
      4 C                    -0.058203
      5 C                     0.060112
      6 C                     0.033210
      7 C                     0.037993
      8 C                     0.045031
      9 C                     0.231985
     10 N                    -0.522101
     11 N                    -0.572601
     12 C                     0.222244
     13 C                     0.319306
     14 S                     0.593707
     15 N                    -0.563990
     16 C                    -0.201186
     17 S                     0.310435
     18 C                    -0.106095
     19 C                    -0.238032
     20 S                     0.279393
     21 C                     0.153779
     22 C                     0.051791
     23 C                    -0.306674
     24 C                    -0.055111
     25 N                    -0.431633
     26 S                     0.279819
     27 C                     0.126270
     28 C                    -0.301255
     29 C                    -0.221066
     30 H                     0.090666
     31 H                     0.119724
     32 H                     0.096260
     33 H                     0.122918
     34 H                     0.124899
     35 H                     0.126274
     36 H                     0.119684
     37 H                     0.124192
     38 H                     0.091450
     39 C                    -0.192801
     40 H                     0.122679
     41 H                     0.119024
     42 H                     0.089179
     43 C                    -0.190576
     44 H                     0.102913
     45 C                    -0.170708
     46 H                     0.093485
     47 H                     0.096183
     48 H                     0.089341
     49 C                    -0.184700
     50 H                     0.104389
     51 C                    -0.320297
     52 H                     0.095051
     53 H                     0.098949
     54 H                     0.102673
     55 H                     0.104738
     56 C                     0.268208
     57 C                    -0.109093
     58 N                    -0.491206
     59 C                    -0.082229
     60 C                     0.096139
     61 C                     0.041829
     62 C                     0.013523
     63 C                     0.055002
     64 C                     0.198514
     65 N                    -0.541576
     66 N                    -0.516201
     67 C                     0.212867
     68 C                     0.351043
     69 S                     0.587373
     70 N                    -0.570622
     71 C                    -0.234183
     72 S                     0.335448
     73 C                    -0.084076
     74 C                    -0.207244
     75 S                     0.279489
     76 C                     0.138395
     77 C                    -0.002188
     78 C                    -0.321255
     79 C                    -0.076369
     80 N                    -0.384572
     81 S                     0.286214
     82 C                     0.118035
     83 C                    -0.306731
     84 C                    -0.229608
     85 H                     0.081710
     86 H                     0.108796
     87 H                     0.112132
     88 H                     0.105302
     89 H                     0.130157
     90 H                     0.112649
     91 H                     0.121273
     92 H                     0.138306
     93 H                     0.124491
     94 C                    -0.185169
     95 H                     0.112610
     96 H                     0.097520
     97 H                     0.090582
     98 C                    -0.178514
     99 H                     0.087817
    100 C                    -0.165632
    101 H                     0.091982
    102 H                     0.094904
    103 H                     0.089427
    104 C                    -0.178697
    105 H                     0.097101
    106 C                    -0.323338
    107 H                     0.098452
    108 H                     0.104599
    109 H                     0.097741
    110 H                     0.102395
  ----------------------------------------
  Sum of atomic charges =     0.000000

                    Cartesian Multipole Moments
 -----------------------------------------------------------------
    Charge (ESU x 10^10)
                 0.0000
    Dipole Moment (Debye)
         X       2.3122      Y       1.5610      Z       4.2874
       Tot       5.1151
    Quadrupole Moments (Debye-Ang)
        XX    -422.2198     XY     -17.5622     YY    -416.0745
        XZ      -1.5504     YZ      -0.2338     ZZ    -438.7311

 Total job time:  90.03s(wall), 1059.01s(cpu)
        *  Thank you very much for using Q-Chem.  Have a nice day.  *
