 Q-Chem 4.4, Q-Chem, Inc., Pleasanton, CA (2016)
 Q-Chem 4.4.2 for Intel X86 Linux

User input:
--------------------------------------------------------------
$comment
SP
$end

$rem
MEM_STATIC 5000
MEM_TOTAL 20000
JOBTYPE SP
EXCHANGE B3LYP
BASIS 6-31g(d,p)
$end

$molecule
0 1
C          10.797000      1.155000     -8.930000
C           9.849000      1.855000     -9.637000
N          11.949000      1.657000     -8.503000
C          10.071000      3.199000     -9.963000
C          12.130000      2.951000     -8.805000
C          11.363000      3.696000     -9.626000
C          11.791000      5.067000    -10.059000
C          10.927000      6.089000    -10.039000
C          13.156000      5.511000    -10.221000
N          11.188000      7.407000    -10.053000
N          14.189000      4.638000    -10.264000
C          13.447000      6.850000    -10.252000
C          12.436000      7.824000    -10.206000
S          15.490000      5.642000    -10.270000
N          14.773000      7.108000    -10.410000
C          12.663000      9.265000    -10.202000
S          14.227000     10.018000    -10.659000
C          11.767000     10.297000     -9.869000
C          13.636000     11.636000    -10.394000
S          10.175000     10.172000     -9.256000
C          12.316000     11.563000    -10.024000
C          14.354000     12.860000    -10.560000
C          10.222000     11.890000     -9.256000
C          11.410000     12.479000     -9.632000
N          13.729000     13.961000    -10.915000
S          16.022000     13.000000    -10.005000
C          14.613000     15.045000    -10.725000
C          15.878000     14.724000    -10.206000
C          10.601000     -0.309000     -8.638000
H           8.946000      1.395000    -10.027000
H           9.311000      3.862000    -10.366000
H          13.092000      3.311000     -8.445000
H           9.870000      5.916000     -9.844000
H           9.399000     12.500000     -8.908000
H          11.549000     13.553000     -9.685000
H          14.286000     16.023000    -11.052000
H          16.792000     15.297000    -10.124000
H          10.642000     -0.377000     -7.544000
C          11.663000     -1.301000     -9.268000
H           9.604000     -0.632000     -8.963000
H          12.665000     -0.943000     -9.002000
H          11.603000     -1.193000    -10.358000
C          11.486000     -2.752000     -8.736000
H          10.506000     -3.060000     -9.119000
C          11.678000     -3.023000     -7.227000
H          12.165000     -3.361000     -9.345000
H          10.921000     -2.543000     -6.595000
H          12.666000     -2.587000     -7.035000
C          11.719000     -4.478000     -6.812000
H          11.666000     -4.601000     -5.723000
C          12.952000     -5.279000     -7.295000
H          10.803000     -4.954000     -7.185000
H          12.830000     -6.369000     -7.263000
H          13.805000     -5.022000     -6.654000
H          13.332000     -4.904000     -8.253000
C           5.891000     14.821000      7.122000
C           5.151000     13.676000      6.866000
N           6.470000     15.507000      6.091000
C           4.988000     13.121000      5.559000
C           6.304000     15.015000      4.833000
C           5.598000     13.840000      4.511000
C           5.756000     13.341000      3.112000
C           6.153000     12.041000      2.845000
C           5.405000     14.069000      1.917000
N           6.210000     11.500000      1.624000
N           4.981000     15.354000      1.959000
C           5.382000     13.473000      0.652000
C           5.856000     12.117000      0.548000
S           4.561000     15.646000      0.433000
N           4.908000     14.215000     -0.348000
C           5.952000     11.419000     -0.757000
S           5.606000     12.046000     -2.355000
C           6.392000     10.134000     -0.842000
C           6.150000     10.603000     -3.178000
S           6.953000      8.936000      0.263000
C           6.567000      9.782000     -2.173000
C           6.422000     10.386000     -4.549000
C           7.428000      7.936000     -1.059000
C           7.189000      8.519000     -2.290000
N           7.406000     11.122000     -5.019000
S           5.876000      8.989000     -5.425000
C           7.755000     10.628000     -6.286000
C           7.066000      9.519000     -6.638000
C           5.994000     15.438000      8.540000
H           4.808000     13.275000      7.815000
H           4.458000     12.192000      5.370000
H           6.830000     15.534000      4.033000
H           6.371000     11.443000      3.728000
H           7.873000      7.002000     -0.743000
H           7.410000      8.004000     -3.218000
H           8.573000     11.073000     -6.837000
H           7.253000      9.008000     -7.574000
H           6.649000     16.316000      8.472000
C           6.585000     14.562000      9.619000
H           5.014000     15.779000      8.895000
H           7.574000     14.282000      9.235000
H           6.076000     13.624000      9.871000
C           6.808000     15.405000     10.841000
H           7.571000     14.907000     11.452000
C           5.526000     15.487000     11.648000
H           7.207000     16.393000     10.578000
H           5.460000     14.504000     12.130000
H           4.679000     15.568000     10.956000
C           5.543000     16.691000     12.639000
H           6.291000     16.540000     13.427000
C           4.084000     16.887000     13.213000
H           5.831000     17.624000     12.138000
H           3.372000     17.180000     12.432000
H           4.117000     17.653000     13.997000
H           3.657000     15.961000     13.619000
$end

--------------------------------------------------------------

             Standard Nuclear Orientation (Angstroms)
    I     Atom           X                Y                Z
 ----------------------------------------------------------------
    1      C      -8.6533034044     4.7572433364    -0.4881657417
    2      C      -8.5386743136     4.0809256796    -1.6789669840
    3      N      -8.4784955090     4.2166090414     0.7112481813
    4      C      -8.2231775413     2.7162441262    -1.6803968292
    5      C      -8.1536093067     2.9157688707     0.6854643538
    6      C      -8.1724326454     2.1074863314    -0.3932756606
    7      C      -8.0024739072     0.6233507442    -0.2562735208
    8      C      -7.1811467508    -0.0470957127    -1.0731598353
    9      C      -8.4014941075    -0.1681148289     0.8843272535
   10      N      -6.6433749308    -1.2667755935    -0.9039751496
   11      N      -9.2287781944     0.3210839438     1.8368778298
   12      C      -7.8777353931    -1.4206770554     1.0722838388
   13      C      -7.0067049246    -2.0021111033     0.1362531925
   14      S      -9.2078730867    -0.8771196796     2.9613884138
   15      N      -8.3502615237    -2.0386290333     2.1879264378
   16      C      -6.3825691909    -3.3130999754     0.2769257311
   17      S      -6.9372316569    -4.5477484132     1.4558857744
   18      C      -5.2953553113    -3.8520595651    -0.4345639319
   19      C      -5.7274682816    -5.7015848859     0.9633779369
   20      S      -4.3004700862    -3.0923132058    -1.6002598007
   21      C      -4.9979093782    -5.1568317556    -0.0640542183
   22      C      -5.5194273804    -7.0159393938     1.4834233302
   23      C      -3.4805285514    -4.6023253306    -1.6362078530
   24      C      -3.9165740920    -5.5672101783    -0.7538799564
   25      N      -5.0437985063    -7.9726232257     0.7170133747
   26      S      -5.6025730965    -7.3136210565     3.2196034526
   27      C      -4.6791332782    -9.0551754457     1.5462973805
   28      C      -4.8719979748    -8.8668758983     2.9246926392
   29      C      -9.0636146326     6.2058198688    -0.4724582414
   30      H      -8.7521846644     4.5393316373    -2.6398969024
   31      H      -7.9510670170     2.1544946435    -2.5692001715
   32      H      -8.0337339732     2.5173888904     1.6912313724
   33      H      -6.7335034570     0.4462041610    -1.9342485160
   34      H      -2.6128628584    -4.7848248956    -2.2561942672
   35      H      -3.4852927835    -6.5605559812    -0.7003397956
   36      H      -4.3471886751    -9.9660297565     1.0661940529
   37      H      -4.8530072041    -9.5567714573     3.7578387658
   38      H      -8.2388498191     6.7175979985     0.0384107715
   39      C     -10.4273198481     6.5434909330     0.2590431856
   40      H      -9.1250947987     6.5953343943    -1.4964023921
   41      H     -10.3976282116     6.0972737747     1.2605084393
   42      H     -11.2226487530     6.0031886187    -0.2690565609
   43      C     -10.6466621330     8.0775297182     0.3945716609
   44      H     -10.7531464484     8.4252572717    -0.6396911873
   45      C      -9.6435598156     8.9046940023     1.2294195439
   46      H     -11.6707160524     8.1842198805     0.7723729040
   47      H      -8.6362124214     8.9394266699     0.7970795513
   48      H      -9.6299125525     8.3626000572     2.1828616800
   49      C     -10.0357854854    10.3391378151     1.5113077701
   50      H      -9.2083217709    10.9198918560     1.9377905307
   51      C     -11.2501280806    10.5303138952     2.4515219838
   52      H     -10.2389011150    10.8218840699     0.5467036573
   53      H     -11.7120027147    11.5245550501     2.4049994278
   54      H     -10.9174998144    10.3673879235     3.4846495482
   55      H     -11.9668310077     9.7047283620     2.3647208217
   56      C      12.5507750195     0.8311520015     1.3740804881
   57      C      12.0524904291     1.9035879716     0.6489911439
   58      N      11.8564520232    -0.3454975039     1.4210860004
   59      C      10.7978920823     1.8751421069    -0.0351264052
   60      C      10.6726815492    -0.4074370526     0.7524792720
   61      C      10.0950439769     0.6548978215     0.0310054677
   62      C       8.6800439137     0.4597627125    -0.4058733603
   63      C       7.6926338090     1.3831042159    -0.1036156009
   64      C       8.2065404057    -0.5941341442    -1.2697633089
   65      N       6.4351014412     1.3247017182    -0.5530290988
   66      N       9.0168189360    -1.5928838355    -1.6925076259
   67      C       6.9156187121    -0.6034934153    -1.8077257472
   68      C       6.0035126496     0.4186718591    -1.3633512628
   69      S       8.0915730296    -2.3894774918    -2.7411727580
   70      N       6.6482468514    -1.5569028437    -2.6992204191
   71      C       4.5886417780     0.4520983985    -1.8065984662
   72      S       3.7427719013    -0.6853266878    -2.8348092056
   73      C       3.7383727968     1.4287322908    -1.3879352364
   74      C       2.1899576115     0.0915060035    -2.6327875452
   75      S       3.8364293672     2.8028663142    -0.3520343749
   76      C       2.4431402709     1.1299525603    -1.7869256832
   77      C       0.8940303227    -0.3657904274    -2.9677001252
   78      C       2.1259691306     2.9992999279    -0.4471585814
   79      C       1.5132577992     2.0291066367    -1.2189621846
   80      N       0.5272494275    -1.4484616145    -2.3164345301
   81      S      -0.2905190169     0.6165884170    -3.7732283174
   82      C      -0.8480556386    -1.6391220223    -2.5245464805
   83      C      -1.4235296188    -0.6512180984    -3.2466140226
   84      C      13.9454568751     0.8672091470     2.0490504162
   85      H      12.7361784680     2.7389457912     0.7664601976
   86      H      10.3834568792     2.7358615559    -0.5519121370
   87      H      10.1001266717    -1.3277243785     0.8587296841
   88      H       8.0279828020     2.2244083225     0.5001769572
   89      H       1.7646623223     3.8381050870     0.1325829950
   90      H       0.4436616286     2.0315749442    -1.3956198745
   91      H      -1.3620442914    -2.4614018545    -2.0445240410
   92      H      -2.4854510419    -0.6472590636    -3.4575481764
   93      H      14.0855831286    -0.0884320052     2.5702486715
   94      C      14.1689117177     1.9421210319     3.0861282209
   95      H      14.7436054685     0.9609059684     1.3028026500
   96      H      13.3741378646     1.7807446407     3.8252284732
   97      H      14.0943195264     2.9919837663     2.7784705477
   98      C      15.4746142620     1.6686759139     3.7746270467
   99      H      15.4476745701     2.1737172979     4.7481266376
  100      C      16.6146417956     2.2536580230     2.9624508621
  101      H      15.6039533027     0.5976055023     3.9761055464
  102      H      16.5438176570     3.3310636757     3.1551942175
  103      H      16.4038120513     2.0987389426     1.8973757956
  104      C      17.9852811146     1.6183413431     3.3493701992
  105      H      18.2738340251     1.8992527366     4.3697010313
  106      C      19.0580333288     2.0489092707     2.2721576173
  107      H      17.9375516332     0.5219136601     3.3508643313
  108      H      18.8313989632     1.6382501317     1.2808201693
  109      H      20.0445809251     1.7041633113     2.6043850449
  110      H      19.0829035870     3.1332506732     2.1041510900
 ----------------------------------------------------------------

   10   -5663.5126197377      4.18E-06 Convergence criterion met
 Total energy in the final basis set = -5663.5126197377

                    Orbital Energies (a.u.)
 --------------------------------------------------------------

 Alpha MOs
 -- Occupied --
-88.990 -88.980 -88.935 -88.927 -88.927 -88.920 -88.919 -88.903
-14.393 -14.390 -14.388 -14.385 -14.351 -14.348 -14.346 -14.341
-14.329 -14.328 -10.271 -10.266 -10.263 -10.259 -10.259 -10.256
-10.254 -10.250 -10.245 -10.239 -10.238 -10.237 -10.233 -10.232
-10.231 -10.231 -10.231 -10.228 -10.228 -10.228 -10.224 -10.224
-10.222 -10.220 -10.219 -10.219 -10.218 -10.217 -10.217 -10.216
-10.216 -10.214 -10.201 -10.200 -10.199 -10.197 -10.192 -10.188
-10.186 -10.184 -10.183 -10.182 -10.179 -10.179 -10.178 -10.178
-10.177 -10.174 -10.172 -10.171  -8.046  -8.037  -7.996  -7.988
 -7.986  -7.981  -7.978  -7.964  -6.011  -6.005  -6.003  -6.002
 -5.996  -5.994  -5.959  -5.957  -5.953  -5.952  -5.950  -5.948
 -5.946  -5.945  -5.945  -5.943  -5.942  -5.942  -5.939  -5.937
 -5.935  -5.929  -5.925  -5.921  -1.044  -1.040  -0.971  -0.971
 -0.968  -0.968  -0.952  -0.928  -0.925  -0.918  -0.911  -0.910
 -0.857  -0.848  -0.841  -0.833  -0.818  -0.812  -0.810  -0.807
 -0.804  -0.803  -0.803  -0.795  -0.788  -0.780  -0.772  -0.769
 -0.756  -0.752  -0.749  -0.742  -0.725  -0.724  -0.712  -0.707
 -0.696  -0.694  -0.676  -0.671  -0.664  -0.653  -0.650  -0.643
 -0.642  -0.637  -0.631  -0.629  -0.615  -0.611  -0.602  -0.596
 -0.595  -0.592  -0.587  -0.585  -0.585  -0.578  -0.569  -0.561
 -0.558  -0.548  -0.547  -0.544  -0.529  -0.522  -0.517  -0.517
 -0.516  -0.509  -0.503  -0.497  -0.490  -0.486  -0.478  -0.478
 -0.476  -0.473  -0.471  -0.469  -0.459  -0.455  -0.454  -0.449
 -0.446  -0.443  -0.440  -0.439  -0.438  -0.434  -0.432  -0.429
 -0.428  -0.427  -0.423  -0.422  -0.418  -0.417  -0.417  -0.416
 -0.415  -0.414  -0.411  -0.406  -0.402  -0.401  -0.399  -0.399
 -0.396  -0.393  -0.392  -0.391  -0.390  -0.388  -0.385  -0.385
 -0.381  -0.378  -0.376  -0.374  -0.372  -0.363  -0.361  -0.356
 -0.355  -0.353  -0.350  -0.348  -0.347  -0.346  -0.344  -0.343
 -0.340  -0.338  -0.338  -0.335  -0.332  -0.332  -0.329  -0.321
 -0.319  -0.319  -0.315  -0.313  -0.307  -0.304  -0.300  -0.299
 -0.294  -0.294  -0.294  -0.292  -0.288  -0.288  -0.285  -0.281
 -0.280  -0.275  -0.268  -0.263  -0.261  -0.259  -0.255  -0.250
 -0.249  -0.244  -0.235  -0.233  -0.198  -0.196

          Ground-State Mulliken Net Atomic Charges

     Atom                 Charge (a.u.)
  ----------------------------------------
      1 C                     0.274233
      2 C                    -0.120807
      3 N                    -0.473701
      4 C                    -0.077901
      5 C                     0.068078
      6 C                     0.052975
      7 C                     0.078199
      8 C                     0.042221
      9 C                     0.193210
     10 N                    -0.544303
     11 N                    -0.537560
     12 C                     0.209297
     13 C                     0.328655
     14 S                     0.600750
     15 N                    -0.555668
     16 C                    -0.238256
     17 S                     0.324480
     18 C                    -0.110431
     19 C                    -0.225825
     20 S                     0.297860
     21 C                     0.197685
     22 C                     0.053600
     23 C                    -0.316807
     24 C                    -0.081024
     25 N                    -0.422562
     26 S                     0.272638
     27 C                     0.100859
     28 C                    -0.302549
     29 C                    -0.221006
     30 H                     0.092508
     31 H                     0.105593
     32 H                     0.104731
     33 H                     0.094456
     34 H                     0.119405
     35 H                     0.122127
     36 H                     0.116607
     37 H                     0.142328
     38 H                     0.119469
     39 C                    -0.184448
     40 H                     0.084420
     41 H                     0.115223
     42 H                     0.091283
     43 C                    -0.179826
     44 H                     0.085405
     45 C                    -0.169036
     46 H                     0.093315
     47 H                     0.094663
     48 H                     0.095999
     49 C                    -0.173657
     50 H                     0.093382
     51 C                    -0.325844
     52 H                     0.091170
     53 H                     0.104275
     54 H                     0.101418
     55 H                     0.104843
     56 C                     0.268603
     57 C                    -0.109365
     58 N                    -0.491431
     59 C                    -0.081964
     60 C                     0.096201
     61 C                     0.041287
     62 C                     0.013797
     63 C                     0.055669
     64 C                     0.198350
     65 N                    -0.541726
     66 N                    -0.516004
     67 C                     0.213202
     68 C                     0.351252
     69 S                     0.587129
     70 N                    -0.570746
     71 C                    -0.234021
     72 S                     0.334913
     73 C                    -0.083557
     74 C                    -0.207013
     75 S                     0.280827
     76 C                     0.138547
     77 C                    -0.000041
     78 C                    -0.319304
     79 C                    -0.071551
     80 N                    -0.384722
     81 S                     0.280585
     82 C                     0.122009
     83 C                    -0.304430
     84 C                    -0.229635
     85 H                     0.081864
     86 H                     0.109087
     87 H                     0.112048
     88 H                     0.105628
     89 H                     0.131661
     90 H                     0.107018
     91 H                     0.119364
     92 H                     0.131872
     93 H                     0.124483
     94 C                    -0.185482
     95 H                     0.112697
     96 H                     0.097507
     97 H                     0.090670
     98 C                    -0.178224
     99 H                     0.087797
    100 C                    -0.165409
    101 H                     0.091890
    102 H                     0.094917
    103 H                     0.089435
    104 C                    -0.178935
    105 H                     0.097142
    106 C                    -0.323246
    107 H                     0.098435
    108 H                     0.104592
    109 H                     0.097720
    110 H                     0.102461
  ----------------------------------------
  Sum of atomic charges =     0.000000

                    Cartesian Multipole Moments
 -----------------------------------------------------------------
    Charge (ESU x 10^10)
                 0.0000
    Dipole Moment (Debye)
         X      -1.5536      Y       1.2743      Z      -0.2322
       Tot       2.0227
    Quadrupole Moments (Debye-Ang)
        XX    -433.3320     XY      20.8257     YY    -414.1056
        XZ       5.4677     YZ     -17.9932     ZZ    -432.6573

 Total job time:  86.57s(wall), 1010.71s(cpu)
        *  Thank you very much for using Q-Chem.  Have a nice day.  *
