 Q-Chem 4.4, Q-Chem, Inc., Pleasanton, CA (2016)
 Q-Chem 4.4.2 for Intel X86 Linux

User input:
--------------------------------------------------------------
$comment
SP
$end

$rem
MEM_STATIC 5000
MEM_TOTAL 20000
JOBTYPE SP
EXCHANGE B3LYP
BASIS 6-31g(d,p)
$end

$molecule
0 1
C           7.345000     20.227000     -2.659000
C           7.792000     20.765000     -1.496000
N           6.259000     19.424000     -2.718000
C           7.084000     20.518000     -0.311000
C           5.601000     19.176000     -1.655000
C           5.989000     19.602000     -0.398000
C           5.204000     19.332000      0.869000
C           3.799000     19.478000      0.810000
C           5.755000     18.983000      2.095000
N           3.038000     19.098000      1.825000
N           7.040000     18.929000      2.324000
C           4.906000     18.589000      3.108000
C           3.482000     18.603000      3.011000
S           7.157000     18.345000      3.875000
N           5.567000     18.300000      4.311000
C           2.470000     18.169000      4.036000
S           2.770000     17.127000      5.470000
C           1.103000     18.337000      3.890000
C           1.068000     16.903000      5.775000
S           0.242000     19.226000      2.734000
C           0.301000     17.630000      4.856000
C           0.557000     15.992000      6.784000
C          -1.238000     18.603000      3.436000
C          -1.055000     17.773000      4.515000
N          -0.727000     16.055000      7.020000
S           1.546000     15.155000      7.943000
C          -1.044000     15.362000      8.142000
C           0.057000     14.726000      8.727000
C           7.988000     20.594000     -3.973000
H           8.647000     21.433000     -1.507000
H           7.430000     20.886000      0.650000
H           4.679000     18.609000     -1.778000
H           3.265000     19.791000     -0.086000
H          -2.168000     18.959000      3.012000
H          -1.915000     17.301000      4.976000
H          -2.079000     15.166000      8.391000
H           0.075000     13.965000      9.496000
H           7.219000     21.133000     -4.541000
C           8.523000     19.317000     -4.711000
H           8.813000     21.318000     -3.966000
H           7.688000     18.656000     -4.976000
H           9.214000     18.739000     -4.086000
C           9.268000     19.776000     -5.984000
H           8.618000     20.415000     -6.593000
C           9.564000     18.482000     -6.834000
H          10.195000     20.335000     -5.808000
H           8.605000     18.030000     -7.116000
H          10.159000     17.749000     -6.276000
C          10.311000     18.910000     -8.126000
H           9.737000     19.667000     -8.674000
C          10.641000     17.738000     -9.017000
H          11.292000     19.310000     -7.841000
H          11.201000     16.930000     -8.531000
H          11.198000     18.012000     -9.921000
H           9.737000     17.353000     -9.506000
C           5.891000     14.821000      7.122000
C           5.151000     13.676000      6.866000
N           6.470000     15.507000      6.091000
C           4.988000     13.121000      5.559000
C           6.304000     15.015000      4.833000
C           5.598000     13.840000      4.511000
C           5.756000     13.341000      3.112000
C           6.153000     12.041000      2.845000
C           5.405000     14.069000      1.917000
N           6.210000     11.500000      1.624000
N           4.981000     15.354000      1.959000
C           5.382000     13.473000      0.652000
C           5.856000     12.117000      0.548000
S           4.561000     15.646000      0.433000
N           4.908000     14.215000     -0.348000
C           5.952000     11.419000     -0.757000
S           5.606000     12.046000     -2.355000
C           6.392000     10.134000     -0.842000
C           6.150000     10.603000     -3.178000
S           6.953000      8.936000      0.263000
C           6.567000      9.782000     -2.173000
C           6.422000     10.386000     -4.549000
C           7.428000      7.936000     -1.059000
C           7.189000      8.519000     -2.290000
N           7.406000     11.122000     -5.019000
S           5.876000      8.989000     -5.425000
C           7.755000     10.628000     -6.286000
C           7.066000      9.519000     -6.638000
C           5.994000     15.438000      8.540000
H           4.808000     13.275000      7.815000
H           4.458000     12.192000      5.370000
H           6.830000     15.534000      4.033000
H           6.371000     11.443000      3.728000
H           7.873000      7.002000     -0.743000
H           7.410000      8.004000     -3.218000
H           8.573000     11.073000     -6.837000
H           7.253000      9.008000     -7.574000
H           6.649000     16.316000      8.472000
C           6.585000     14.562000      9.619000
H           5.014000     15.779000      8.895000
H           7.574000     14.282000      9.235000
H           6.076000     13.624000      9.871000
C           6.808000     15.405000     10.841000
H           7.571000     14.907000     11.452000
C           5.526000     15.487000     11.648000
H           7.207000     16.393000     10.578000
H           5.460000     14.504000     12.130000
H           4.679000     15.568000     10.956000
C           5.543000     16.691000     12.639000
H           6.291000     16.540000     13.427000
C           4.084000     16.887000     13.213000
H           5.831000     17.624000     12.138000
H           3.372000     17.180000     12.432000
H           4.117000     17.653000     13.997000
H           3.657000     15.961000     13.619000
$end

--------------------------------------------------------------

             Standard Nuclear Orientation (Angstroms)
    I     Atom           X                Y                Z
 ----------------------------------------------------------------
    1      C       4.0419509399    -5.4886832268    -0.8761701633
    2      C       3.0226907763    -5.8107588874    -1.7123507585
    3      N       3.8684772933    -4.7080060050     0.2138463363
    4      C       1.7287267422    -5.3553276595    -1.4212537385
    5      C       2.7045248573    -4.2734347529     0.4980989590
    6      C       1.5972558901    -4.4684598274    -0.3068790871
    7      C       0.2053709861    -3.9756713763     0.0311001373
    8      C      -0.2349607212    -4.1283996190     1.3658675595
    9      C      -0.6878768874    -3.4138674960    -0.8716526731
   10      N      -1.3666364439    -3.5724179257     1.7707631204
   11      N      -0.4608403706    -3.3211690476    -2.1547907864
   12      C      -1.8448003840    -2.8443766116    -0.3823530148
   13      C      -2.2340022151    -2.8739956252     0.9906093477
   14      S      -1.7610585314    -2.4696408262    -2.7418839837
   15      N      -2.6900161245    -2.3458305583    -1.3847068369
   16      C      -3.4498780083    -2.2628349345     1.6318999728
   17      S      -4.5031147766    -0.9817618184     0.9378798140
   18      C      -3.8005423474    -2.4527889997     2.9582411711
   19      C      -5.3179352904    -0.7051132342     2.4543026083
   20      S      -3.1670539511    -3.5330820275     4.0982575859
   21      C      -4.8453683188    -1.5837761506     3.4371611620
   22      C      -6.2707903958     0.3719965919     2.6568478392
   23      C      -4.2083002670    -2.7931686872     5.2981189772
   24      C      -5.0073547145    -1.7839749717     4.8188799610
   25      N      -6.9300975851     0.3535009547     3.7852506669
   26      S      -6.8729746923     1.4015285612     1.3921704110
   27      C      -7.9595258367     1.2360991522     3.7549208678
   28      C      -8.0259732469     1.9652183012     2.5620704966
   29      C       5.4135058041    -6.0851590773    -1.0705610431
   30      H       3.2064872339    -6.4708703686    -2.5536840423
   31      H       0.8915906170    -5.5461138517    -2.0856818660
   32      H       2.6054894242    -3.7365644932     1.4407888906
   33      H       0.3641173748    -4.5958549987     2.1459521081
   34      H      -4.1866353659    -3.2182108826     6.2932479960
   35      H      -5.6430632731    -1.2363262897     5.5050727544
   36      H      -8.5038359215     1.4745010044     4.6596490526
   37      H      -8.6045165279     2.8513207232     2.3364243804
   38      H       5.5917088565    -6.7161472361    -0.1904453600
   39      C       6.4921791734    -4.9610764084    -1.2563025730
   40      H       5.5611260397    -6.7971235095    -1.8928535174
   41      H       6.5697696199    -4.3571727639    -0.3432576066
   42      H       6.2415956872    -4.2814528528    -2.0794123707
   43      C       7.8443582383    -5.6408553208    -1.5657333516
   44      H       8.0835477243    -6.3776825559    -0.7901200360
   45      C       8.9497115152    -4.5198029353    -1.4883532367
   46      H       7.8972822439    -6.1603924945    -2.5301327371
   47      H       8.9662969142    -4.1244455070    -0.4651590086
   48      H       8.7552418119    -3.6995399400    -2.1898004215
   49      C      10.3254028565    -5.1724763070    -1.7915821990
   50      H      10.5135850863    -6.0145889568    -1.1146311420
   51      C      11.4595734685    -4.1788207076    -1.7399046151
   52      H      10.3221721220    -5.5161570703    -2.8334358813
   53      H      11.3327837171    -3.2975882532    -2.3802277525
   54      H      12.4379211168    -4.6104678292    -1.9829223954
   55      H      11.6751768667    -3.8864176812    -0.7042513696
   56      C      -4.6007788252     1.5789860933    -2.4118086591
   57      C      -4.4180958583     2.6606144131    -1.5627691363
   58      N      -3.5668136895     0.7192571982    -2.6579393666
   59      C      -3.1673850147     2.9733995426    -0.9457352243
   60      C      -2.3731590172     0.9788111274    -2.0579357991
   61      C      -2.1128462841     2.0781325426    -1.2174153014
   62      C      -0.6788163839     2.3190510000    -0.8758270372
   63      C      -0.0791174200     3.5500382379    -1.0854208653
   64      C       0.1887333540     1.3896715834    -0.1940489560
   65      N       1.1631619548     3.8641810132    -0.7048590810
   66      N      -0.2088848227     0.1332813162     0.1160289084
   67      C       1.4542952479     1.7501537182     0.2796341904
   68      C       1.9381067241     3.0652755225    -0.0529452666
   69      S       1.0159572834    -0.4261621489     0.9975757447
   70      N       2.0975237717     0.8419587200     1.0122179137
   71      C       3.2977964505     3.5188484910     0.3277914014
   72      S       4.5576636969     2.6168549546     1.1436291193
   73      C       3.7406355662     4.7675413703     0.0168097128
   74      C       5.7461481529     3.8890756751     0.9871901982
   75      S       3.1061000117     6.1430673735    -0.8055301468
   76      C       5.0925240359     4.8759525733     0.3113170582
   77      C       7.1448272600     3.8574122172     1.1955364989
   78      C       4.6593761698     6.8903523145    -0.7585472364
   79      C       5.6222540035     6.0970939468    -0.1619079489
   80      N       7.7858705008     3.0482727182     0.3799331428
   81      S       8.0097476548     5.0760402919     2.0809512752
   82      C       9.1606321824     3.3076508607     0.4977435745
   83      C       9.4433174696     4.3366573900     1.3282498003
   84      C      -5.9849395781     1.2250875554    -3.0125389106
   85      H      -5.3450934844     3.2250342691    -1.5287599113
   86      H      -3.0129357333     3.8542508151    -0.3293680812
   87      H      -1.5429263677     0.3247132011    -2.3204365622
   88      H      -0.7238760017     4.2959168578    -1.5466891776
   89      H       4.6729360496     7.8653123446    -1.2270619846
   90      H       6.6434252952     6.4378203463    -0.0339833085
   91      H       9.8702688210     2.7705357034    -0.1176206664
   92      H      10.4598472302     4.6720545346     1.4906135932
   93      H      -5.8506794217     0.3483801740    -3.6589840961
   94      C      -6.6396342373     2.2791168081    -3.8735239498
   95      H      -6.6996728124     0.9540024929    -2.2261704901
   96      H      -5.9052907032     2.4849935194    -4.6624037591
   97      H      -6.8854739847     3.2475736644    -3.4217683344
   98      C      -7.8400285183     1.6677182080    -4.5360247587
   99      H      -8.0670193180     2.2660527383    -5.4270718768
  100      C      -9.0312275564     1.7325190724    -3.5988253670
  101      H      -7.6292526583     0.6482151400    -4.8834452980
  102      H      -9.3343840088     2.7858741192    -3.6376623449
  103      H      -8.6869384823     1.5300971120    -2.5773928517
  104      C     -10.1473238192     0.7248791274    -4.0123188654
  105      H     -10.6019516960     1.0134260251    -4.9679878360
  106      C     -11.2010032907     0.6360787849    -2.8382460096
  107      H      -9.7437928931    -0.2829049324    -4.1734650122
  108      H     -10.7647609417     0.2090285173    -1.9271616656
  109      H     -12.0459678901     0.0224032509    -3.1728176234
  110      H     -11.5641814492     1.6201510336    -2.5152221183
 ----------------------------------------------------------------

   10   -5663.5246529779      3.24E-06 Convergence criterion met
 Total energy in the final basis set = -5663.5246529779

                    Orbital Energies (a.u.)
 --------------------------------------------------------------

 Alpha MOs
 -- Occupied --
-88.980 -88.978 -88.935 -88.928 -88.920 -88.919 -88.903 -88.903
-14.387 -14.385 -14.383 -14.372 -14.346 -14.341 -14.339 -14.337
-14.332 -14.318 -10.266 -10.265 -10.263 -10.259 -10.254 -10.249
-10.247 -10.242 -10.241 -10.237 -10.233 -10.232 -10.232 -10.232
-10.230 -10.230 -10.230 -10.229 -10.228 -10.226 -10.223 -10.222
-10.219 -10.219 -10.217 -10.216 -10.216 -10.215 -10.214 -10.213
-10.207 -10.206 -10.205 -10.202 -10.197 -10.192 -10.190 -10.187
-10.187 -10.185 -10.180 -10.180 -10.179 -10.175 -10.175 -10.174
-10.174 -10.173 -10.172 -10.164  -8.036  -8.033  -7.996  -7.989
 -7.978  -7.978  -7.964  -7.964  -6.001  -5.998  -5.995  -5.993
 -5.992  -5.990  -5.960  -5.957  -5.953  -5.953  -5.950  -5.947
 -5.943  -5.942  -5.939  -5.938  -5.935  -5.935  -5.929  -5.928
 -5.925  -5.925  -5.921  -5.920  -1.040  -1.027  -0.976  -0.971
 -0.968  -0.952  -0.949  -0.931  -0.918  -0.910  -0.906  -0.896
 -0.848  -0.843  -0.833  -0.821  -0.819  -0.810  -0.807  -0.803
 -0.802  -0.798  -0.795  -0.792  -0.783  -0.782  -0.769  -0.762
 -0.753  -0.747  -0.742  -0.739  -0.724  -0.717  -0.708  -0.704
 -0.694  -0.687  -0.671  -0.666  -0.654  -0.646  -0.643  -0.640
 -0.637  -0.630  -0.626  -0.619  -0.612  -0.606  -0.596  -0.594
 -0.592  -0.590  -0.586  -0.578  -0.578  -0.576  -0.571  -0.569
 -0.548  -0.545  -0.544  -0.531  -0.522  -0.519  -0.516  -0.511
 -0.506  -0.501  -0.497  -0.496  -0.488  -0.488  -0.477  -0.473
 -0.473  -0.471  -0.469  -0.466  -0.461  -0.456  -0.455  -0.445
 -0.443  -0.439  -0.439  -0.437  -0.433  -0.432  -0.429  -0.426
 -0.424  -0.421  -0.419  -0.418  -0.418  -0.417  -0.416  -0.416
 -0.410  -0.408  -0.406  -0.403  -0.400  -0.399  -0.396  -0.394
 -0.391  -0.389  -0.389  -0.386  -0.384  -0.384  -0.382  -0.380
 -0.378  -0.377  -0.376  -0.367  -0.362  -0.361  -0.357  -0.351
 -0.350  -0.349  -0.347  -0.345  -0.344  -0.344  -0.341  -0.339
 -0.338  -0.336  -0.335  -0.333  -0.332  -0.331  -0.327  -0.324
 -0.319  -0.316  -0.312  -0.310  -0.300  -0.300  -0.296  -0.294
 -0.291  -0.290  -0.288  -0.285  -0.285  -0.284  -0.282  -0.280
 -0.268  -0.263  -0.261  -0.255  -0.255  -0.252  -0.248  -0.245
 -0.244  -0.239  -0.233  -0.227  -0.196  -0.188

          Ground-State Mulliken Net Atomic Charges

     Atom                 Charge (a.u.)
  ----------------------------------------
      1 C                     0.273829
      2 C                    -0.116712
      3 N                    -0.474101
      4 C                    -0.060173
      5 C                     0.087030
      6 C                     0.022445
      7 C                    -0.028654
      8 C                     0.069817
      9 C                     0.296939
     10 N                    -0.530879
     11 N                    -0.574627
     12 C                     0.143371
     13 C                     0.317909
     14 S                     0.601647
     15 N                    -0.528239
     16 C                    -0.210816
     17 S                     0.326937
     18 C                    -0.118145
     19 C                    -0.252109
     20 S                     0.292069
     21 C                     0.173479
     22 C                     0.073229
     23 C                    -0.308829
     24 C                    -0.063333
     25 N                    -0.423306
     26 S                     0.271581
     27 C                     0.123150
     28 C                    -0.321185
     29 C                    -0.227545
     30 H                     0.087056
     31 H                     0.115632
     32 H                     0.092451
     33 H                     0.118002
     34 H                     0.123847
     35 H                     0.120468
     36 H                     0.115750
     37 H                     0.132366
     38 H                     0.115597
     39 C                    -0.171043
     40 H                     0.093304
     41 H                     0.121248
     42 H                     0.096555
     43 C                    -0.183025
     44 H                     0.092781
     45 C                    -0.172179
     46 H                     0.090605
     47 H                     0.095334
     48 H                     0.091883
     49 C                    -0.171316
     50 H                     0.091533
     51 C                    -0.319625
     52 H                     0.091287
     53 H                     0.100816
     54 H                     0.092012
     55 H                     0.096159
     56 C                     0.272620
     57 C                    -0.108921
     58 N                    -0.501574
     59 C                    -0.081555
     60 C                     0.112921
     61 C                     0.046119
     62 C                     0.011990
     63 C                     0.055647
     64 C                     0.203080
     65 N                    -0.541777
     66 N                    -0.532850
     67 C                     0.211412
     68 C                     0.350916
     69 S                     0.599592
     70 N                    -0.569604
     71 C                    -0.234005
     72 S                     0.338482
     73 C                    -0.083051
     74 C                    -0.207324
     75 S                     0.279941
     76 C                     0.138582
     77 C                     0.000758
     78 C                    -0.319449
     79 C                    -0.071657
     80 N                    -0.381347
     81 S                     0.281642
     82 C                     0.119978
     83 C                    -0.298314
     84 C                    -0.233499
     85 H                     0.082211
     86 H                     0.110499
     87 H                     0.103848
     88 H                     0.104726
     89 H                     0.130927
     90 H                     0.106001
     91 H                     0.121611
     92 H                     0.125711
     93 H                     0.124595
     94 C                    -0.185869
     95 H                     0.118906
     96 H                     0.097200
     97 H                     0.089525
     98 C                    -0.177720
     99 H                     0.087913
    100 C                    -0.166305
    101 H                     0.092454
    102 H                     0.093956
    103 H                     0.088882
    104 C                    -0.178541
    105 H                     0.097052
    106 C                    -0.323776
    107 H                     0.099657
    108 H                     0.106395
    109 H                     0.098357
    110 H                     0.100760
  ----------------------------------------
  Sum of atomic charges =     0.000000

                    Cartesian Multipole Moments
 -----------------------------------------------------------------
    Charge (ESU x 10^10)
                 0.0000
    Dipole Moment (Debye)
         X      -0.2405      Y       3.5001      Z      -0.2766
       Tot       3.5193
    Quadrupole Moments (Debye-Ang)
        XX    -387.6012     XY      -5.6063     YY    -415.8097
        XZ       0.8342     YZ       7.5375     ZZ    -436.2684

 Total job time:  93.66s(wall), 1105.90s(cpu)
        *  Thank you very much for using Q-Chem.  Have a nice day.  *
