 Q-Chem 4.4, Q-Chem, Inc., Pleasanton, CA (2016)
 Q-Chem 4.4.2 for Intel X86 Linux

User input:
--------------------------------------------------------------
$comment
SP
$end

$rem
MEM_STATIC 5000
MEM_TOTAL 20000
JOBTYPE SP
EXCHANGE B3LYP
BASIS 6-31g(d,p)
$end

$molecule
0 1
C          13.860000     19.931000     15.414000
C          12.597000     19.817000     14.952000
N          14.906000     19.745000     14.682000
C          12.385000     19.620000     13.568000
C          14.699000     19.581000     13.329000
C          13.426000     19.576000     12.686000
C          13.187000     19.459000     11.158000
C          12.071000     18.781000     10.642000
C          13.919000     20.181000     10.163000
N          11.875000     18.528000      9.309000
N          14.840000     21.064000     10.479000
C          13.742000     19.948000      8.838000
C          12.688000     19.150000      8.405000
S          15.585000     21.498000      9.069000
N          14.620000     20.641000      8.020000
C          12.286000     19.006000      7.021000
S          12.880000     19.921000      5.674000
C          11.366000     18.060000      6.609000
C          11.935000     19.003000      4.509000
S          10.430000     16.760000      7.412000
C          11.186000     18.068000      5.219000
C          11.724000     19.355000      3.128000
C           9.879000     16.201000      5.824000
C          10.237000     17.106000      4.799000
N          10.576000     19.159000      2.489000
S          12.940000     20.238000      2.246000
C          10.688000     19.676000      1.182000
C          11.862000     20.347000      0.896000
C          14.160000     19.880000     16.904000
H          11.761000     19.898000     15.640000
H          11.370000     19.472000     13.211000
H          15.492000     19.378000     12.610000
H          11.416000     18.208000     11.296000
H           9.311000     15.280000      5.794000
H           9.828000     17.032000      3.798000
H           9.883000     19.582000      0.465000
H          12.217000     20.717000     -0.057000
H          14.982000     20.532000     17.223000
C          14.584000     18.396000     17.390000
H          13.252000     20.216000     17.419000
H          15.489000     18.088000     16.852000
H          13.818000     17.692000     17.042000
C          14.743000     18.270000     18.907000
H          15.490000     18.965000     19.311000
C          15.058000     16.841000     19.440000
H          13.792000     18.527000     19.391000
H          15.351000     16.915000     20.495000
H          15.998000     16.518000     18.977000
C          13.912000     15.828000     19.324000
H          13.073000     16.165000     19.946000
C          14.331000     14.468000     19.896000
H          13.547000     15.839000     18.290000
H          15.390000     14.317000     19.655000
H          13.784000     13.682000     19.361000
H          14.145000     14.391000     20.974000
C           5.891000     14.821000      7.122000
C           5.151000     13.676000      6.866000
N           6.470000     15.507000      6.091000
C           4.988000     13.121000      5.559000
C           6.304000     15.015000      4.833000
C           5.598000     13.840000      4.511000
C           5.756000     13.341000      3.112000
C           6.153000     12.041000      2.845000
C           5.405000     14.069000      1.917000
N           6.210000     11.500000      1.624000
N           4.981000     15.354000      1.959000
C           5.382000     13.473000      0.652000
C           5.856000     12.117000      0.548000
S           4.561000     15.646000      0.433000
N           4.908000     14.215000     -0.348000
C           5.952000     11.419000     -0.757000
S           5.606000     12.046000     -2.355000
C           6.392000     10.134000     -0.842000
C           6.150000     10.603000     -3.178000
S           6.953000      8.936000      0.263000
C           6.567000      9.782000     -2.173000
C           6.422000     10.386000     -4.549000
C           7.428000      7.936000     -1.059000
C           7.189000      8.519000     -2.290000
N           7.406000     11.122000     -5.019000
S           5.876000      8.989000     -5.425000
C           7.755000     10.628000     -6.286000
C           7.066000      9.519000     -6.638000
C           5.994000     15.438000      8.540000
H           4.808000     13.275000      7.815000
H           4.458000     12.192000      5.370000
H           6.830000     15.534000      4.033000
H           6.371000     11.443000      3.728000
H           7.873000      7.002000     -0.743000
H           7.410000      8.004000     -3.218000
H           8.573000     11.073000     -6.837000
H           7.253000      9.008000     -7.574000
H           6.649000     16.316000      8.472000
C           6.585000     14.562000      9.619000
H           5.014000     15.779000      8.895000
H           7.574000     14.282000      9.235000
H           6.076000     13.624000      9.871000
C           6.808000     15.405000     10.841000
H           7.571000     14.907000     11.452000
C           5.526000     15.487000     11.648000
H           7.207000     16.393000     10.578000
H           5.460000     14.504000     12.130000
H           4.679000     15.568000     10.956000
C           5.543000     16.691000     12.639000
H           6.291000     16.540000     13.427000
C           4.084000     16.887000     13.213000
H           5.831000     17.624000     12.138000
H           3.372000     17.180000     12.432000
H           4.117000     17.653000     13.997000
H           3.657000     15.961000     13.619000
$end

--------------------------------------------------------------

             Standard Nuclear Orientation (Angstroms)
    I     Atom           X                Y                Z
 ----------------------------------------------------------------
    1      C     -11.2962670012    -0.0285013485     0.3455141295
    2      C     -10.3971214466    -0.5986983735    -0.4839565598
    3      N     -10.9903719263     0.8714897812     1.2178559029
    4      C      -9.0734736980    -0.1022829993    -0.5111119263
    5      C      -9.7075800068     1.3741368878     1.1715441604
    6      C      -8.6942451339     0.9604615118     0.2571984279
    7      C      -7.2701335052     1.5660684370     0.1535629071
    8      C      -6.1601541364     0.7725538310    -0.1776113234
    9      C      -6.9796250179     2.9669987057     0.1650607738
   10      N      -4.8636980824     1.2174662991    -0.1537660781
   11      N      -7.9286434840     3.8752807913     0.2116827008
   12      C      -5.7046916006     3.4309296819     0.1886368355
   13      C      -4.6409705658     2.5575505589    -0.0136388866
   14      S      -7.1803859802     5.3327103516     0.4296065058
   15      N      -5.6061232854     4.8062522245     0.3265831689
   16      C      -3.2680425352     2.9732051392    -0.2138784752
   17      S      -2.7044784076     4.5968210768    -0.4391266965
   18      C      -2.2138049832     2.0789819308    -0.2167135103
   19      C      -1.0158688850     4.1075935568    -0.4863317133
   20      S      -2.0423592419     0.3120508253     0.0271426483
   21      C      -0.9765661550     2.7209349232    -0.3640241937
   22      C       0.0914186288     4.9333435870    -0.8957669945
   23      C      -0.2809475791     0.4988174893     0.0078251125
   24      C       0.1013170646     1.8041710430    -0.3765442957
   25      N       1.1296594172     4.4767113749    -1.5872755542
   26      S       0.0458476769     6.6576461206    -0.6488397566
   27      C       1.9914760909     5.5536535817    -1.8797640226
   28      C       1.5403379559     6.8065372157    -1.5095343875
   29      C     -12.6453967848    -0.6786950270     0.6097072547
   30      H     -10.7022680673    -1.4138135740    -1.1330126049
   31      H      -8.3410239565    -0.6020889131    -1.1382398436
   32      H      -9.3129957342     2.1069363540     1.8746282195
   33      H      -6.2488740450    -0.3105784647    -0.2410400852
   34      H       0.3114167161    -0.3760878559     0.2432187801
   35      H       1.1260808917     2.0528325370    -0.6271127692
   36      H       2.9297798806     5.4035062027    -2.3974432310
   37      H       2.0709022190     7.7496579969    -1.5221341878
   38      H     -13.4707185867     0.0302853040     0.7466006937
   39      C     -12.6348843272    -1.5803473113     1.9532624811
   40      H     -12.8770730635    -1.2904781057    -0.2704248755
   41      H     -12.3935631056    -0.9411861290     2.8114990748
   42      H     -11.7854461843    -2.2718951646     1.8924972944
   43      C     -13.9257964004    -2.3737193325     2.1690235882
   44      H     -14.8120499824    -1.7288207865     2.2229722083
   45      C     -13.9362765195    -3.3320557136     3.3965562957
   46      H     -14.0847539825    -3.0419439563     1.3129194244
   47      H     -14.9639863519    -3.6783926126     3.5645243072
   48      H     -13.7653499838    -2.7213051417     4.2910203018
   49      C     -13.0228920621    -4.5589966125     3.2812919756
   50      H     -13.3707207605    -5.1865287640     2.4508748542
   51      C     -13.1313979133    -5.4350226270     4.5355447021
   52      H     -12.0194865035    -4.2154405371     3.0026371567
   53      H     -13.2586433177    -4.7690233401     5.3972967296
   54      H     -12.1726716218    -5.9459918627     4.6871505669
   55      H     -13.9436354859    -6.1685307829     4.4659393078
   56      C       0.6260859179    -3.3907029325    -1.8742665760
   57      C       1.5597141428    -4.3814301439    -1.6078854012
   58      N       1.0172787793    -2.0828839716    -1.9475858134
   59      C       2.9394910298    -4.1125867838    -1.3494632858
   60      C       2.3322733819    -1.8041331212    -1.7348156121
   61      C       3.3208103781    -2.7574331879    -1.4237551840
   62      C       4.6384537549    -2.2153361643    -0.9752992235
   63      C       5.2234190247    -2.6193094214     0.2136159294
   64      C       5.4939283967    -1.3458827369    -1.7456393268
   65      N       6.4441856686    -2.2576256136     0.6206596915
   66      N       5.1147853564    -0.8465344605    -2.9455005079
   67      C       6.8026730400    -1.0411796209    -1.3579365158
   68      C       7.2434021084    -1.5204255982    -0.0732929148
   69      S       6.4447600043    -0.1032082578    -3.4641271484
   70      N       7.5332296584    -0.3405843311    -2.2243620851
   71      C       8.5818223166    -1.1851364805     0.4704511002
   72      S       9.8151441229    -0.1578262097    -0.2295488493
   73      C       8.9914024291    -1.6519866833     1.6813784389
   74      C      10.8712949867    -0.2631439880     1.1593239017
   75      S       8.3174493957    -2.6315769003     2.9292327235
   76      C      10.1881972726    -1.0477470140     2.0400796025
   77      C      12.0137089553     0.5012466437     1.4929573631
   78      C       9.6482441884    -2.2441996691     3.9550168628
   79      C      10.5493093273    -1.3763253860     3.3657403198
   80      N      11.7626111066     1.7790582989     1.6800382128
   81      S      13.4976765882    -0.1942967666     2.0684227651
   82      C      12.8965541359     2.3667689256     2.2630437237
   83      C      13.8785175558     1.4793167248     2.5399596552
   84      C      -0.8494899540    -3.7172156709    -2.2179048713
   85      H       1.0401679621    -5.3339489212    -1.5650981941
   86      H       3.6552964841    -4.8846861926    -1.0827292337
   87      H       2.6127659929    -0.7518466275    -1.7274650738
   88      H       4.6298678872    -3.3224274544     0.7951132026
   89      H       9.5807850354    -2.7114760115     4.9283303183
   90      H      11.4521443755    -1.0585598160     3.8748217654
   91      H      12.8880814568     3.4144034035     2.5334881994
   92      H      14.7990611544     1.7836115970     3.0218207491
   93      H      -1.3743552401    -2.7641566765    -2.3618770376
   94      C      -1.6377132581    -4.4713491632    -1.1734506126
   95      H      -0.9214738293    -4.2830549471    -3.1545746291
   96      H      -1.5682609737    -3.8479490526    -0.2731586142
   97      H      -1.2986478802    -5.4724154384    -0.8813376513
   98      C      -3.0797380165    -4.4858332508    -1.5906038308
   99      H      -3.6828770209    -4.6600831478    -0.6909626163
  100      C      -3.3217419734    -5.6284662095    -2.5587572312
  101      H      -3.3884911760    -3.5140137444    -1.9965007800
  102      H      -3.3224101259    -6.5170376802    -1.9157881068
  103      H      -2.4571492881    -5.7115925480    -3.2283866065
  104      C      -4.6332286716    -5.4242459010    -3.3774651804
  105      H      -5.5152811570    -5.4933127468    -2.7290346262
  106      C      -4.6576353866    -6.4785360265    -4.5540915627
  107      H      -4.6787283445    -4.4239675492    -3.8266945190
  108      H      -3.8499490886    -6.3064256186    -5.2757388806
  109      H      -5.6298533002    -6.4176082846    -5.0576599680
  110      H      -4.4834822827    -7.5061767918    -4.2101930982
 ----------------------------------------------------------------

    9   -5663.5183685631      8.87E-06 Convergence criterion met
 Total energy in the final basis set = -5663.5183685631

                    Orbital Energies (a.u.)
 --------------------------------------------------------------

 Alpha MOs
 -- Occupied --
-88.988 -88.982 -88.937 -88.924 -88.921 -88.920 -88.905 -88.904
-14.390 -14.390 -14.386 -14.377 -14.349 -14.349 -14.344 -14.343
-14.332 -14.326 -10.269 -10.267 -10.261 -10.258 -10.256 -10.252
-10.250 -10.250 -10.239 -10.236 -10.236 -10.235 -10.234 -10.233
-10.231 -10.231 -10.230 -10.230 -10.228 -10.228 -10.227 -10.227
-10.224 -10.223 -10.221 -10.219 -10.218 -10.218 -10.218 -10.216
-10.215 -10.207 -10.203 -10.202 -10.199 -10.194 -10.192 -10.190
-10.187 -10.185 -10.183 -10.181 -10.179 -10.178 -10.176 -10.175
-10.175 -10.173 -10.173 -10.171  -8.043  -8.038  -7.998  -7.983
 -7.982  -7.980  -7.966  -7.963  -6.008  -6.003  -6.003  -6.001
 -5.998  -5.996  -5.962  -5.959  -5.955  -5.948  -5.946  -5.945
 -5.944  -5.943  -5.941  -5.940  -5.939  -5.937  -5.931  -5.927
 -5.927  -5.924  -5.923  -5.919  -1.042  -1.034  -0.974  -0.970
 -0.960  -0.951  -0.947  -0.932  -0.920  -0.912  -0.907  -0.898
 -0.850  -0.837  -0.835  -0.829  -0.819  -0.810  -0.809  -0.805
 -0.804  -0.798  -0.797  -0.796  -0.782  -0.779  -0.770  -0.763
 -0.753  -0.746  -0.744  -0.735  -0.726  -0.719  -0.708  -0.704
 -0.696  -0.691  -0.673  -0.673  -0.655  -0.652  -0.645  -0.644
 -0.639  -0.637  -0.632  -0.628  -0.613  -0.605  -0.598  -0.596
 -0.593  -0.589  -0.587  -0.581  -0.580  -0.574  -0.570  -0.560
 -0.550  -0.546  -0.546  -0.537  -0.524  -0.518  -0.515  -0.512
 -0.510  -0.507  -0.499  -0.496  -0.489  -0.487  -0.478  -0.474
 -0.474  -0.471  -0.469  -0.461  -0.461  -0.456  -0.455  -0.445
 -0.445  -0.444  -0.441  -0.434  -0.433  -0.431  -0.430  -0.427
 -0.425  -0.423  -0.420  -0.419  -0.418  -0.418  -0.416  -0.415
 -0.411  -0.409  -0.407  -0.403  -0.401  -0.398  -0.398  -0.397
 -0.395  -0.393  -0.393  -0.390  -0.387  -0.384  -0.382  -0.382
 -0.379  -0.377  -0.371  -0.370  -0.362  -0.358  -0.356  -0.354
 -0.352  -0.350  -0.349  -0.347  -0.346  -0.346  -0.342  -0.340
 -0.338  -0.336  -0.336  -0.334  -0.332  -0.330  -0.329  -0.321
 -0.317  -0.316  -0.313  -0.308  -0.302  -0.300  -0.297  -0.296
 -0.296  -0.295  -0.290  -0.287  -0.287  -0.283  -0.283  -0.281
 -0.275  -0.270  -0.265  -0.262  -0.257  -0.253  -0.250  -0.249
 -0.246  -0.244  -0.235  -0.226  -0.198  -0.191

          Ground-State Mulliken Net Atomic Charges

     Atom                 Charge (a.u.)
  ----------------------------------------
      1 C                     0.278632
      2 C                    -0.110331
      3 N                    -0.482008
      4 C                    -0.089671
      5 C                     0.084022
      6 C                     0.060747
      7 C                     0.027626
      8 C                     0.049440
      9 C                     0.243389
     10 N                    -0.525489
     11 N                    -0.552864
     12 C                     0.223041
     13 C                     0.302018
     14 S                     0.599214
     15 N                    -0.570083
     16 C                    -0.239480
     17 S                     0.340839
     18 C                    -0.098215
     19 C                    -0.233809
     20 S                     0.278927
     21 C                     0.155984
     22 C                     0.061766
     23 C                    -0.295791
     24 C                    -0.071854
     25 N                    -0.430862
     26 S                     0.263226
     27 C                     0.106326
     28 C                    -0.298328
     29 C                    -0.220514
     30 H                     0.089048
     31 H                     0.091740
     32 H                     0.102731
     33 H                     0.110558
     34 H                     0.140452
     35 H                     0.119515
     36 H                     0.114898
     37 H                     0.138050
     38 H                     0.111000
     39 C                    -0.169979
     40 H                     0.082669
     41 H                     0.114558
     42 H                     0.090070
     43 C                    -0.180202
     44 H                     0.088778
     45 C                    -0.181086
     46 H                     0.087121
     47 H                     0.086721
     48 H                     0.089350
     49 C                    -0.173926
     50 H                     0.092766
     51 C                    -0.320716
     52 H                     0.097062
     53 H                     0.105434
     54 H                     0.100828
     55 H                     0.107998
     56 C                     0.264610
     57 C                    -0.108624
     58 N                    -0.489056
     59 C                    -0.082155
     60 C                     0.088869
     61 C                     0.043481
     62 C                     0.013194
     63 C                     0.055053
     64 C                     0.198685
     65 N                    -0.541369
     66 N                    -0.514089
     67 C                     0.213268
     68 C                     0.351120
     69 S                     0.588063
     70 N                    -0.571042
     71 C                    -0.233889
     72 S                     0.335576
     73 C                    -0.083565
     74 C                    -0.207306
     75 S                     0.281609
     76 C                     0.138876
     77 C                    -0.000325
     78 C                    -0.319042
     79 C                    -0.071400
     80 N                    -0.382096
     81 S                     0.282641
     82 C                     0.119660
     83 C                    -0.297681
     84 C                    -0.234064
     85 H                     0.083664
     86 H                     0.110311
     87 H                     0.116295
     88 H                     0.105282
     89 H                     0.131782
     90 H                     0.106211
     91 H                     0.121564
     92 H                     0.126150
     93 H                     0.133557
     94 C                    -0.186013
     95 H                     0.113485
     96 H                     0.096245
     97 H                     0.090464
     98 C                    -0.179618
     99 H                     0.087608
    100 C                    -0.166039
    101 H                     0.096557
    102 H                     0.094882
    103 H                     0.089537
    104 C                    -0.178875
    105 H                     0.095651
    106 C                    -0.323557
    107 H                     0.099180
    108 H                     0.105211
    109 H                     0.097529
    110 H                     0.102598
  ----------------------------------------
  Sum of atomic charges =     0.000000

                    Cartesian Multipole Moments
 -----------------------------------------------------------------
    Charge (ESU x 10^10)
                 0.0000
    Dipole Moment (Debye)
         X       4.2536      Y      -1.4290      Z       0.9194
       Tot       4.5805
    Quadrupole Moments (Debye-Ang)
        XX    -395.2808     XY      23.5632     YY    -406.7937
        XZ      29.0850     YZ       0.0378     ZZ    -442.7946

 Total job time:  80.98s(wall), 947.41s(cpu)
        *  Thank you very much for using Q-Chem.  Have a nice day.  *
