 Q-Chem 4.4, Q-Chem, Inc., Pleasanton, CA (2016)
 Q-Chem 4.4.2 for Intel X86 Linux

User input:
--------------------------------------------------------------
$comment
SP
$end

$rem
MEM_STATIC 5000
MEM_TOTAL 20000
JOBTYPE SP
EXCHANGE B3LYP
BASIS 6-31g(d,p)
$end

$molecule
0 1
C           1.513000     10.330000     -3.023000
C           2.559000     10.363000     -2.069000
N           0.825000      9.217000     -3.277000
C           2.940000      9.220000     -1.404000
C           1.122000      8.156000     -2.524000
C           2.208000      8.041000     -1.692000
C           2.591000      6.738000     -0.974000
C           3.985000      6.387000     -0.813000
C           1.703000      5.728000     -0.492000
N           4.413000      5.298000     -0.135000
N           0.385000      5.758000     -0.736000
C           2.113000      4.597000      0.200000
C           3.500000      4.417000      0.397000
S          -0.235000      4.437000      0.035000
N           1.092000      3.785000      0.699000
C           4.082000      3.364000      1.278000
S           3.186000      1.958000      1.939000
C           5.412000      3.328000      1.670000
C           4.749000      1.268000      2.545000
S           6.675000      4.501000      1.488000
C           5.741000      2.196000      2.372000
C           4.914000      0.020000      3.196000
C           7.706000      3.391000      2.402000
C           7.108000      2.194000      2.714000
N           3.923000     -0.796000      2.902000
S           5.804000     -0.325000      4.632000
C           3.978000     -1.878000      3.759000
C           4.855000     -1.800000      4.802000
C           1.075000     11.570000     -3.871000
H           3.022000     11.315000     -1.828000
H           3.774000      9.144000     -0.712000
H           0.563000      7.264000     -2.801000
H           4.725000      7.131000     -1.103000
H           8.750000      3.585000      2.612000
H           7.604000      1.379000      3.229000
H           3.240000     -2.636000      3.536000
H           4.973000     -2.571000      5.551000
H           0.071000     11.396000     -4.276000
C           2.190000     11.826000     -4.918000
H           1.208000     12.377000     -3.139000
H           3.131000     12.104000     -4.427000
H           1.996000     12.648000     -5.618000
C           2.504000     10.608000     -5.748000
H           2.765000      9.831000     -5.019000
C           3.518000     10.850000     -6.905000
H           1.626000     10.193000     -6.259000
H           3.450000      9.961000     -7.544000
H           4.504000     11.061000     -6.472000
C           3.224000     12.018000     -7.913000
H           2.280000     11.789000     -8.424000
C           4.204000     12.145000     -9.077000
H           3.153000     12.970000     -7.372000
H           3.741000     12.937000     -9.678000
H           4.319000     11.234000     -9.676000
H           5.207000     12.499000     -8.807000
C           5.891000     14.821000      7.122000
C           5.151000     13.676000      6.866000
N           6.470000     15.507000      6.091000
C           4.988000     13.121000      5.559000
C           6.304000     15.015000      4.833000
C           5.598000     13.840000      4.511000
C           5.756000     13.341000      3.112000
C           6.153000     12.041000      2.845000
C           5.405000     14.069000      1.917000
N           6.210000     11.500000      1.624000
N           4.981000     15.354000      1.959000
C           5.382000     13.473000      0.652000
C           5.856000     12.117000      0.548000
S           4.561000     15.646000      0.433000
N           4.908000     14.215000     -0.348000
C           5.952000     11.419000     -0.757000
S           5.606000     12.046000     -2.355000
C           6.392000     10.134000     -0.842000
C           6.150000     10.603000     -3.178000
S           6.953000      8.936000      0.263000
C           6.567000      9.782000     -2.173000
C           6.422000     10.386000     -4.549000
C           7.428000      7.936000     -1.059000
C           7.189000      8.519000     -2.290000
N           7.406000     11.122000     -5.019000
S           5.876000      8.989000     -5.425000
C           7.755000     10.628000     -6.286000
C           7.066000      9.519000     -6.638000
C           5.994000     15.438000      8.540000
H           4.808000     13.275000      7.815000
H           4.458000     12.192000      5.370000
H           6.830000     15.534000      4.033000
H           6.371000     11.443000      3.728000
H           7.873000      7.002000     -0.743000
H           7.410000      8.004000     -3.218000
H           8.573000     11.073000     -6.837000
H           7.253000      9.008000     -7.574000
H           6.649000     16.316000      8.472000
C           6.585000     14.562000      9.619000
H           5.014000     15.779000      8.895000
H           7.574000     14.282000      9.235000
H           6.076000     13.624000      9.871000
C           6.808000     15.405000     10.841000
H           7.571000     14.907000     11.452000
C           5.526000     15.487000     11.648000
H           7.207000     16.393000     10.578000
H           5.460000     14.504000     12.130000
H           4.679000     15.568000     10.956000
C           5.543000     16.691000     12.639000
H           6.291000     16.540000     13.427000
C           4.084000     16.887000     13.213000
H           5.831000     17.624000     12.138000
H           3.372000     17.180000     12.432000
H           4.117000     17.653000     13.997000
H           3.657000     15.961000     13.619000
$end

--------------------------------------------------------------

             Standard Nuclear Orientation (Angstroms)
    I     Atom           X                Y                Z
 ----------------------------------------------------------------
    1      C       1.4607409898    -3.9786471416     2.9170259621
    2      C       0.7659053866    -3.1823801506     1.9744320073
    3      N       2.5930002194    -3.5685206410     3.4883527429
    4      C       1.2717499978    -1.9674579580     1.5720387976
    5      C       2.9920969573    -2.3319220188     3.1842398667
    6      C       2.4823119720    -1.5485854053     2.1785818638
    7      C       3.0879180010    -0.1981111325     1.7668992481
    8      C       3.1151748662     0.1840641385     0.3720669551
    9      C       3.7414293437     0.7466498286     2.6162034640
   10      N       3.5640716771     1.3801136648    -0.0714938453
   11      N       4.0134629342     0.4843385942     3.9025745387
   12      C       4.2186785196     1.9777095310     2.1885935562
   13      C       4.0871720342     2.2904880390     0.8175160058
   14      S       4.7234649008     1.8536094402     4.4898364545
   15      N       4.7173387148     2.8176220050     3.1869276915
   16      C       4.3728405549     3.6368909584     0.2436809469
   17      S       5.2475918809     4.9557423833     1.0874901888
   18      C       4.0200248202     4.0239187368    -1.0406829253
   19      C       5.2771726133     5.9024977742    -0.4581760786
   20      S       3.0183419985     3.2432003795    -2.2202304534
   21      C       4.5020804990     5.2609052160    -1.3870292444
   22      C       5.9022288462     7.1589952410    -0.6557838254
   23      C       3.2779195455     4.6649983215    -3.2408024055
   24      C       4.1456370295     5.5887994753    -2.7103169711
   25      N       6.8518623286     7.3547720443     0.2354179993
   26      S       5.2592432746     8.5612357535    -1.4261811905
   27      C       7.2377881127     8.6799800495     0.1798929410
   28      C       6.4758981569     9.5171096102    -0.5828650769
   29      C       0.9869470280    -5.4008703357     3.3657446578
   30      H      -0.2010781063    -3.5181547433     1.6125586214
   31      H       0.8400416797    -1.3296631208     0.8058523492
   32      H       3.9422346382    -2.0634551480     3.6425388156
   33      H       2.5864851817    -0.4557755981    -0.3324387787
   34      H       2.8757654721     4.7609364895    -4.2411723217
   35      H       4.4562643028     6.4962160624    -3.2158581016
   36      H       8.0695825011     8.9090937803     0.8314771596
   37      H       6.6627507181    10.5770952181    -0.6871849286
   38      H       1.4790252563    -5.6661618450     4.3090348742
   39      C       1.2412399995    -6.3645343690     2.1776130508
   40      H      -0.1020561140    -5.2636470464     3.3677259253
   41      H       0.6231439514    -6.0911483626     1.3132847758
   42      H       0.9940976559    -7.4165436790     2.3660727908
   43      C       2.6669316532    -6.3293828591     1.6905938726
   44      H       2.8529509619    -5.2773005899     1.4419762630
   45      C       3.0072914996    -7.3783029586     0.5908980966
   46      H       3.4003303382    -6.5379565291     2.4798044865
   47      H       4.1023048022    -7.3900766481     0.5270760992
   48      H       2.4713298517    -7.1120980773    -0.3289312751
   49      C       2.6659128570    -8.8846686610     0.8755856320
   50      H       3.2558872541    -9.2027276291     1.7447615081
   51      C       3.1078764165    -9.8742110284    -0.2000068165
   52      H       1.5920390715    -8.9940486236     1.0727077173
   53      H       2.8609584092   -10.8374449079     0.2626442301
   54      H       4.1761438145    -9.8342874509    -0.4432307346
   55      H       2.5463139726    -9.8229157476    -1.1414107764
   56      C      -8.4898471329     1.8686842948    -0.0915453076
   57      C      -7.3242000298     2.2938125868     0.5286915556
   58      N      -8.5303918355     0.6516503830    -0.7128202745
   59      C      -6.1093781894     1.5408324038     0.5202215981
   60      C      -7.3943496858    -0.0977325820    -0.7086482245
   61      C      -6.1708004639     0.2919772412    -0.1308952017
   62      C      -4.9875552636    -0.5572398649    -0.4624477655
   63      C      -3.8254881647    -0.0122590285    -0.9834985747
   64      C      -4.8577456506    -1.9646989013    -0.1736251117
   65      N      -2.6973017699    -0.6954442127    -1.2008104766
   66      N      -5.8763316645    -2.6856855471     0.3511851291
   67      C      -3.6502100834    -2.6548932224    -0.3201162480
   68      C      -2.5445569181    -1.9418747563    -0.9060887261
   69      S      -5.1952010569    -4.1145358653     0.6423686855
   70      N      -3.6280611476    -3.9154771559     0.1107869560
   71      C      -1.2455049135    -2.6018114137    -1.1824806532
   72      S      -0.8047752109    -4.2799391922    -0.9456400142
   73      C      -0.2043599879    -1.9153782497    -1.7273446318
   74      C       0.7724769744    -4.1014126424    -1.6777040927
   75      S       0.0742987607    -0.3032457092    -2.2698646533
   76      C       0.8185654317    -2.7931990143    -2.0577145628
   77      C       1.6967444364    -5.0863235256    -2.0976972009
   78      C       1.5833971932    -0.7898508030    -2.9474680797
   79      C       1.8382651264    -2.1392484660    -2.7845592594
   80      N       1.2478312420    -5.8600443044    -3.0624174196
   81      S       3.3970544969    -5.0154554982    -1.7498115575
   82      C       2.3290506828    -6.5977284364    -3.5702684237
   83      C       3.5139483693    -6.2699587369    -3.0071605331
   84      C      -9.8111053546     2.6744803216    -0.0079302678
   85      H      -7.4970572302     3.2878481237     0.9300202732
   86      H      -5.1826892189     1.9034819422     0.9554168004
   87      H      -7.4241646495    -1.0317546652    -1.2678895105
   88      H      -3.8675915641     1.0609119956    -1.1605529639
   89      H       2.1101842579     0.0218903150    -3.4310058194
   90      H       2.7589427897    -2.5924849142    -3.1341009053
   91      H       2.1828168187    -7.2756499928    -4.4008032035
   92      H       4.4399897745    -6.7332137759    -3.3234327018
   93      H     -10.5649875074     2.1357254080    -0.5960950769
   94      C      -9.7831903860     4.0808573759    -0.5576777876
   95      H     -10.1733853753     2.7337665385     1.0254836527
   96      H      -9.4551069496     3.9630510629    -1.5980911340
   97      H      -9.1026688546     4.8094991359    -0.1011686080
   98      C     -11.1911053581     4.6005453093    -0.5945814871
   99      H     -11.2249208998     5.4129357732    -1.3310407483
  100      C     -11.5638157717     5.1676572038     0.7622412893
  101      H     -11.8928914917     3.8302848414    -0.9391232615
  102      H     -11.0305452198     6.1254200899     0.7980431376
  103      H     -11.1346208236     4.5265291501     1.5417158015
  104      C     -13.1093184784     5.2835314267     0.9353902082
  105      H     -13.5243655447     6.0399444513     0.2580245249
  106      C     -13.4210056879     5.5885506357     2.4540696891
  107      H     -13.6176414285     4.3467839611     0.6735773663
  108      H     -13.1297665345     4.7572692447     3.1074493678
  109      H     -14.4942925879     5.7883854859     2.5571340521
  110      H     -12.8476933414     6.4388668032     2.8451149150
 ----------------------------------------------------------------

    9   -5663.5030102156      8.52E-06 Convergence criterion met
 Total energy in the final basis set = -5663.5030102156

                    Orbital Energies (a.u.)
 --------------------------------------------------------------

 Alpha MOs
 -- Occupied --
-88.987 -88.985 -88.936 -88.933 -88.926 -88.921 -88.913 -88.910
-14.393 -14.391 -14.389 -14.378 -14.350 -14.350 -14.346 -14.339
-14.331 -14.321 -10.269 -10.264 -10.262 -10.261 -10.259 -10.255
-10.254 -10.252 -10.238 -10.238 -10.237 -10.237 -10.234 -10.233
-10.233 -10.233 -10.231 -10.230 -10.227 -10.226 -10.226 -10.225
-10.224 -10.224 -10.223 -10.223 -10.223 -10.221 -10.218 -10.212
-10.210 -10.206 -10.203 -10.202 -10.199 -10.199 -10.198 -10.193
-10.188 -10.186 -10.185 -10.180 -10.179 -10.177 -10.175 -10.175
-10.174 -10.173 -10.172 -10.166  -8.042  -8.041  -7.996  -7.994
 -7.985  -7.978  -7.972  -7.971  -6.007  -6.006  -6.002  -6.001
 -6.000  -5.999  -5.960  -5.958  -5.957  -5.954  -5.953  -5.950
 -5.949  -5.945  -5.943  -5.942  -5.939  -5.937  -5.935  -5.935
 -5.933  -5.931  -5.928  -5.927  -1.045  -1.033  -0.975  -0.974
 -0.973  -0.946  -0.941  -0.931  -0.924  -0.915  -0.912  -0.900
 -0.855  -0.840  -0.836  -0.823  -0.820  -0.809  -0.809  -0.808
 -0.806  -0.803  -0.799  -0.796  -0.783  -0.778  -0.772  -0.764
 -0.754  -0.750  -0.746  -0.740  -0.730  -0.721  -0.710  -0.707
 -0.698  -0.692  -0.675  -0.670  -0.656  -0.649  -0.646  -0.640
 -0.638  -0.635  -0.633  -0.619  -0.615  -0.612  -0.602  -0.598
 -0.595  -0.595  -0.588  -0.582  -0.581  -0.575  -0.571  -0.553
 -0.550  -0.548  -0.541  -0.535  -0.527  -0.521  -0.520  -0.517
 -0.512  -0.502  -0.500  -0.495  -0.489  -0.485  -0.481  -0.476
 -0.473  -0.473  -0.467  -0.464  -0.461  -0.457  -0.456  -0.447
 -0.446  -0.443  -0.442  -0.439  -0.436  -0.433  -0.431  -0.431
 -0.428  -0.426  -0.425  -0.421  -0.418  -0.416  -0.415  -0.414
 -0.412  -0.411  -0.408  -0.404  -0.401  -0.399  -0.397  -0.395
 -0.394  -0.392  -0.391  -0.390  -0.388  -0.387  -0.385  -0.384
 -0.383  -0.378  -0.378  -0.371  -0.366  -0.362  -0.359  -0.359
 -0.355  -0.354  -0.352  -0.351  -0.349  -0.348  -0.343  -0.343
 -0.341  -0.337  -0.337  -0.333  -0.332  -0.330  -0.325  -0.323
 -0.317  -0.315  -0.311  -0.308  -0.304  -0.298  -0.297  -0.296
 -0.294  -0.293  -0.292  -0.290  -0.285  -0.284  -0.283  -0.282
 -0.274  -0.272  -0.267  -0.264  -0.258  -0.257  -0.253  -0.251
 -0.247  -0.244  -0.238  -0.231  -0.202  -0.192

          Ground-State Mulliken Net Atomic Charges

     Atom                 Charge (a.u.)
  ----------------------------------------
      1 C                     0.226329
      2 C                    -0.114479
      3 N                    -0.460890
      4 C                    -0.077588
      5 C                     0.070241
      6 C                     0.044990
      7 C                     0.022007
      8 C                     0.060465
      9 C                     0.227293
     10 N                    -0.536564
     11 N                    -0.551685
     12 C                     0.195598
     13 C                     0.293037
     14 S                     0.611899
     15 N                    -0.544446
     16 C                    -0.239345
     17 S                     0.347576
     18 C                    -0.109209
     19 C                    -0.222687
     20 S                     0.288804
     21 C                     0.172660
     22 C                     0.035095
     23 C                    -0.314534
     24 C                    -0.078678
     25 N                    -0.413297
     26 S                     0.282492
     27 C                     0.120090
     28 C                    -0.312321
     29 C                    -0.206836
     30 H                     0.099569
     31 H                     0.117670
     32 H                     0.107553
     33 H                     0.119522
     34 H                     0.121550
     35 H                     0.105062
     36 H                     0.112961
     37 H                     0.137909
     38 H                     0.121724
     39 C                    -0.190162
     40 H                     0.101415
     41 H                     0.097896
     42 H                     0.094046
     43 C                    -0.173444
     44 H                     0.100231
     45 C                    -0.173466
     46 H                     0.092800
     47 H                     0.083346
     48 H                     0.099053
     49 C                    -0.184388
     50 H                     0.091784
     51 C                    -0.316253
     52 H                     0.096055
     53 H                     0.102050
     54 H                     0.099123
     55 H                     0.101115
     56 C                     0.268953
     57 C                    -0.109350
     58 N                    -0.490672
     59 C                    -0.081563
     60 C                     0.096442
     61 C                     0.041018
     62 C                     0.015424
     63 C                     0.055272
     64 C                     0.198903
     65 N                    -0.540939
     66 N                    -0.513417
     67 C                     0.213017
     68 C                     0.352330
     69 S                     0.590526
     70 N                    -0.576094
     71 C                    -0.239475
     72 S                     0.332399
     73 C                    -0.102077
     74 C                    -0.194861
     75 S                     0.281285
     76 C                     0.142698
     77 C                    -0.006376
     78 C                    -0.323371
     79 C                    -0.075149
     80 N                    -0.387824
     81 S                     0.295751
     82 C                     0.118224
     83 C                    -0.293419
     84 C                    -0.229918
     85 H                     0.083157
     86 H                     0.110225
     87 H                     0.111888
     88 H                     0.107995
     89 H                     0.147172
     90 H                     0.112029
     91 H                     0.121755
     92 H                     0.126965
     93 H                     0.124862
     94 C                    -0.185941
     95 H                     0.113285
     96 H                     0.097599
     97 H                     0.091143
     98 C                    -0.178229
     99 H                     0.088117
    100 C                    -0.166178
    101 H                     0.092040
    102 H                     0.095314
    103 H                     0.089426
    104 C                    -0.178631
    105 H                     0.097306
    106 C                    -0.323559
    107 H                     0.098426
    108 H                     0.104661
    109 H                     0.098039
    110 H                     0.102660
  ----------------------------------------
  Sum of atomic charges =     0.000000

                    Cartesian Multipole Moments
 -----------------------------------------------------------------
    Charge (ESU x 10^10)
                 0.0000
    Dipole Moment (Debye)
         X       0.8763      Y       2.8518      Z      -1.8387
       Tot       3.5045
    Quadrupole Moments (Debye-Ang)
        XX    -443.5488     XY      -8.8195     YY    -392.1551
        XZ     -20.4385     YZ       1.9260     ZZ    -442.6943

 Total job time:  89.27s(wall), 1069.47s(cpu)
        *  Thank you very much for using Q-Chem.  Have a nice day.  *
