 Q-Chem 4.4, Q-Chem, Inc., Pleasanton, CA (2016)
 Q-Chem 4.4.2 for Intel X86 Linux

User input:
--------------------------------------------------------------
$comment
SP
$end

$rem
MEM_STATIC 5000
MEM_TOTAL 20000
JOBTYPE SP
EXCHANGE B3LYP
BASIS 6-31g(d,p)
$end

$molecule
0 1
C          10.156000     11.611000      8.023000
C          11.127000     11.146000      7.113000
N           9.064000     12.256000      7.586000
C          10.941000     11.285000      5.727000
C           8.947000     12.501000      6.252000
C           9.822000     12.070000      5.275000
C           9.529000     12.269000      3.921000
C           9.104000     13.501000      3.441000
C           9.681000     11.285000      2.873000
N           8.797000     13.836000      2.215000
N          10.109000     10.057000      3.107000
C           9.437000     11.653000      1.516000
C           8.951000     12.928000      1.217000
S          10.260000      9.422000      1.627000
N           9.683000     10.605000      0.668000
C           8.784000     13.394000     -0.202000
S           8.895000     12.355000     -1.706000
C           8.471000     14.722000     -0.470000
C           8.581000     13.863000     -2.689000
S           8.393000     16.068000      0.548000
C           8.285000     14.959000     -1.836000
C           8.891000     14.029000     -4.086000
C           8.138000     17.086000     -0.876000
C           8.169000     16.384000     -2.081000
N          10.058000     13.600000     -4.481000
S           7.843000     14.835000     -5.205000
C          10.160000     13.828000     -5.825000
C           9.128000     14.550000     -6.359000
C          10.300000     11.297000      9.486000
H          11.912000     10.529000      7.539000
H          11.698000     10.808000      5.112000
H           8.002000     12.976000      5.993000
H           9.084000     14.377000      4.089000
H           8.165000     18.149000     -0.679000
H           8.283000     16.872000     -3.043000
H          11.019000     13.678000     -6.466000
H           9.032000     14.979000     -7.347000
H           9.623000     10.474000      9.746000
C          10.036000     12.571000     10.385000
H          11.247000     10.794000      9.718000
H           9.987000     12.105000     11.376000
H           9.036000     13.002000     10.253000
C          11.213000     13.583000     10.199000
H          12.168000     13.134000     10.501000
C          11.053000     14.924000     10.977000
H          11.330000     13.747000      9.120000
H          10.171000     15.485000     10.642000
H          11.927000     15.527000     10.701000
C          10.984000     14.601000     12.547000
H          10.067000     14.045000     12.777000
C          11.154000     15.946000     13.310000
H          11.806000     13.939000     12.846000
H          11.213000     15.679000     14.372000
H          10.349000     16.687000     13.225000
H          12.059000     16.420000     12.910000
C           5.891000     14.821000      7.122000
C           5.151000     13.676000      6.866000
N           6.470000     15.507000      6.091000
C           4.988000     13.121000      5.559000
C           6.304000     15.015000      4.833000
C           5.598000     13.840000      4.511000
C           5.756000     13.341000      3.112000
C           6.153000     12.041000      2.845000
C           5.405000     14.069000      1.917000
N           6.210000     11.500000      1.624000
N           4.981000     15.354000      1.959000
C           5.382000     13.473000      0.652000
C           5.856000     12.117000      0.548000
S           4.561000     15.646000      0.433000
N           4.908000     14.215000     -0.348000
C           5.952000     11.419000     -0.757000
S           5.606000     12.046000     -2.355000
C           6.392000     10.134000     -0.842000
C           6.150000     10.603000     -3.178000
S           6.953000      8.936000      0.263000
C           6.567000      9.782000     -2.173000
C           6.422000     10.386000     -4.549000
C           7.428000      7.936000     -1.059000
C           7.189000      8.519000     -2.290000
N           7.406000     11.122000     -5.019000
S           5.876000      8.989000     -5.425000
C           7.755000     10.628000     -6.286000
C           7.066000      9.519000     -6.638000
C           5.994000     15.438000      8.540000
H           4.808000     13.275000      7.815000
H           4.458000     12.192000      5.370000
H           6.830000     15.534000      4.033000
H           6.371000     11.443000      3.728000
H           7.873000      7.002000     -0.743000
H           7.410000      8.004000     -3.218000
H           8.573000     11.073000     -6.837000
H           7.253000      9.008000     -7.574000
H           6.649000     16.316000      8.472000
C           6.585000     14.562000      9.619000
H           5.014000     15.779000      8.895000
H           7.574000     14.282000      9.235000
H           6.076000     13.624000      9.871000
C           6.808000     15.405000     10.841000
H           7.571000     14.907000     11.452000
C           5.526000     15.487000     11.648000
H           7.207000     16.393000     10.578000
H           5.460000     14.504000     12.130000
H           4.679000     15.568000     10.956000
C           5.543000     16.691000     12.639000
H           6.291000     16.540000     13.427000
C           4.084000     16.887000     13.213000
H           5.831000     17.624000     12.138000
H           3.372000     17.180000     12.432000
H           4.117000     17.653000     13.997000
H           3.657000     15.961000     13.619000
$end

--------------------------------------------------------------

             Standard Nuclear Orientation (Angstroms)
    I     Atom           X                Y                Z
 ----------------------------------------------------------------
    1      C       5.5840366500     3.1551920101     0.4462909818
    2      C       4.6536510234     3.9680809234     1.1250841760
    3      N       5.2182649901     1.9608882922    -0.0428999034
    4      C       3.3085378176     3.5789796893     1.2441794870
    5      C       3.9468846698     1.5300992623     0.1835573619
    6      C       2.9521462602     2.2530570684     0.8110464114
    7      C       1.6440924904     1.7587832348     0.8698232134
    8      C       1.3756285954     0.4525281466     1.2577327156
    9      C       0.4435050253     2.5203900854     0.6086551763
   10      N       0.2173107531    -0.1451574128     1.3607945820
   11      N       0.4712437390     3.7947010612     0.2603936354
   12      C      -0.8343685616     1.9148455411     0.8003943244
   13      C      -0.9202610660     0.5615122159     1.1355560593
   14      S      -1.0902424614     4.2166925382     0.2499036803
   15      N      -1.8455325761     2.8062349186     0.5536225403
   16      C      -2.2374223713    -0.0887494674     1.4531278449
   17      S      -3.8978687837     0.6386417257     1.1929783418
   18      C      -2.2747138844    -1.3846543765     1.9557378424
   19      C      -4.6047094034    -0.8934202634     1.8944848634
   20      S      -1.0341577663    -2.4048710549     2.4794767534
   21      C      -3.5823753432    -1.8515287848     2.1253574051
   22      C      -5.9312809353    -1.0278840698     2.4398218743
   23      C      -2.2602508434    -3.5570585034     3.0256313558
   24      C      -3.5697441854    -3.1135622227     2.8403525489
   25      N      -6.3396788321    -0.0710365138     3.2269742818
   26      S      -6.9354276378    -2.4134855039     2.1716818629
   27      C      -7.6131794197    -0.3663491291     3.6266125090
   28      C      -8.0572666864    -1.6020254928     3.2427447926
   29      C       6.9709005868     3.6735314658     0.1862263177
   30      H       4.9985817763     4.9659700404     1.3773342224
   31      H       2.6551509952     4.3181031398     1.6975945123
   32      H       3.7322779946     0.5793712690    -0.3020260579
   33      H       2.1702476282    -0.1959904861     1.6260860454
   34      H      -1.8722658691    -4.3879807713     3.5988179261
   35      H      -4.4202365496    -3.5678996758     3.3371666159
   36      H      -8.2276500856     0.1590147047     4.3461127820
   37      H      -8.9543628639    -2.1290072646     3.5375492372
   38      H       7.0433306054     3.9998818245    -0.8585259667
   39      C       8.0723363532     2.5932970074     0.5339413842
   40      H       7.1540003176     4.6449755500     0.6620549421
   41      H       8.9585106442     3.0696439857     0.0987096272
   42      H       7.9717521107     1.6634266113    -0.0391282945
   43      C       8.1315648922     2.4016711284     2.0843737441
   44      H       8.3936201158     3.3420229165     2.5862657389
   45      C       9.1314649426     1.3099610918     2.5717484306
   46      H       7.1074327507     2.1998661967     2.4238647252
   47      H       8.8609504194     0.3147644151     2.1958821413
   48      H       9.0130469609     1.2722246802     3.6618007894
   49      C      10.6112848123     1.7294443153     2.1155061941
   50      H      10.6909482185     1.6989128986     1.0220499425
   51      C      11.6134393840     0.8176358341     2.8799573097
   52      H      10.8251323477     2.7692551251     2.3918966994
   53      H      12.6108291016     1.2003592493     2.6322669009
   54      H      11.6249583490    -0.2509241809     2.6302018133
   55      H      11.3513236345     0.8876048925     3.9430192386
   56      C       5.0723644836    -1.9756038500    -1.2027243109
   57      C       4.5764030530    -1.4845919260    -2.4015114271
   58      N       4.2129995452    -2.3398530733    -0.2039188214
   59      C       3.1838898544    -1.2828149952    -2.6525812615
   60      C       2.8799110442    -2.1852960079    -0.4301292588
   61      C       2.3153534455    -1.6588001311    -1.6077632467
   62      C       0.8584785233    -1.3342446887    -1.5499253188
   63      C       0.3795664913    -0.0801751898    -1.8917600119
   64      C      -0.2001420682    -2.2745575768    -1.2736209289
   65      N      -0.9151012018     0.2441008811    -1.9655949239
   66      N       0.0537381886    -3.5592440362    -0.9302690452
   67      C      -1.5519595184    -1.9555321984    -1.4372741881
   68      C      -1.8771700634    -0.5923271445    -1.7691447689
   69      S      -1.4125956340    -4.2220932506    -0.9013546934
   70      N      -2.4225840612    -2.9522140360    -1.2827483973
   71      C      -3.2809452432    -0.1279990368    -1.8842953358
   72      S      -4.7534658709    -1.0325328225    -1.6015399090
   73      C      -3.5762680487     1.1603531820    -2.2083061396
   74      C      -5.7971775030     0.3524456303    -1.8206625100
   75      S      -2.6811036397     2.5921347469    -2.5541850655
   76      C      -4.9388074383     1.3824689486    -2.0660352789
   77      C      -7.1696887161     0.5134773858    -1.5190075022
   78      C      -4.1377834507     3.5141390269    -2.5181151929
   79      C      -5.2525925750     2.7509052297    -2.2230799625
   80      N      -7.4490469343     0.4045832369    -0.2380106051
   81      S      -8.3107977897     1.2431017906    -2.6064905181
   82      C      -8.7659635443     0.8484222855    -0.0383520437
   83      C      -9.3471528079     1.3267088463    -1.1617250920
   84      C       6.5822032594    -2.2480916838    -0.9832721483
   85      H       5.4186554244    -1.2314902904    -3.0383799417
   86      H       2.8033303994    -0.8426491838    -3.5696911566
   87      H       2.2144541671    -2.4140246037     0.4010670925
   88      H       1.1488395089     0.6406302571    -2.1628237167
   89      H      -3.9752453991     4.5673765138    -2.7038816536
   90      H      -6.2466956794     3.1819957573    -2.1888750677
   91      H      -9.1859351216     0.8747259975     0.9584839454
   92      H     -10.3500611036     1.7344737907    -1.1523070036
   93      H       6.7072501860    -2.6081216457     0.0459385652
   94      C       7.5118276931    -1.0663454265    -1.1253010025
   95      H       6.9445380401    -3.0329726229    -1.6580916932
   96      H       7.1325405491    -0.3299420218    -0.4056981343
   97      H       7.5637793916    -0.5526262953    -2.0926802845
   98      C       8.8761555428    -1.4807776882    -0.6557081798
   99      H       9.4233191262    -0.5698339372    -0.3831508543
  100      C       9.6204579722    -2.1671549223    -1.7854856739
  101      H       8.8170672961    -2.0984689197     0.2495432337
  102      H       9.9119448304    -1.3398283433    -2.4439195303
  103      H       8.9138233207    -2.7937576520    -2.3430432838
  104      C      10.8133721661    -3.0211701674    -1.2567138073
  105      H      11.5966908622    -2.3809165214    -0.8327608747
  106      C      11.3408384074    -3.9288777476    -2.4375691384
  107      H      10.5050767622    -3.6854288283    -0.4393103724
  108      H      10.5919738180    -4.6643501362    -2.7554310459
  109      H      12.2516459832    -4.4408342885    -2.1046561464
  110      H      11.5502565218    -3.3600072682    -3.3525398653
 ----------------------------------------------------------------

   10   -5663.4976027319      3.68E-06 Convergence criterion met
 Total energy in the final basis set = -5663.4976027319

                    Orbital Energies (a.u.)
 --------------------------------------------------------------

 Alpha MOs
 -- Occupied --
-88.978 -88.975 -88.936 -88.921 -88.919 -88.917 -88.905 -88.901
-14.382 -14.381 -14.378 -14.374 -14.348 -14.340 -14.338 -14.336
-14.325 -14.322 -10.267 -10.257 -10.255 -10.253 -10.248 -10.248
-10.246 -10.244 -10.236 -10.234 -10.232 -10.229 -10.228 -10.227
-10.226 -10.224 -10.222 -10.222 -10.222 -10.221 -10.220 -10.220
-10.219 -10.217 -10.217 -10.215 -10.214 -10.214 -10.212 -10.208
-10.208 -10.206 -10.204 -10.203 -10.196 -10.195 -10.191 -10.191
-10.185 -10.181 -10.181 -10.180 -10.179 -10.176 -10.174 -10.173
-10.171 -10.170 -10.168 -10.167  -8.034  -8.030  -7.996  -7.982
 -7.976  -7.975  -7.965  -7.962  -5.999  -5.995  -5.993  -5.992
 -5.990  -5.988  -5.960  -5.957  -5.953  -5.946  -5.943  -5.940
 -5.939  -5.939  -5.936  -5.936  -5.933  -5.931  -5.930  -5.926
 -5.926  -5.922  -5.922  -5.918  -1.035  -1.034  -0.972  -0.970
 -0.965  -0.957  -0.931  -0.925  -0.916  -0.905  -0.905  -0.899
 -0.847  -0.833  -0.829  -0.828  -0.812  -0.808  -0.804  -0.801
 -0.799  -0.794  -0.791  -0.785  -0.776  -0.775  -0.765  -0.760
 -0.749  -0.742  -0.739  -0.733  -0.722  -0.715  -0.706  -0.703
 -0.691  -0.685  -0.668  -0.667  -0.649  -0.645  -0.642  -0.638
 -0.633  -0.625  -0.624  -0.617  -0.609  -0.608  -0.594  -0.592
 -0.589  -0.588  -0.584  -0.582  -0.575  -0.572  -0.563  -0.560
 -0.546  -0.540  -0.537  -0.536  -0.521  -0.515  -0.515  -0.510
 -0.506  -0.504  -0.495  -0.492  -0.485  -0.483  -0.474  -0.471
 -0.469  -0.466  -0.463  -0.460  -0.454  -0.449  -0.448  -0.443
 -0.441  -0.437  -0.436  -0.434  -0.431  -0.428  -0.425  -0.423
 -0.421  -0.421  -0.418  -0.416  -0.415  -0.412  -0.410  -0.409
 -0.408  -0.404  -0.401  -0.398  -0.398  -0.395  -0.393  -0.391
 -0.391  -0.388  -0.387  -0.385  -0.382  -0.381  -0.379  -0.376
 -0.375  -0.373  -0.371  -0.368  -0.359  -0.356  -0.353  -0.352
 -0.350  -0.349  -0.345  -0.343  -0.343  -0.342  -0.339  -0.338
 -0.334  -0.334  -0.332  -0.330  -0.328  -0.323  -0.320  -0.315
 -0.313  -0.312  -0.311  -0.309  -0.299  -0.295  -0.293  -0.291
 -0.290  -0.288  -0.287  -0.284  -0.282  -0.280  -0.277  -0.273
 -0.266  -0.265  -0.263  -0.260  -0.253  -0.248  -0.246  -0.245
 -0.241  -0.236  -0.230  -0.225  -0.193  -0.187

          Ground-State Mulliken Net Atomic Charges

     Atom                 Charge (a.u.)
  ----------------------------------------
      1 C                     0.302069
      2 C                    -0.131472
      3 N                    -0.498250
      4 C                    -0.048489
      5 C                     0.063992
      6 C                     0.027120
      7 C                     0.055730
      8 C                     0.037220
      9 C                     0.201628
     10 N                    -0.529139
     11 N                    -0.552689
     12 C                     0.239421
     13 C                     0.290507
     14 S                     0.593573
     15 N                    -0.552292
     16 C                    -0.228880
     17 S                     0.370608
     18 C                    -0.114077
     19 C                    -0.206656
     20 S                     0.300918
     21 C                     0.125689
     22 C                     0.051372
     23 C                    -0.320076
     24 C                    -0.076165
     25 N                    -0.406260
     26 S                     0.272823
     27 C                     0.117007
     28 C                    -0.301773
     29 C                    -0.244771
     30 H                     0.082520
     31 H                     0.110193
     32 H                     0.112919
     33 H                     0.115051
     34 H                     0.128327
     35 H                     0.114814
     36 H                     0.110266
     37 H                     0.123409
     38 H                     0.112653
     39 C                    -0.179904
     40 H                     0.095206
     41 H                     0.084861
     42 H                     0.127455
     43 C                    -0.177779
     44 H                     0.086917
     45 C                    -0.184732
     46 H                     0.096392
     47 H                     0.101751
     48 H                     0.088041
     49 C                    -0.176789
     50 H                     0.100281
     51 C                    -0.316636
     52 H                     0.094217
     53 H                     0.094411
     54 H                     0.103398
     55 H                     0.104900
     56 C                     0.269704
     57 C                    -0.095070
     58 N                    -0.490662
     59 C                    -0.095378
     60 C                     0.072687
     61 C                     0.039413
     62 C                     0.048557
     63 C                     0.032922
     64 C                     0.209764
     65 N                    -0.545918
     66 N                    -0.524542
     67 C                     0.235961
     68 C                     0.346658
     69 S                     0.594980
     70 N                    -0.584785
     71 C                    -0.236588
     72 S                     0.323160
     73 C                    -0.072944
     74 C                    -0.205966
     75 S                     0.279742
     76 C                     0.139124
     77 C                     0.005611
     78 C                    -0.320991
     79 C                    -0.070074
     80 N                    -0.387717
     81 S                     0.282780
     82 C                     0.123637
     83 C                    -0.300970
     84 C                    -0.233460
     85 H                     0.084892
     86 H                     0.108840
     87 H                     0.128567
     88 H                     0.107142
     89 H                     0.128511
     90 H                     0.104899
     91 H                     0.122044
     92 H                     0.125174
     93 H                     0.122124
     94 C                    -0.198036
     95 H                     0.109208
     96 H                     0.129876
     97 H                     0.088710
     98 C                    -0.187258
     99 H                     0.092693
    100 C                    -0.165542
    101 H                     0.089616
    102 H                     0.093888
    103 H                     0.089142
    104 C                    -0.178803
    105 H                     0.096452
    106 C                    -0.322802
    107 H                     0.097526
    108 H                     0.104215
    109 H                     0.096510
    110 H                     0.101944
  ----------------------------------------
  Sum of atomic charges =     0.000000

                    Cartesian Multipole Moments
 -----------------------------------------------------------------
    Charge (ESU x 10^10)
                 0.0000
    Dipole Moment (Debye)
         X      -3.6352      Y       2.0064      Z      -0.3850
       Tot       4.1700
    Quadrupole Moments (Debye-Ang)
        XX    -381.3893     XY       8.1350     YY    -424.8370
        XZ      -9.6897     YZ      -7.3128     ZZ    -440.5558

 Total job time:  120.31s(wall), 1427.32s(cpu)
        *  Thank you very much for using Q-Chem.  Have a nice day.  *
