 Q-Chem 4.4, Q-Chem, Inc., Pleasanton, CA (2016)
 Q-Chem 4.4.2 for Intel X86 Linux

User input:
--------------------------------------------------------------
$comment
SP
$end

$rem
MEM_STATIC 5000
MEM_TOTAL 20000
JOBTYPE SP
EXCHANGE B3LYP
BASIS 6-31g(d,p)
$end

$molecule
0 1
C          -4.803000      1.180000      1.744000
C          -3.775000      1.712000      0.936000
N          -6.022000      1.747000      1.821000
C          -4.044000      2.948000      0.252000
C          -6.281000      2.876000      1.258000
C          -5.322000      3.611000      0.474000
C          -5.618000      5.021000     -0.078000
C          -6.932000      5.388000     -0.231000
C          -4.617000      6.013000     -0.500000
N          -7.426000      6.578000     -0.678000
N          -3.254000      5.942000     -0.500000
C          -5.098000      7.274000     -0.844000
C          -6.475000      7.533000     -0.973000
S          -2.703000      7.408000     -0.890000
N          -4.096000      8.177000     -1.188000
C          -7.011000      8.852000     -1.463000
S          -8.579000      8.993000     -2.320000
C          -6.561000     10.118000     -1.040000
C          -8.563000     10.714000     -2.143000
S          -5.352000     10.665000      0.056000
C          -7.456000     11.115000     -1.505000
C          -9.649000     11.537000     -2.615000
C          -5.965000     12.319000     -0.139000
C          -7.083000     12.402000     -0.969000
N         -10.607000     10.894000     -3.199000
S          -9.874000     13.245000     -2.497000
C         -11.743000     11.700000     -3.364000
C         -11.461000     13.063000     -3.155000
C          -4.597000      0.042000      2.631000
H          -2.809000      1.231000      0.809000
H          -3.246000      3.400000     -0.329000
H          -7.329000      3.164000      1.313000
H          -7.706000      4.661000      0.013000
H          -5.450000     13.155000      0.315000
H          -7.667000     13.315000     -1.003000
H         -12.740000     11.371000     -3.624000
H         -12.236000     13.816000     -3.214000
H          -4.024000      0.253000      3.542000
C          -3.882000     -1.172000      1.985000
H          -5.556000     -0.231000      3.087000
H          -2.826000     -1.129000      2.278000
H          -3.961000     -1.195000      0.892000
C          -4.513000     -2.432000      2.508000
H          -4.204000     -2.493000      3.559000
C          -3.990000     -3.674000      1.754000
H          -5.602000     -2.542000      2.590000
H          -4.046000     -3.621000      0.660000
H          -4.504000     -4.536000      2.197000
C          -2.460000     -4.055000      1.939000
H          -1.889000     -3.411000      1.259000
C          -2.126000     -5.525000      1.691000
H          -2.033000     -3.949000      2.944000
H          -2.291000     -5.816000      0.646000
H          -2.817000     -6.206000      2.204000
H          -1.131000     -5.913000      1.941000
C          -9.094000     -3.095000      1.129000
C          -9.973000     -2.353000      0.290000
N          -7.764000     -2.801000      1.266000
C          -9.471000     -1.255000     -0.379000
C          -7.313000     -1.712000      0.604000
C          -8.092000     -0.928000     -0.258000
C          -7.509000      0.226000     -1.005000
C          -8.249000      1.345000     -1.338000
C          -6.260000      0.172000     -1.568000
N          -7.799000      2.333000     -2.118000
N          -5.366000     -0.805000     -1.457000
C          -5.704000      1.212000     -2.282000
C          -6.530000      2.310000     -2.528000
S          -3.965000     -0.370000     -2.237000
N          -4.428000      1.069000     -2.733000
C          -5.996000      3.566000     -3.161000
S          -4.292000      4.069000     -3.441000
C          -6.705000      4.669000     -3.642000
C          -4.644000      5.699000     -3.931000
S          -8.391000      4.798000     -3.618000
C          -5.965000      5.784000     -4.104000
C          -3.649000      6.753000     -4.209000
C          -8.179000      6.399000     -4.242000
C          -6.915000      6.836000     -4.458000
N          -2.385000      6.347000     -4.375000
S          -3.943000      8.482000     -4.332000
C          -1.596000      7.409000     -4.710000
C          -2.291000      8.572000     -4.842000
C          -9.519000     -4.228000      1.968000
H         -11.018000     -2.612000      0.147000
H         -10.152000     -0.676000     -0.996000
H          -6.272000     -1.410000      0.713000
H          -9.224000      1.521000     -0.886000
H          -9.034000      7.062000     -4.236000
H          -6.721000      7.872000     -4.715000
H          -0.525000      7.377000     -4.861000
H          -1.900000      9.553000     -5.078000
H          -8.862000     -4.221000      2.846000
C          -9.567000     -5.605000      1.144000
H         -10.508000     -3.986000      2.377000
H          -8.525000     -5.874000      0.929000
H         -10.147000     -5.466000      0.223000
C         -10.192000     -6.784000      1.908000
H          -9.873000     -6.820000      2.957000
C          -9.911000     -8.116000      1.207000
H         -11.256000     -6.518000      1.879000
H          -8.871000     -8.380000      1.436000
H         -10.095000     -8.146000      0.126000
C         -10.736000     -9.241000      1.803000
H         -10.294000    -10.170000      1.421000
C         -12.199000     -9.220000      1.309000
H         -10.676000     -9.257000      2.898000
H         -12.802000    -10.073000      1.643000
H         -12.191000     -9.240000      0.212000
H         -12.729000     -8.306000      1.604000
$end

--------------------------------------------------------------

             Standard Nuclear Orientation (Angstroms)
    I     Atom           X                Y                Z
 ----------------------------------------------------------------
    1      C       3.0059698666     1.7020275991     2.2411759692
    2      C       2.2575969074     2.7192227341     1.6103638170
    3      N       2.5223319152     0.4573070332     2.4147963733
    4      C       0.9067866708     2.4067091254     1.2288406212
    5      C       1.3035819165     0.1574580399     2.1259538177
    6      C       0.3665397025     1.0960686708     1.5642386118
    7      C      -1.1209572299     0.7462845011     1.3511097522
    8      C      -1.4609356834    -0.5800630210     1.2515562398
    9      C      -2.2237124637     1.7086040912     1.2027153423
   10      N      -2.7021334520    -1.1195041728     1.0831034478
   11      N      -2.2092064144     3.0731993346     1.2246104622
   12      C      -3.5100400543     1.1770539419     1.1513950874
   13      C      -3.7369784238    -0.2077403728     1.0479799892
   14      S      -3.7466406169     3.5639207520     1.2060211282
   15      N      -4.5080060562     2.1430085147     1.0578824028
   16      C      -5.1118989894    -0.7942200993     0.8668944603
   17      S      -5.3885583202    -2.3512425386     0.0230374001
   18      C      -6.2591344500    -0.4099956356     1.5882871130
   19      C      -7.0183130452    -2.4167397661     0.6001298101
   20      S      -6.5796777575     0.7528399099     2.8159562387
   21      C      -7.3011869119    -1.3408522560     1.3456111587
   22      C      -7.8854554103    -3.5303268518     0.3043310253
   23      C      -8.2071111063     0.0688768332     2.9980694029
   24      C      -8.4390519955    -1.0365357858     2.1795467303
   25      N      -7.3608225474    -4.4473636815    -0.4413718726
   26      S      -9.5068973868    -3.8348760626     0.8142218914
   27      C      -8.1369664166    -5.6156740059    -0.4443180650
   28      C      -9.4222053760    -5.3997867244     0.0872150938
   29      C       4.3120854546     1.9434854121     2.8411836320
   30      H       2.6560333107     3.7082400933     1.4012248784
   31      H       0.2988748810     3.1937100889     0.7932470729
   32      H       1.0788005869    -0.9033798660     2.2174376481
   33      H      -0.6665666222    -1.3244858624     1.2957538383
   34      H      -8.9321359926     0.5370195704     3.6503103798
   35      H      -9.3101893756    -1.6607453893     2.3446619503
   36      H      -7.8391267105    -6.5918094877    -0.8025093976
   37      H     -10.1362758330    -6.2070377604     0.1850115523
   38      H       4.2994735013     2.4897136591     3.7921024723
   39      C       5.3096528050     2.7245353322     1.9483469147
   40      H       4.7231176155     0.9897985448     3.1928651950
   41      H       5.2949264055     3.7720106734     2.2730198930
   42      H       5.0770311590     2.6664582618     0.8787987747
   43      C       6.6816841649     2.1421333676     2.1423260344
   44      H       6.9767586298     2.4345153556     3.1578292758
   45      C       7.6885999134     2.7346416407     1.1325420863
   46      H       6.8513329440     1.0579577806     2.1652953266
   47      H       7.3810355172     2.6960984640     0.0805441939
   48      H       8.6506506090     2.2524454912     1.3456953937
   49      C       8.0411022143     4.2767878018     1.2660087326
   50      H       7.2324644438     4.8301201447     0.7729516624
   51      C       9.3964192165     4.6817344861     0.6888657636
   52      H       8.1584622074     4.6802653859     2.2794299042
   53      H       9.4387670875     4.5490809424    -0.3995003031
   54      H      10.2063357579     4.0132513572     1.0075764510
   55      H       9.7924309897     5.6886639542     0.8686899049
   56      C       7.1826738439    -2.3782618760     0.5169623266
   57      C       6.2992427937    -3.2747707634    -0.1485806056
   58      N       6.8764722121    -1.0657075589     0.7568513118
   59      C       5.0551707592    -2.8112036222    -0.5261508356
   60      C       5.6448278111    -0.6527966329     0.3825217289
   61      C       4.7111945245    -1.4509193701    -0.2926597152
   62      C       3.3910984125    -0.9075846080    -0.7305496459
   63      C       2.2555782271    -1.6915649086    -0.8119056345
   64      C       3.2607016296     0.3525638067    -1.2548669656
   65      N       1.0941691870    -1.2729234266    -1.3246554284
   66      N       4.1997806149     1.2879190092    -1.3514449366
   67      C       2.0601587312     0.8735186206    -1.6882661246
   68      C       0.9690062019     0.0030219325    -1.6924701478
   69      S       3.5373020032     2.6815719723    -1.9673016631
   70      N       2.0415418858     2.1626554853    -2.1239329207
   71      C      -0.4212441380     0.4907129928    -1.9970065530
   72      S      -1.0437705046     2.1748604716    -2.1025204981
   73      C      -1.5774173913    -0.2588981162    -2.2250363616
   74      C      -2.7279875329     1.7580152596    -2.2052681071
   75      S      -1.6296698602    -1.9491784746    -2.2191211656
   76      C      -2.7986164462     0.4378640340    -2.3907601506
   77      C      -3.8566938430     2.7089159112    -2.1993506591
   78      C      -3.3398961399    -1.7989555802    -2.4429071221
   79      C      -3.8656598251    -0.5524371441    -2.5142186623
   80      N      -3.5521841814     3.9928707328    -2.4203074020
   81      S      -5.5526803712     2.3388561399    -1.9206187778
   82      C      -4.6938919149     4.7386861228    -2.4737195287
   83      C      -5.8264632887     3.9940127812    -2.3481739284
   84      C       8.4977972055    -2.7664062745     1.0536460971
   85      H       6.5586654763    -4.3041500182    -0.3779999190
   86      H       4.3745135987    -3.5065542707    -1.0087317154
   87      H       5.3357873476     0.3712470547     0.5889061221
   88      H       2.2303720193    -2.6815816205    -0.3589856005
   89      H      -3.9480418476    -2.6831937615    -2.3053875349
   90      H      -4.9399452215    -0.4011376465    -2.5148095609
   91      H      -4.7412485882     5.8125905600    -2.5976251590
   92      H      -6.8502569522     4.3441975458    -2.3357173953
   93      H       8.6721011119    -2.1264031332     1.9269135976
   94      C       9.6420551594    -2.7368064839    -0.0720566111
   95      H       8.3989166022    -3.7726297613     1.4799123530
   96      H       9.8108457778    -1.6799297134    -0.3146905314
   97      H       9.3127712734    -3.3057640524    -0.9505902801
   98      C      10.9921153191    -3.3212615276     0.3752820382
   99      H      11.2620457486    -3.0199923801     1.3950037963
  100      C      12.1085910933    -2.9673290052    -0.6110240072
  101      H      10.7694964231    -4.3955593377     0.3795296672
  102      H      12.3774556487    -1.9207131749    -0.4211710257
  103      H      11.8897923545    -3.1301790137    -1.6735323538
  104      C      13.3745368401    -3.7509596939    -0.3198705941
  105      H      14.1686424613    -3.2603229897    -0.8969328843
  106      C      13.2959130313    -5.2042200813    -0.8362992368
  107      H      13.6462544678    -3.7101222456     0.7419122621
  108      H      14.2270397750    -5.7737460907    -0.7294483507
  109      H      13.0559600091    -5.1754654986    -1.9065649613
  110      H      12.4993402499    -5.7804944526    -0.3497803235
 ----------------------------------------------------------------

   10   -5663.4948719644      4.02E-06 Convergence criterion met
 Total energy in the final basis set = -5663.4948719644

                    Orbital Energies (a.u.)
 --------------------------------------------------------------

 Alpha MOs
 -- Occupied --
-88.990 -88.988 -88.929 -88.929 -88.919 -88.914 -88.910 -88.900
-14.383 -14.382 -14.378 -14.370 -14.347 -14.346 -14.342 -14.340
-14.329 -14.320 -10.269 -10.265 -10.260 -10.259 -10.258 -10.251
-10.245 -10.243 -10.240 -10.235 -10.235 -10.234 -10.232 -10.231
-10.231 -10.230 -10.229 -10.228 -10.227 -10.227 -10.226 -10.224
-10.223 -10.223 -10.221 -10.220 -10.217 -10.215 -10.212 -10.209
-10.209 -10.208 -10.206 -10.205 -10.203 -10.200 -10.198 -10.194
-10.184 -10.182 -10.177 -10.176 -10.175 -10.174 -10.172 -10.171
-10.171 -10.169 -10.164 -10.164  -8.045  -8.044  -7.991  -7.989
 -7.978  -7.974  -7.968  -7.961  -6.010  -6.009  -6.004  -6.003
 -6.003  -6.002  -5.955  -5.953  -5.951  -5.950  -5.948  -5.946
 -5.942  -5.939  -5.938  -5.935  -5.934  -5.933  -5.930  -5.929
 -5.926  -5.925  -5.922  -5.918  -1.040  -1.033  -0.974  -0.967
 -0.964  -0.946  -0.943  -0.931  -0.913  -0.911  -0.902  -0.892
 -0.845  -0.844  -0.830  -0.820  -0.812  -0.809  -0.808  -0.807
 -0.806  -0.803  -0.793  -0.787  -0.785  -0.779  -0.768  -0.761
 -0.747  -0.747  -0.741  -0.739  -0.723  -0.710  -0.709  -0.707
 -0.692  -0.689  -0.676  -0.671  -0.660  -0.648  -0.646  -0.640
 -0.633  -0.628  -0.620  -0.616  -0.607  -0.604  -0.600  -0.596
 -0.593  -0.586  -0.585  -0.578  -0.576  -0.572  -0.562  -0.554
 -0.543  -0.542  -0.540  -0.536  -0.525  -0.519  -0.516  -0.513
 -0.507  -0.503  -0.498  -0.497  -0.486  -0.479  -0.476  -0.475
 -0.473  -0.470  -0.469  -0.467  -0.465  -0.455  -0.449  -0.449
 -0.445  -0.443  -0.441  -0.437  -0.435  -0.432  -0.428  -0.427
 -0.425  -0.421  -0.419  -0.417  -0.416  -0.415  -0.411  -0.411
 -0.407  -0.404  -0.402  -0.401  -0.400  -0.398  -0.397  -0.395
 -0.395  -0.392  -0.391  -0.388  -0.383  -0.381  -0.379  -0.379
 -0.373  -0.371  -0.370  -0.367  -0.362  -0.359  -0.358  -0.356
 -0.355  -0.351  -0.349  -0.346  -0.344  -0.342  -0.339  -0.337
 -0.335  -0.333  -0.332  -0.330  -0.329  -0.325  -0.316  -0.310
 -0.308  -0.308  -0.305  -0.303  -0.299  -0.297  -0.297  -0.294
 -0.293  -0.290  -0.289  -0.285  -0.283  -0.281  -0.280  -0.277
 -0.274  -0.274  -0.266  -0.264  -0.253  -0.252  -0.249  -0.246
 -0.242  -0.234  -0.229  -0.222  -0.196  -0.189

          Ground-State Mulliken Net Atomic Charges

     Atom                 Charge (a.u.)
  ----------------------------------------
      1 C                     0.281391
      2 C                    -0.127346
      3 N                    -0.479240
      4 C                    -0.093293
      5 C                     0.083797
      6 C                     0.008885
      7 C                     0.080244
      8 C                     0.053207
      9 C                     0.251867
     10 N                    -0.501995
     11 N                    -0.561718
     12 C                     0.193663
     13 C                     0.239736
     14 S                     0.638347
     15 N                    -0.550710
     16 C                    -0.241102
     17 S                     0.355071
     18 C                    -0.101670
     19 C                    -0.222108
     20 S                     0.277454
     21 C                     0.119331
     22 C                     0.088934
     23 C                    -0.306406
     24 C                    -0.083787
     25 N                    -0.441869
     26 S                     0.273175
     27 C                     0.103231
     28 C                    -0.311712
     29 C                    -0.249493
     30 H                     0.098236
     31 H                     0.138879
     32 H                     0.097263
     33 H                     0.115804
     34 H                     0.130631
     35 H                     0.116156
     36 H                     0.121824
     37 H                     0.133399
     38 H                     0.115767
     39 C                    -0.198225
     40 H                     0.125946
     41 H                     0.098861
     42 H                     0.106008
     43 C                    -0.195418
     44 H                     0.081388
     45 C                    -0.173886
     46 H                     0.136069
     47 H                     0.099695
     48 H                     0.089597
     49 C                    -0.178808
     50 H                     0.086728
     51 C                    -0.325720
     52 H                     0.088402
     53 H                     0.093554
     54 H                     0.098647
     55 H                     0.098291
     56 C                     0.267361
     57 C                    -0.114313
     58 N                    -0.507340
     59 C                    -0.075882
     60 C                     0.116639
     61 C                     0.043951
     62 C                     0.056629
     63 C                     0.036903
     64 C                     0.290006
     65 N                    -0.536069
     66 N                    -0.597811
     67 C                     0.198155
     68 C                     0.302518
     69 S                     0.608461
     70 N                    -0.547176
     71 C                    -0.209811
     72 S                     0.324531
     73 C                    -0.133114
     74 C                    -0.255824
     75 S                     0.299424
     76 C                     0.153063
     77 C                     0.041941
     78 C                    -0.294115
     79 C                    -0.091647
     80 N                    -0.431412
     81 S                     0.310615
     82 C                     0.126967
     83 C                    -0.307739
     84 C                    -0.236596
     85 H                     0.091403
     86 H                     0.097685
     87 H                     0.125490
     88 H                     0.112696
     89 H                     0.134189
     90 H                     0.121775
     91 H                     0.117299
     92 H                     0.126167
     93 H                     0.119832
     94 C                    -0.179469
     95 H                     0.093436
     96 H                     0.110899
     97 H                     0.096592
     98 C                    -0.170784
     99 H                     0.095614
    100 C                    -0.169163
    101 H                     0.091726
    102 H                     0.094021
    103 H                     0.090923
    104 C                    -0.175582
    105 H                     0.088225
    106 C                    -0.316714
    107 H                     0.090423
    108 H                     0.099864
    109 H                     0.098058
    110 H                     0.102109
  ----------------------------------------
  Sum of atomic charges =     0.000000

                    Cartesian Multipole Moments
 -----------------------------------------------------------------
    Charge (ESU x 10^10)
                 0.0000
    Dipole Moment (Debye)
         X      -3.6784      Y      -0.5106      Z       0.9326
       Tot       3.8290
    Quadrupole Moments (Debye-Ang)
        XX    -385.0680     XY      -5.5526     YY    -410.3404
        XZ     -11.9914     YZ       5.1668     ZZ    -452.6025

 Total job time:  116.85s(wall), 1384.96s(cpu)
        *  Thank you very much for using Q-Chem.  Have a nice day.  *
