 Q-Chem 4.4, Q-Chem, Inc., Pleasanton, CA (2016)
 Q-Chem 4.4.2 for Intel X86 Linux

User input:
--------------------------------------------------------------
$comment
SP
$end

$rem
MEM_STATIC 5000
MEM_TOTAL 20000
JOBTYPE SP
EXCHANGE B3LYP
BASIS 6-31g(d,p)
$end

$molecule
0 1
C          -3.745000     -9.838000      0.610000
C          -3.261000     -9.584000     -0.726000
N          -4.481000     -9.027000      1.297000
C          -3.666000     -8.386000     -1.355000
C          -4.939000     -7.907000      0.639000
C          -4.529000     -7.501000     -0.654000
C          -4.987000     -6.291000     -1.260000
C          -6.412000     -6.150000     -1.222000
C          -4.279000     -5.357000     -1.981000
N          -7.037000     -5.188000     -1.875000
N          -2.910000     -5.522000     -2.149000
C          -4.867000     -4.365000     -2.723000
C          -6.297000     -4.289000     -2.629000
S          -2.503000     -4.154000     -2.885000
N          -4.012000     -3.546000     -3.330000
C          -7.077000     -3.226000     -3.369000
S          -6.369000     -1.869000     -4.311000
C          -8.468000     -3.089000     -3.404000
C          -7.929000     -1.172000     -4.763000
S          -9.725000     -3.986000     -2.502000
C          -8.886000     -1.942000     -4.153000
C          -8.072000      0.057000     -5.464000
C         -10.758000     -2.723000     -3.099000
C         -10.219000     -1.684000     -3.788000
N          -9.296000      0.519000     -5.764000
S          -6.753000      1.181000     -5.793000
C          -9.203000      1.678000     -6.449000
C          -7.945000      2.250000     -6.462000
C          -3.312000    -11.071000      1.443000
H          -2.605000    -10.272000     -1.250000
H          -3.406000     -8.192000     -2.391000
H          -5.619000     -7.276000      1.208000
H          -7.078000     -6.867000     -0.743000
H         -11.797000     -2.666000     -2.802000
H         -10.642000     -0.730000     -4.081000
H         -10.094000      2.154000     -6.836000
H          -7.625000      3.242000     -6.752000
H          -2.371000    -11.533000      1.119000
C          -4.316000    -12.230000      1.238000
H          -3.247000    -10.860000      2.518000
H          -3.833000    -13.185000      1.479000
H          -4.560000    -12.398000      0.182000
C          -5.622000    -12.055000      2.128000
H          -5.302000    -12.076000      3.177000
C          -6.579000    -13.219000      1.730000
H          -6.125000    -11.134000      1.806000
H          -6.124000    -14.192000      1.504000
H          -7.114000    -12.912000      0.823000
C          -7.598000    -13.338000      2.847000
H          -8.136000    -14.288000      2.747000
C          -8.607000    -12.206000      3.086000
H          -7.048000    -13.474000      3.787000
H          -9.367000    -12.252000      2.296000
H          -8.086000    -11.243000      3.011000
H          -9.162000    -12.277000      4.030000
C          -9.094000     -3.095000      1.129000
C          -9.973000     -2.353000      0.290000
N          -7.764000     -2.801000      1.266000
C          -9.471000     -1.255000     -0.379000
C          -7.313000     -1.712000      0.604000
C          -8.092000     -0.928000     -0.258000
C          -7.509000      0.226000     -1.005000
C          -8.249000      1.345000     -1.338000
C          -6.260000      0.172000     -1.568000
N          -7.799000      2.333000     -2.118000
N          -5.366000     -0.805000     -1.457000
C          -5.704000      1.212000     -2.282000
C          -6.530000      2.310000     -2.528000
S          -3.965000     -0.370000     -2.237000
N          -4.428000      1.069000     -2.733000
C          -5.996000      3.566000     -3.161000
S          -4.292000      4.069000     -3.441000
C          -6.705000      4.669000     -3.642000
C          -4.644000      5.699000     -3.931000
S          -8.391000      4.798000     -3.618000
C          -5.965000      5.784000     -4.104000
C          -3.649000      6.753000     -4.209000
C          -8.179000      6.399000     -4.242000
C          -6.915000      6.836000     -4.458000
N          -2.385000      6.347000     -4.375000
S          -3.943000      8.482000     -4.332000
C          -1.596000      7.409000     -4.710000
C          -2.291000      8.572000     -4.842000
C          -9.519000     -4.228000      1.968000
H         -11.018000     -2.612000      0.147000
H         -10.152000     -0.676000     -0.996000
H          -6.272000     -1.410000      0.713000
H          -9.224000      1.521000     -0.886000
H          -9.034000      7.062000     -4.236000
H          -6.721000      7.872000     -4.715000
H          -0.525000      7.377000     -4.861000
H          -1.900000      9.553000     -5.078000
H          -8.862000     -4.221000      2.846000
C          -9.567000     -5.605000      1.144000
H         -10.508000     -3.986000      2.377000
H          -8.525000     -5.874000      0.929000
H         -10.147000     -5.466000      0.223000
C         -10.192000     -6.784000      1.908000
H          -9.873000     -6.820000      2.957000
C          -9.911000     -8.116000      1.207000
H         -11.256000     -6.518000      1.879000
H          -8.871000     -8.380000      1.436000
H         -10.095000     -8.146000      0.126000
C         -10.736000     -9.241000      1.803000
H         -10.294000    -10.170000      1.421000
C         -12.199000     -9.220000      1.309000
H         -10.676000     -9.257000      2.898000
H         -12.802000    -10.073000      1.643000
H         -12.191000     -9.240000      0.212000
H         -12.729000     -8.306000      1.604000
$end

--------------------------------------------------------------

             Standard Nuclear Orientation (Angstroms)
    I     Atom           X                Y                Z
 ----------------------------------------------------------------
    1      C      -7.9052690184    -3.5128249316     0.2187449266
    2      C      -7.1767155123    -4.0694364278    -0.8961817217
    3      N      -7.4390311727    -2.6309325014     1.0411037369
    4      C      -5.8771875473    -3.5750955137    -1.1446251338
    5      C      -6.2075517290    -2.0959317009     0.7339221567
    6      C      -5.3572817057    -2.5574801111    -0.2999051754
    7      C      -4.0588243445    -2.0073869934    -0.5290471469
    8      C      -4.0632891478    -0.5774420488    -0.6138263953
    9      C      -2.8792381735    -2.6535535937    -0.8197466307
   10      N      -2.9962244632     0.1041013356    -0.9871219536
   11      N      -2.8585472177    -4.0415461479    -0.8713077979
   12      C      -1.7509569438    -2.0122168084    -1.2625113477
   13      C      -1.8356146385    -0.5806310064    -1.3164294916
   14      S      -1.2930137910    -4.3387107941    -1.0702230136
   15      N      -0.7046977195    -2.8084559384    -1.4664228075
   16      C      -0.6581090300     0.2594002785    -1.7566532782
   17      S       0.9924003756    -0.3536099083    -2.1173667557
   18      C      -0.6388786516     1.6492984751    -1.9072792907
   19      C       1.6621118509     1.2372843433    -2.4971759449
   20      S      -1.8922420533     2.8577815754    -1.4987321334
   21      C       0.6519352056     2.1405998931    -2.2864316382
   22      C       3.0376669859     1.4703148616    -2.7725590380
   23      C      -0.5971150076     3.9838854749    -1.7692925572
   24      C       0.6555254063     3.5202003699    -2.0155670317
   25      N       3.4651841497     2.7127381694    -3.0468461117
   26      S       4.3171328584     0.2744234524    -2.5623476718
   27      C       4.7902426092     2.7051245285    -3.3024182374
   28      C       5.4406033258     1.5285563119    -2.9820509950
   29      C      -9.3036273652    -4.0225363955     0.6505494627
   30      H      -7.5892178051    -4.8440920011    -1.5349356658
   31      H      -5.3250446595    -3.8929878103    -2.0236101844
   32      H      -5.8657010196    -1.3007641043     1.3935952467
   33      H      -4.9544863542     0.0337401510    -0.4748664806
   34      H      -0.7336773014     5.0428169593    -1.5932418507
   35      H       1.6118917481     4.0301499656    -2.0300179879
   36      H       5.2890497177     3.6127222873    -3.6149622772
   37      H       6.4962510852     1.3082499825    -2.8946614685
   38      H      -9.5464339173    -5.0356240573     0.3061668738
   39      C     -10.4093781753    -3.1858649423    -0.0354665906
   40      H      -9.4606774599    -3.9740970781     1.7356116270
   41      H     -11.3440180320    -3.7595174821    -0.0631451344
   42      H     -10.2339403416    -3.0504736331    -1.1096112549
   43      C     -10.6574159501    -1.8003874944     0.7043242607
   44      H     -11.0011800970    -2.0343677433     1.7193717741
   45      C     -11.6990223558    -1.0264858238    -0.1589725016
   46      H      -9.7292360585    -1.2176297855     0.6426027779
   47      H     -12.4963189662    -1.6125180948    -0.6340664843
   48      H     -11.1533250317    -0.5337213635    -0.9729261963
   49      C     -12.2740211926     0.0579601145     0.7318497841
   50      H     -13.1784057349     0.4673616871     0.2666369812
   51      C     -11.3801390364     1.2123554922     1.2061619205
   52      H     -12.6690816111    -0.4263103657     1.6340722443
   53      H     -11.2243900191     1.8945816694     0.3611023446
   54      H     -10.4063322268     0.8071381257     1.5093684235
   55      H     -11.8117074521     1.8294967509     2.0043394505
   56      C      -2.2196489120     2.6358618961     2.2721774922
   57      C      -1.3186512970     3.5270285806     1.6232158306
   58      N      -1.8741153195     1.3666555900     2.6514226489
   59      C      -0.0205958520     3.1086997796     1.4105610027
   60      C      -0.5912875092     0.9982648797     2.4364642953
   61      C       0.3655231938     1.7937025729     1.7912254598
   62      C       1.7493217990     1.2956691338     1.5330044035
   63      C       2.8463012606     2.1359277196     1.4976268692
   64      C       1.9962033058     0.0077440465     1.1327738561
   65      N       4.0738867910     1.7467479665     1.1389949056
   66      N       1.1202958221    -0.9857425541     1.0238865090
   67      C       3.2596474992    -0.4746685747     0.8653438035
   68      C       4.3002604577     0.4551997196     0.8947653236
   69      S       1.9118927408    -2.3825959183     0.5965681296
   70      N       3.3878213536    -1.7909655100     0.5444702439
   71      C       5.7372311166     0.0272190979     0.7709553364
   72      S       6.4512412839    -1.6206083917     0.8703487229
   73      C       6.8715485834     0.8228615753     0.5950919443
   74      C       8.1139771975    -1.1152377154     0.8988752195
   75      S       6.8378163810     2.5084418321     0.4628257873
   76      C       8.1368150832     0.1879227629     0.6100046625
   77      C       9.2824835954    -1.9948943583     1.0964150609
   78      C       8.5673717477     2.4414371384     0.4219649909
   79      C       9.1597211609     1.2261478181     0.5086543250
   80      N       9.0673042524    -3.3079535744     0.9561961415
   81      S      10.9200132339    -1.5051575258     1.5083137352
   82      C      10.2445140390    -3.9874638806     1.0788047147
   83      C      11.3192525659    -3.1700957216     1.2516178843
   84      C      -3.6008656885     2.9875819808     2.6419993391
   85      H      -1.6045454791     4.5180098907     1.2829577526
   86      H       0.6702561355     3.8023054296     0.9401083126
   87      H      -0.2540003213     0.0136752321     2.7583129844
   88      H       2.7749345268     3.1584966228     1.8652742919
   89      H       9.1128825729     3.3679070857     0.5432142237
   90      H      10.2346092588     1.1384935870     0.6266090311
   91      H      10.3583326501    -5.0631837279     1.0516360950
   92      H      12.3526439278    -3.4575915740     1.3943989334
   93      H      -3.8316801755     2.4096914181     3.5449662102
   94      C      -4.6202766421     2.8018532051     1.4157387104
   95      H      -3.5971156432     4.0284837710     2.9890950036
   96      H      -4.7098231196     1.7210016535     1.2481339616
   97      H      -4.2313861237     3.3177089354     0.5288232522
   98      C      -6.0368829490     3.3397995869     1.6768943374
   99      H      -6.3948044780     3.1049967964     2.6869526667
  100      C      -7.0267215605     2.8439933915     0.6190750051
  101      H      -5.8702102977     4.4222485515     1.6119523133
  102      H      -7.2606999138     1.8017649067     0.8695763337
  103      H      -6.7082293727     2.9346636292    -0.4267063460
  104      C      -8.3537163002     3.5726963689     0.7167629341
  105      H      -9.0585377496     2.9921777426     0.1080315902
  106      C      -8.2955810135     4.9825580464     0.0892628633
  107      H      -8.7308425212     3.6002858835     1.7462752615
  108      H      -9.2602255766     5.5032131853     0.0553056388
  109      H      -7.9456365962     4.8831816085    -0.9458874777
  110      H      -7.5833004079     5.6412659075     0.6012016220
 ----------------------------------------------------------------

   10   -5663.4959112583      8.06E-06 Convergence criterion met
 Total energy in the final basis set = -5663.4959112583

                    Orbital Energies (a.u.)
 --------------------------------------------------------------

 Alpha MOs
 -- Occupied --
-88.991 -88.988 -88.933 -88.924 -88.919 -88.914 -88.913 -88.906
-14.391 -14.390 -14.382 -14.367 -14.352 -14.346 -14.344 -14.341
-14.329 -14.324 -10.273 -10.270 -10.267 -10.261 -10.256 -10.254
-10.246 -10.245 -10.242 -10.239 -10.239 -10.238 -10.235 -10.234
-10.232 -10.230 -10.228 -10.227 -10.226 -10.225 -10.225 -10.224
-10.223 -10.217 -10.217 -10.216 -10.215 -10.214 -10.212 -10.212
-10.207 -10.207 -10.204 -10.204 -10.203 -10.201 -10.194 -10.188
-10.183 -10.181 -10.180 -10.177 -10.176 -10.175 -10.173 -10.173
-10.172 -10.170 -10.168 -10.168  -8.047  -8.042  -7.994  -7.985
 -7.978  -7.973  -7.972  -7.967  -6.012  -6.007  -6.006  -6.005
 -6.002  -6.000  -5.957  -5.954  -5.951  -5.948  -5.945  -5.942
 -5.942  -5.938  -5.937  -5.936  -5.934  -5.934  -5.932  -5.931
 -5.929  -5.928  -5.928  -5.924  -1.041  -1.039  -0.969  -0.967
 -0.964  -0.955  -0.944  -0.927  -0.917  -0.912  -0.906  -0.901
 -0.848  -0.844  -0.843  -0.829  -0.812  -0.810  -0.809  -0.805
 -0.804  -0.798  -0.794  -0.794  -0.783  -0.777  -0.768  -0.763
 -0.749  -0.747  -0.741  -0.735  -0.716  -0.715  -0.710  -0.705
 -0.693  -0.690  -0.677  -0.676  -0.658  -0.654  -0.646  -0.645
 -0.634  -0.633  -0.626  -0.618  -0.609  -0.607  -0.597  -0.596
 -0.588  -0.588  -0.578  -0.577  -0.574  -0.572  -0.562  -0.559
 -0.555  -0.545  -0.541  -0.539  -0.527  -0.524  -0.518  -0.513
 -0.505  -0.503  -0.500  -0.494  -0.490  -0.486  -0.479  -0.477
 -0.476  -0.473  -0.468  -0.467  -0.464  -0.456  -0.451  -0.448
 -0.444  -0.443  -0.437  -0.434  -0.433  -0.427  -0.427  -0.426
 -0.423  -0.420  -0.420  -0.417  -0.416  -0.414  -0.414  -0.413
 -0.411  -0.407  -0.405  -0.402  -0.400  -0.399  -0.397  -0.395
 -0.394  -0.390  -0.389  -0.387  -0.385  -0.385  -0.382  -0.381
 -0.379  -0.373  -0.370  -0.369  -0.367  -0.364  -0.362  -0.361
 -0.356  -0.354  -0.352  -0.351  -0.345  -0.342  -0.340  -0.338
 -0.337  -0.334  -0.331  -0.330  -0.328  -0.327  -0.319  -0.319
 -0.314  -0.311  -0.307  -0.307  -0.304  -0.302  -0.298  -0.294
 -0.294  -0.292  -0.291  -0.287  -0.284  -0.282  -0.280  -0.279
 -0.275  -0.273  -0.268  -0.264  -0.254  -0.250  -0.249  -0.246
 -0.241  -0.237  -0.229  -0.226  -0.195  -0.189

          Ground-State Mulliken Net Atomic Charges

     Atom                 Charge (a.u.)
  ----------------------------------------
      1 C                     0.288153
      2 C                    -0.128027
      3 N                    -0.465852
      4 C                    -0.052546
      5 C                     0.047343
      6 C                     0.034133
      7 C                    -0.009633
      8 C                     0.085759
      9 C                     0.183165
     10 N                    -0.512734
     11 N                    -0.515389
     12 C                     0.275292
     13 C                     0.302785
     14 S                     0.604922
     15 N                    -0.593734
     16 C                    -0.226335
     17 S                     0.302109
     18 C                    -0.126603
     19 C                    -0.228442
     20 S                     0.319587
     21 C                     0.149832
     22 C                     0.047393
     23 C                    -0.317048
     24 C                    -0.060522
     25 N                    -0.437935
     26 S                     0.287245
     27 C                     0.134809
     28 C                    -0.308147
     29 C                    -0.221461
     30 H                     0.095614
     31 H                     0.106278
     32 H                     0.108666
     33 H                     0.125263
     34 H                     0.109143
     35 H                     0.125515
     36 H                     0.112309
     37 H                     0.145332
     38 H                     0.088399
     39 C                    -0.198247
     40 H                     0.116126
     41 H                     0.087984
     42 H                     0.090050
     43 C                    -0.161257
     44 H                     0.095178
     45 C                    -0.175375
     46 H                     0.119480
     47 H                     0.089614
     48 H                     0.089731
     49 C                    -0.178144
     50 H                     0.077029
     51 C                    -0.323361
     52 H                     0.087635
     53 H                     0.103728
     54 H                     0.109662
     55 H                     0.103095
     56 C                     0.272915
     57 C                    -0.109976
     58 N                    -0.491770
     59 C                    -0.063792
     60 C                     0.091487
     61 C                     0.044550
     62 C                     0.036404
     63 C                     0.045360
     64 C                     0.301270
     65 N                    -0.531935
     66 N                    -0.596716
     67 C                     0.189515
     68 C                     0.300596
     69 S                     0.628410
     70 N                    -0.548516
     71 C                    -0.208691
     72 S                     0.327873
     73 C                    -0.141671
     74 C                    -0.242306
     75 S                     0.293606
     76 C                     0.146732
     77 C                     0.057232
     78 C                    -0.297110
     79 C                    -0.089571
     80 N                    -0.428652
     81 S                     0.279825
     82 C                     0.134660
     83 C                    -0.305978
     84 C                    -0.239696
     85 H                     0.085232
     86 H                     0.096948
     87 H                     0.111829
     88 H                     0.111812
     89 H                     0.116340
     90 H                     0.112727
     91 H                     0.119714
     92 H                     0.127110
     93 H                     0.120193
     94 C                    -0.182348
     95 H                     0.091250
     96 H                     0.107184
     97 H                     0.105371
     98 C                    -0.171695
     99 H                     0.096364
    100 C                    -0.176715
    101 H                     0.091102
    102 H                     0.095176
    103 H                     0.091327
    104 C                    -0.178701
    105 H                     0.094598
    106 C                    -0.317801
    107 H                     0.092500
    108 H                     0.099867
    109 H                     0.097724
    110 H                     0.101271
  ----------------------------------------
  Sum of atomic charges =     0.000000

                    Cartesian Multipole Moments
 -----------------------------------------------------------------
    Charge (ESU x 10^10)
                 0.0000
    Dipole Moment (Debye)
         X       3.0958      Y       0.4509      Z      -0.8355
       Tot       3.2381
    Quadrupole Moments (Debye-Ang)
        XX    -385.4756     XY       3.5034     YY    -417.9819
        XZ      13.3115     YZ       7.4366     ZZ    -457.6040

 Total job time:  113.71s(wall), 1365.68s(cpu)
        *  Thank you very much for using Q-Chem.  Have a nice day.  *
