 Q-Chem 4.4, Q-Chem, Inc., Pleasanton, CA (2016)
 Q-Chem 4.4.2 for Intel X86 Linux

User input:
--------------------------------------------------------------
$comment
SP
$end

$rem
MEM_STATIC 5000
MEM_TOTAL 20000
JOBTYPE SP
EXCHANGE B3LYP
BASIS 6-31g(d,p)
$end

$molecule
0 1
C           1.513000     10.330000     -3.023000
C           2.559000     10.363000     -2.069000
N           0.825000      9.217000     -3.277000
C           2.940000      9.220000     -1.404000
C           1.122000      8.156000     -2.524000
C           2.208000      8.041000     -1.692000
C           2.591000      6.738000     -0.974000
C           3.985000      6.387000     -0.813000
C           1.703000      5.728000     -0.492000
N           4.413000      5.298000     -0.135000
N           0.385000      5.758000     -0.736000
C           2.113000      4.597000      0.200000
C           3.500000      4.417000      0.397000
S          -0.235000      4.437000      0.035000
N           1.092000      3.785000      0.699000
C           4.082000      3.364000      1.278000
S           3.186000      1.958000      1.939000
C           5.412000      3.328000      1.670000
C           4.749000      1.268000      2.545000
S           6.675000      4.501000      1.488000
C           5.741000      2.196000      2.372000
C           4.914000      0.020000      3.196000
C           7.706000      3.391000      2.402000
C           7.108000      2.194000      2.714000
N           3.923000     -0.796000      2.902000
S           5.804000     -0.325000      4.632000
C           3.978000     -1.878000      3.759000
C           4.855000     -1.800000      4.802000
C           1.075000     11.570000     -3.871000
H           3.022000     11.315000     -1.828000
H           3.774000      9.144000     -0.712000
H           0.563000      7.264000     -2.801000
H           4.725000      7.131000     -1.103000
H           8.750000      3.585000      2.612000
H           7.604000      1.379000      3.229000
H           3.240000     -2.636000      3.536000
H           4.973000     -2.571000      5.551000
H           0.071000     11.396000     -4.276000
C           2.190000     11.826000     -4.918000
H           1.208000     12.377000     -3.139000
H           3.131000     12.104000     -4.427000
H           1.996000     12.648000     -5.618000
C           2.504000     10.608000     -5.748000
H           2.765000      9.831000     -5.019000
C           3.518000     10.850000     -6.905000
H           1.626000     10.193000     -6.259000
H           3.450000      9.961000     -7.544000
H           4.504000     11.061000     -6.472000
C           3.224000     12.018000     -7.913000
H           2.280000     11.789000     -8.424000
C           4.204000     12.145000     -9.077000
H           3.153000     12.970000     -7.372000
H           3.741000     12.937000     -9.678000
H           4.319000     11.234000     -9.676000
H           5.207000     12.499000     -8.807000
C          -9.094000     -3.095000      1.129000
C          -9.973000     -2.353000      0.290000
N          -7.764000     -2.801000      1.266000
C          -9.471000     -1.255000     -0.379000
C          -7.313000     -1.712000      0.604000
C          -8.092000     -0.928000     -0.258000
C          -7.509000      0.226000     -1.005000
C          -8.249000      1.345000     -1.338000
C          -6.260000      0.172000     -1.568000
N          -7.799000      2.333000     -2.118000
N          -5.366000     -0.805000     -1.457000
C          -5.704000      1.212000     -2.282000
C          -6.530000      2.310000     -2.528000
S          -3.965000     -0.370000     -2.237000
N          -4.428000      1.069000     -2.733000
C          -5.996000      3.566000     -3.161000
S          -4.292000      4.069000     -3.441000
C          -6.705000      4.669000     -3.642000
C          -4.644000      5.699000     -3.931000
S          -8.391000      4.798000     -3.618000
C          -5.965000      5.784000     -4.104000
C          -3.649000      6.753000     -4.209000
C          -8.179000      6.399000     -4.242000
C          -6.915000      6.836000     -4.458000
N          -2.385000      6.347000     -4.375000
S          -3.943000      8.482000     -4.332000
C          -1.596000      7.409000     -4.710000
C          -2.291000      8.572000     -4.842000
C          -9.519000     -4.228000      1.968000
H         -11.018000     -2.612000      0.147000
H         -10.152000     -0.676000     -0.996000
H          -6.272000     -1.410000      0.713000
H          -9.224000      1.521000     -0.886000
H          -9.034000      7.062000     -4.236000
H          -6.721000      7.872000     -4.715000
H          -0.525000      7.377000     -4.861000
H          -1.900000      9.553000     -5.078000
H          -8.862000     -4.221000      2.846000
C          -9.567000     -5.605000      1.144000
H         -10.508000     -3.986000      2.377000
H          -8.525000     -5.874000      0.929000
H         -10.147000     -5.466000      0.223000
C         -10.192000     -6.784000      1.908000
H          -9.873000     -6.820000      2.957000
C          -9.911000     -8.116000      1.207000
H         -11.256000     -6.518000      1.879000
H          -8.871000     -8.380000      1.436000
H         -10.095000     -8.146000      0.126000
C         -10.736000     -9.241000      1.803000
H         -10.294000    -10.170000      1.421000
C         -12.199000     -9.220000      1.309000
H         -10.676000     -9.257000      2.898000
H         -12.802000    -10.073000      1.643000
H         -12.191000     -9.240000      0.212000
H         -12.729000     -8.306000      1.604000
$end

--------------------------------------------------------------

             Standard Nuclear Orientation (Angstroms)
    I     Atom           X                Y                Z
 ----------------------------------------------------------------
    1      C       7.3715418725    -2.9009517906    -1.1679628544
    2      C       8.0038028901    -1.7155028770    -1.6154870199
    3      N       6.1635733174    -2.8865106723    -0.6047289564
    4      C       7.4076877619    -0.4887865708    -1.4320507693
    5      C       5.5484008932    -1.7030764436    -0.5601720823
    6      C       6.1286796392    -0.4865641955    -0.8213607636
    7      C       5.4181470568     0.8567870164    -0.5964764132
    8      C       6.1653293430     1.9936532757    -0.1049362424
    9      C       4.0218593694     1.1255179761    -0.7347962060
   10      N       5.6375687595     3.2284434647     0.0549104207
   11      N       3.1262653057     0.1559054658    -0.9700043114
   12      C       3.4506523359     2.3795811843    -0.5699538728
   13      C       4.3023756779     3.4431299721    -0.1979198357
   14      S       1.6700432814     0.9228653098    -1.0927724416
   15      N       2.0888708815     2.4721189215    -0.8662207079
   16      C       3.8790644671     4.8727152038    -0.1698541267
   17      S       2.1828836577     5.4501968301    -0.2476913490
   18      C       4.7565721048     5.9396596834    -0.0454763824
   19      C       2.7557223729     7.1306324440     0.1187741394
   20      S       6.4877627060     5.9916121796    -0.1125736274
   21      C       4.1245720164     7.1502899150     0.0865059292
   22      C       1.9348373854     8.2716130969     0.2999949633
   23      C       6.3457517042     7.7467750773     0.0597431676
   24      C       5.0594097146     8.1927540598     0.2446324124
   25      N       0.7138282704     7.9196905187     0.6459143758
   26      S       2.1257550204     9.8429712238    -0.3838216011
   27      C      -0.1064821236     9.0263217134     0.5426852312
   28      C       0.4201791979    10.1362905829    -0.0520070937
   29      C       8.0198399576    -4.3211642748    -1.2740481636
   30      H       8.9426346907    -1.7911154866    -2.1555162630
   31      H       7.8534599983     0.4700659978    -1.6812191159
   32      H       4.5860609569    -1.7392471988    -0.0527595052
   33      H       7.2459981115     1.8866664827    -0.0278334615
   34      H       7.1992086592     8.4098538953     0.1198240064
   35      H       4.7903403168     9.2293806926     0.4133715112
   36      H      -1.1163576188     8.8410896967     0.8814736375
   37      H      -0.1285901826    11.0544349532    -0.2108437467
   38      H       7.2387220549    -5.0845288581    -1.1768559062
   39      C       9.1594084809    -4.3842037159    -0.2241054938
   40      H       8.5469742721    -4.2354178647    -2.2329741084
   41      H       9.9517769789    -3.6639713626    -0.4634034683
   42      H       9.6800233869    -5.3472412144    -0.1545433199
   43      C       8.6939002770    -4.0358530262     1.1662088264
   44      H       8.2475887414    -3.0383135833     1.0712768875
   45      C       9.7678841640    -4.2181452793     2.2791945159
   46      H       7.8579282603    -4.6568581600     1.5122339861
   47      H       9.2182720510    -4.1661568360     3.2270814959
   48      H      10.5565954198    -3.4689334483     2.1348955648
   49      C      10.4964239551    -5.6056606665     2.3828999798
   50      H       9.7379477171    -6.3652910665     2.6117524471
   51      C      11.4694639781    -5.7523629719     3.5504172376
   52      H      11.0029678066    -5.8338207121     1.4366535425
   53      H      11.7601210317    -6.8070002930     3.4723621408
   54      H      11.0312544451    -5.5527579625     4.5353422324
   55      H      12.3917796600    -5.1636442953     3.4669360860
   56      C      -9.9765093018     0.0847179294    -0.8376981474
   57      C      -9.9838479549    -1.3390196920    -0.8311156221
   58      N      -8.8376614399     0.8282078899    -0.6816429453
   59      C      -8.7787759316    -2.0012211064    -0.7108671071
   60      C      -7.6766102293     0.1434838931    -0.5783030473
   61      C      -7.5798129538    -1.2543652189    -0.5438190264
   62      C      -6.2664755673    -1.9419961558    -0.3651500482
   63      C      -5.9971500516    -3.1822014333    -0.9128768378
   64      C      -5.3130280868    -1.4754091592     0.5026750935
   65      N      -4.8867046617    -3.8835065446    -0.6636256052
   66      N      -5.3412759065    -0.3454977194     1.2016659366
   67      C      -4.1010405678    -2.1002150609     0.7057411885
   68      C      -3.9214137154    -3.3312348047     0.0727162408
   69      S      -3.9153349866    -0.1703826728     2.0362036610
   70      N      -3.2051853564    -1.5044364974     1.5391182601
   71      C      -2.5923461205    -4.0359129040     0.0924419750
   72      S      -0.9782499000    -3.4170528237     0.5891618078
   73      C      -2.2886461829    -5.3354056315    -0.3195483147
   74      C      -0.0601419727    -4.7799737556     0.0230978827
   75      S      -3.4248977160    -6.4263981309    -0.9347562632
   76      C      -0.9317773968    -5.7387833433    -0.2980420588
   77      C       1.4118344940    -4.8864497915     0.0099397946
   78      C      -2.0978190660    -7.5056905628    -1.2021718633
   79      C      -0.8562224503    -7.0851656560    -0.8602396382
   80      N       2.0781738632    -3.9923169161     0.7492680343
   81      S       2.3821928928    -6.0506584732    -0.8811430990
   82      C       3.4152971263    -4.2631476004     0.7126330842
   83      C       3.7159298239    -5.3809941380    -0.0036469585
   84      C     -11.1755591528     0.9124185054    -1.0508324039
   85      H     -10.8920797812    -1.9291672166    -0.9110896736
   86      H      -8.7867429784    -3.0870777203    -0.7341681872
   87      H      -6.7370993740     0.6885707310    -0.4948423268
   88      H      -6.6532384747    -3.6096368438    -1.6696806109
   89      H      -2.2707413492    -8.3775149603    -1.8191403421
   90      H       0.0210772390    -7.6625454540    -1.1321933547
   91      H       4.1915523327    -3.6760450420     1.1855013962
   92      H       4.6954568551    -5.7958955174    -0.2019438079
   93      H     -10.8304825164     1.8277245434    -1.5465328900
   94      C     -12.0108619713     1.1254150223     0.3035348599
   95      H     -11.7907336268     0.4163718864    -1.8120578096
   96      H     -11.4053226093     1.7820556571     0.9411045877
   97      H     -12.1953449661     0.1553104699     0.7818916118
   98      C     -13.3740189082     1.8103559742     0.1111262899
   99      H     -13.3286137503     2.6406922545    -0.6043721610
  100      C     -13.9599576512     2.2741362256     1.4476028770
  101      H     -13.9600229364     0.9986803312    -0.3377332978
  102      H     -13.4206759667     3.1872767786     1.7288262675
  103      H     -13.9472455485     1.5428591098     2.2651535986
  104      C     -15.4056126950     2.7090784287     1.2980275643
  105      H     -15.6527556491     3.2465623159     2.2223437609
  106      C     -16.3737510697     1.5084158436     1.2208042237
  107      H     -15.5411301828     3.3965347923     0.4542741888
  108      H     -17.4354773616     1.7829214133     1.2082354805
  109      H     -16.2129829203     0.8805874295     2.1061618263
  110      H     -16.1869953501     0.8736900268     0.3458376880
 ----------------------------------------------------------------

   10   -5663.5187328657      4.12E-06 Convergence criterion met
 Total energy in the final basis set = -5663.5187328657

                    Orbital Energies (a.u.)
 --------------------------------------------------------------

 Alpha MOs
 -- Occupied --
-88.988 -88.987 -88.933 -88.925 -88.921 -88.912 -88.908 -88.901
-14.391 -14.382 -14.378 -14.369 -14.351 -14.345 -14.339 -14.336
-14.332 -14.327 -10.265 -10.263 -10.261 -10.260 -10.254 -10.253
-10.245 -10.243 -10.243 -10.238 -10.235 -10.235 -10.234 -10.234
-10.233 -10.231 -10.229 -10.227 -10.226 -10.223 -10.223 -10.220
-10.219 -10.218 -10.218 -10.217 -10.216 -10.216 -10.215 -10.212
-10.209 -10.208 -10.205 -10.202 -10.199 -10.198 -10.198 -10.197
-10.196 -10.184 -10.183 -10.181 -10.181 -10.178 -10.176 -10.176
-10.175 -10.174 -10.172 -10.171  -8.043  -8.042  -7.994  -7.986
 -7.978  -7.971  -7.967  -7.963  -6.008  -6.007  -6.003  -6.001
 -6.001  -6.000  -5.958  -5.954  -5.950  -5.949  -5.946  -5.943
 -5.943  -5.939  -5.936  -5.935  -5.932  -5.932  -5.928  -5.927
 -5.927  -5.924  -5.924  -5.920  -1.040  -1.033  -0.974  -0.964
 -0.961  -0.951  -0.947  -0.930  -0.913  -0.912  -0.902  -0.900
 -0.844  -0.840  -0.830  -0.829  -0.811  -0.810  -0.809  -0.807
 -0.806  -0.802  -0.799  -0.793  -0.784  -0.784  -0.768  -0.767
 -0.752  -0.744  -0.743  -0.740  -0.721  -0.712  -0.711  -0.709
 -0.694  -0.691  -0.675  -0.671  -0.659  -0.653  -0.646  -0.643
 -0.638  -0.632  -0.624  -0.620  -0.616  -0.605  -0.604  -0.595
 -0.593  -0.588  -0.584  -0.577  -0.576  -0.571  -0.562  -0.555
 -0.542  -0.541  -0.538  -0.537  -0.524  -0.522  -0.518  -0.512
 -0.507  -0.506  -0.497  -0.497  -0.492  -0.486  -0.475  -0.474
 -0.473  -0.472  -0.468  -0.465  -0.464  -0.462  -0.452  -0.447
 -0.444  -0.444  -0.440  -0.439  -0.430  -0.430  -0.428  -0.428
 -0.427  -0.423  -0.421  -0.418  -0.417  -0.415  -0.413  -0.412
 -0.411  -0.407  -0.407  -0.403  -0.400  -0.398  -0.397  -0.394
 -0.394  -0.393  -0.388  -0.387  -0.386  -0.385  -0.382  -0.380
 -0.379  -0.377  -0.376  -0.372  -0.371  -0.362  -0.358  -0.358
 -0.357  -0.354  -0.353  -0.349  -0.344  -0.343  -0.342  -0.337
 -0.336  -0.332  -0.331  -0.330  -0.329  -0.329  -0.320  -0.316
 -0.315  -0.310  -0.308  -0.305  -0.300  -0.299  -0.296  -0.295
 -0.294  -0.293  -0.292  -0.291  -0.286  -0.284  -0.283  -0.277
 -0.276  -0.274  -0.270  -0.265  -0.260  -0.256  -0.249  -0.245
 -0.244  -0.234  -0.234  -0.228  -0.192  -0.190

          Ground-State Mulliken Net Atomic Charges

     Atom                 Charge (a.u.)
  ----------------------------------------
      1 C                     0.243171
      2 C                    -0.115112
      3 N                    -0.478481
      4 C                    -0.069929
      5 C                     0.076731
      6 C                     0.049171
      7 C                     0.020911
      8 C                     0.060538
      9 C                     0.228559
     10 N                    -0.530017
     11 N                    -0.548214
     12 C                     0.196407
     13 C                     0.294583
     14 S                     0.625083
     15 N                    -0.545583
     16 C                    -0.238781
     17 S                     0.349723
     18 C                    -0.106368
     19 C                    -0.223138
     20 S                     0.292512
     21 C                     0.172242
     22 C                     0.035705
     23 C                    -0.311057
     24 C                    -0.080356
     25 N                    -0.413005
     26 S                     0.283363
     27 C                     0.120402
     28 C                    -0.312095
     29 C                    -0.211158
     30 H                     0.090258
     31 H                     0.106576
     32 H                     0.115009
     33 H                     0.107969
     34 H                     0.122083
     35 H                     0.105067
     36 H                     0.113957
     37 H                     0.138567
     38 H                     0.116460
     39 C                    -0.184189
     40 H                     0.102502
     41 H                     0.091157
     42 H                     0.095817
     43 C                    -0.167242
     44 H                     0.100755
     45 C                    -0.177172
     46 H                     0.087781
     47 H                     0.090994
     48 H                     0.086417
     49 C                    -0.180334
     50 H                     0.092871
     51 C                    -0.315986
     52 H                     0.093823
     53 H                     0.102149
     54 H                     0.104707
     55 H                     0.100895
     56 C                     0.262456
     57 C                    -0.112079
     58 N                    -0.487289
     59 C                    -0.076514
     60 C                     0.093679
     61 C                     0.044976
     62 C                     0.037011
     63 C                     0.044529
     64 C                     0.285399
     65 N                    -0.531864
     66 N                    -0.586225
     67 C                     0.179896
     68 C                     0.300891
     69 S                     0.612338
     70 N                    -0.539084
     71 C                    -0.210454
     72 S                     0.323604
     73 C                    -0.135176
     74 C                    -0.240060
     75 S                     0.291361
     76 C                     0.149889
     77 C                     0.055861
     78 C                    -0.294325
     79 C                    -0.086920
     80 N                    -0.433766
     81 S                     0.272752
     82 C                     0.146524
     83 C                    -0.299497
     84 C                    -0.236657
     85 H                     0.090805
     86 H                     0.097421
     87 H                     0.115464
     88 H                     0.111956
     89 H                     0.115162
     90 H                     0.113123
     91 H                     0.126953
     92 H                     0.131258
     93 H                     0.121267
     94 C                    -0.179351
     95 H                     0.092301
     96 H                     0.111106
     97 H                     0.096247
     98 C                    -0.170834
     99 H                     0.095750
    100 C                    -0.169091
    101 H                     0.091419
    102 H                     0.094077
    103 H                     0.090977
    104 C                    -0.175696
    105 H                     0.088194
    106 C                    -0.316477
    107 H                     0.090304
    108 H                     0.099671
    109 H                     0.098018
    110 H                     0.102019
  ----------------------------------------
  Sum of atomic charges =     0.000000

                    Cartesian Multipole Moments
 -----------------------------------------------------------------
    Charge (ESU x 10^10)
                 0.0000
    Dipole Moment (Debye)
         X       1.9977      Y       0.7812      Z      -2.2000
       Tot       3.0726
    Quadrupole Moments (Debye-Ang)
        XX    -380.7497     XY       0.7161     YY    -389.4588
        XZ      -7.6719     YZ       7.9198     ZZ    -449.1555

 Total job time:  88.56s(wall), 1028.03s(cpu)
        *  Thank you very much for using Q-Chem.  Have a nice day.  *
