 Q-Chem 4.4, Q-Chem, Inc., Pleasanton, CA (2016)
 Q-Chem 4.4.2 for Intel X86 Linux

User input:
--------------------------------------------------------------
$comment
SP
$end

$rem
MEM_STATIC 5000
MEM_TOTAL 20000
JOBTYPE SP
EXCHANGE B3LYP
BASIS 6-31g(d,p)
$end

$molecule
0 1
C         -22.175000     -3.012000      2.327000
C         -23.515000     -3.374000      2.043000
N         -21.467000     -3.793000      3.218000
C         -24.115000     -4.453000      2.659000
C         -22.129000     -4.743000      3.934000
C         -23.426000     -5.197000      3.605000
C         -24.106000     -6.317000      4.277000
C         -25.538000     -6.293000      4.479000
C         -23.550000     -7.624000      4.527000
N         -26.210000     -7.420000      4.816000
N         -22.230000     -7.899000      4.486000
C         -24.294000     -8.734000      4.840000
C         -25.672000     -8.614000      4.877000
S         -22.091000     -9.454000      4.869000
N         -23.607000     -9.855000      5.079000
C         -26.623000     -9.762000      5.144000
S         -28.271000     -9.705000      5.794000
C         -26.332000    -11.103000      4.655000
C         -28.433000    -11.470000      5.743000
S         -25.359000    -11.663000      3.316000
C         -27.474000    -11.925000      4.831000
C         -29.707000    -12.111000      6.140000
C         -26.191000    -13.234000      3.391000
C         -27.323000    -13.180000      4.184000
N         -29.904000    -13.398000      6.099000
S         -30.982000    -11.102000      6.617000
C         -31.145000    -13.772000      6.504000
C         -31.868000    -12.638000      6.823000
C         -21.442000     -2.003000      1.412000
H         -24.148000     -2.880000      1.312000
H         -25.142000     -4.671000      2.378000
H         -21.576000     -5.188000      4.760000
H         -26.294000     -5.523000      4.326000
H         -25.924000    -14.051000      2.734000
H         -28.002000    -14.018000      4.292000
H         -31.367000    -14.831000      6.522000
H         -32.871000    -12.503000      7.204000
H         -20.523000     -1.709000      1.934000
C         -22.317000     -0.753000      1.050000
H         -21.212000     -2.387000      0.410000
H         -22.654000     -0.368000      2.021000
H         -23.172000     -1.034000      0.423000
C         -21.577000      0.376000      0.386000
H         -20.786000      0.629000      1.102000
C         -22.428000      1.552000      0.003000
H         -21.103000     -0.031000     -0.516000
H         -23.049000      1.933000      0.822000
H         -23.158000      1.215000     -0.744000
C         -21.788000      2.726000     -0.732000
H         -22.394000      3.630000     -0.596000
C         -21.687000      2.398000     -2.203000
H         -20.829000      2.903000     -0.229000
H         -21.196000      1.423000     -2.307000
H         -21.138000      3.120000     -2.820000
H         -22.668000      2.193000     -2.650000
C         -20.145000    -11.197000      2.382000
C         -20.293000    -12.104000      3.458000
N         -20.671000    -11.398000      1.151000
C         -21.101000    -13.218000      3.307000
C         -21.348000    -12.533000      0.966000
C         -21.624000    -13.507000      1.972000
C         -22.247000    -14.806000      1.595000
C         -23.313000    -15.277000      2.324000
C         -21.816000    -15.567000      0.530000
N         -23.891000    -16.462000      2.092000
N         -20.843000    -15.181000     -0.361000
C         -22.455000    -16.792000      0.221000
C         -23.507000    -17.293000      1.044000
S         -20.881000    -16.337000     -1.453000
N         -22.123000    -17.305000     -0.937000
C         -24.223000    -18.576000      0.816000
S         -23.935000    -19.839000     -0.448000
C         -25.086000    -19.210000      1.682000
C         -25.089000    -20.947000      0.247000
S         -25.457000    -18.745000      3.337000
C         -25.581000    -20.482000      1.412000
C         -25.412000    -22.207000     -0.424000
C         -26.582000    -20.142000      3.478000
C         -26.510000    -20.937000      2.389000
N         -26.330000    -23.006000      0.094000
S         -24.498000    -22.809000     -1.796000
C         -26.227000    -24.153000     -0.554000
C         -25.356000    -24.229000     -1.635000
C         -19.286000     -9.985000      2.611000
H         -19.979000    -11.855000      4.467000
H         -21.204000    -13.860000      4.177000
H         -21.836000    -12.734000      0.014000
H         -23.837000    -14.630000      3.027000
H         -27.074000    -20.312000      4.426000
H         -27.042000    -21.877000      2.309000
H         -26.927000    -24.912000     -0.231000
H         -25.143000    -25.066000     -2.287000
H         -19.142000     -9.792000      3.681000
C         -19.660000     -8.742000      1.787000
H         -18.262000    -10.173000      2.265000
H         -20.620000     -8.335000      2.127000
H         -19.724000     -8.919000      0.706000
C         -18.653000     -7.592000      2.123000
H         -18.876000     -6.691000      1.538000
C         -17.134000     -7.853000      1.857000
H         -18.666000     -7.315000      3.185000
H         -16.776000     -8.598000      2.579000
H         -16.661000     -6.880000      2.042000
C         -16.823000     -8.193000      0.302000
H         -17.284000     -9.169000      0.108000
C         -15.341000     -8.339000      0.000000
H         -17.151000     -7.515000     -0.496000
H         -14.741000     -7.487000      0.343000
H         -15.118000     -8.525000     -1.058000
H         -14.907000     -9.189000      0.541000
$end

--------------------------------------------------------------

             Standard Nuclear Orientation (Angstroms)
    I     Atom           X                Y                Z
 ----------------------------------------------------------------
    1      C      -8.9661530259     0.3753027110    -0.4710997002
    2      C      -8.3509186231    -0.5351154229    -1.3654852161
    3      N      -8.3826901382     0.5643325843     0.7654053607
    4      C      -7.2213853232    -1.2425067633    -1.0084851937
    5      C      -7.3747486121    -0.2644614725     1.1534186226
    6      C      -6.6742047546    -1.1037486231     0.2582083778
    7      C      -5.4934213566    -1.9032459639     0.6255482328
    8      C      -5.2704819159    -3.2020404938     0.0293647251
    9      C      -4.3265316138    -1.4261967229     1.3260318869
   10      N      -4.0635608615    -3.8102392043     0.1227344049
   11      N      -4.2927974319    -0.2788543246     2.0346738459
   12      C      -3.1217914989    -2.0828147038     1.3585754394
   13      C      -2.9926462565    -3.2576851170     0.6390936687
   14      S      -2.8152861498    -0.1906581430     2.6617438937
   15      N      -2.1604847348    -1.5132467637     2.0915233687
   16      C      -1.7103251046    -4.0558873806     0.5290045685
   17      S      -1.5084127294    -5.7832002966     0.1865509471
   18      C      -0.4164416333    -3.3885663336     0.4777095099
   19      C       0.2564997539    -5.6811605907     0.3234517320
   20      S       0.0400528993    -1.7824309134    -0.0372582111
   21      C       0.5860600083    -4.3333357974     0.1412201061
   22      C       1.0915466601    -6.8778018412     0.0738272500
   23      C       1.7279252729    -2.3269002771    -0.1805410168
   24      C       1.8306183196    -3.7053050147    -0.1291258682
   25      N       2.3929832749    -6.8665789868     0.1285610169
   26      S       0.3022474755    -8.3137348535    -0.3578418147
   27      C       2.9594896946    -8.0717835809    -0.1370220448
   28      C       1.9574314494    -8.9789154864    -0.4258766437
   29      C     -10.0325431798     1.3651123599    -0.9961557913
   30      H      -8.6761299789    -0.7160449638    -2.3855774058
   31      H      -6.8042897955    -1.9125163833    -1.7557016481
   32      H      -7.0890393384    -0.2076539739     2.2028247018
   33      H      -5.8800981455    -3.8345218595    -0.6157557091
   34      H       2.5221975247    -1.6490278899    -0.4634678920
   35      H       2.7692928273    -4.2276958530    -0.2738565860
   36      H       4.0380031012    -8.1405149232    -0.0806852513
   37      H       1.9827618845   -10.0340014381    -0.6615607620
   38      H     -10.5196064281     1.8045170379    -0.1168527030
   39      C     -11.0788653284     0.6922511894    -1.9509525270
   40      H      -9.6352645135     2.1506476838    -1.6514907561
   41      H     -11.4558571030    -0.1649406133    -1.3784715970
   42      H     -10.6096449353     0.3619045954    -2.8857350421
   43      C     -12.2798288620     1.5359519963    -2.2810927086
   44      H     -12.7154936370     1.7677902416    -1.3019128315
   45      C     -13.2565573835     0.9032036728    -3.2295108412
   46      H     -11.9102864396     2.4712491729    -2.7199395947
   47      H     -13.5688611771    -0.1051314551    -2.9340626896
   48      H     -12.7475567289     0.7487662661    -4.1894824143
   49      C     -14.4792155730     1.6978054073    -3.6787502376
   50      H     -15.2653591981     1.0150543882    -4.0233909877
   51      C     -14.0845749680     2.6273723686    -4.8020445256
   52      H     -14.8574953188     2.1945370214    -2.7764303734
   53      H     -13.2099203830     3.2057608134    -4.4811579978
   54      H     -14.8544044292     3.3352011103    -5.1332771827
   55      H     -13.6782951494     2.0850018965    -5.6651586432
   56      C      -1.3025926015     2.9902501090     1.8847529536
   57      C      -0.4520780722     2.3841924486     2.8395556283
   58      N      -0.9340529626     3.2542297669     0.6092407918
   59      C       0.7968529651     1.9297300531     2.4518750957
   60      C       0.3139009472     2.9293171043     0.2659889881
   61      C       1.2576581357     2.2636455638     1.1044946645
   62      C       2.6686939109     2.1081327797     0.6545470955
   63      C       3.2787286709     0.8813780004     0.7666555390
   64      C       3.4035653342     3.1390421005     0.1102154285
   65      N       4.5607620338     0.6700863936     0.4443524001
   66      N       2.9037998964     4.3877618444    -0.1735794062
   67      C       4.7406545459     2.9242429273    -0.3026777236
   68      C       5.3717920633     1.6610233285    -0.1002532207
   69      S       4.1128803503     5.0919272060    -0.9302296553
   70      N       5.2557532797     3.8950179960    -1.0144544164
   71      C       6.7747296007     1.3448851251    -0.4778136829
   72      S       8.0405130968     2.4258565619    -1.1885188918
   73      C       7.4995744240     0.2301630846    -0.1190996539
   74      C       9.2938217280     1.2200454086    -1.0556959366
   75      S       7.0079139007    -1.0399882936     0.9934992883
   76      C       8.8543423292     0.1186746638    -0.4158878869
   77      C      10.6304979408     1.4695611632    -1.5971833237
   78      C       8.5739043192    -1.8836794129     0.7233617232
   79      C       9.4085604644    -1.1326931190    -0.0266374139
   80      N      11.5487653044     0.5197648699    -1.5329879169
   81      S      11.1409291490     3.0499322242    -2.1646965756
   82      C      12.6960576732     1.0958855245    -1.8459211553
   83      C      12.6799701397     2.4189425359    -2.2728161492
   84      C      -2.6617634569     3.4325563428     2.3498183052
   85      H      -0.8156645351     2.0609411005     3.8101180683
   86      H       1.3918518021     1.4427220157     3.2189947444
   87      H       0.6583170298     3.0716260832    -0.7567400653
   88      H       2.6949582293    -0.0143841255     0.9769322269
   89      H       8.7711354357    -2.7910818489     1.2777881889
   90      H      10.4323928673    -1.4182244692    -0.2346351516
   91      H      13.5476928466     0.4288052008    -1.8344593409
   92      H      13.5033307791     3.0517394623    -2.5772620516
   93      H      -2.9434084086     2.9417408370     3.2893188430
   94      C      -3.7632577490     3.4286933959     1.2771597378
   95      H      -2.6410331022     4.4920626167     2.6338125093
   96      H      -4.0101544429     2.3996222584     0.9892298566
   97      H      -3.5111062171     3.9898661581     0.3685945305
   98      C      -5.0949544241     3.9420701278     1.9194005779
   99      H      -5.9028409784     3.9723331413     1.1776738995
  100      C      -5.0970405459     5.3759345329     2.5441137249
  101      H      -5.4301615724     3.3158091819     2.7561654167
  102      H      -4.4751645478     5.3638136006     3.4483240576
  103      H      -6.1490863168     5.5511216611     2.8033282424
  104      C      -4.7234072543     6.5268100267     1.4641925420
  105      H      -3.6700305896     6.3668470052     1.2043032693
  106      C      -4.8294555870     7.9362508296     2.0219329604
  107      H      -5.2802449792     6.6133686688     0.5226452253
  108      H      -5.7954703230     8.1440966051     2.4985550993
  109      H      -4.6217980081     8.7233795130     1.2864088169
  110      H      -4.1070689896     8.0987427741     2.8314334063
 ----------------------------------------------------------------

   10   -5663.4827004804      3.46E-06 Convergence criterion met
 Total energy in the final basis set = -5663.4827004804

                    Orbital Energies (a.u.)
 --------------------------------------------------------------

 Alpha MOs
 -- Occupied --
-88.987 -88.985 -88.934 -88.925 -88.924 -88.923 -88.908 -88.900
-14.387 -14.385 -14.378 -14.375 -14.349 -14.348 -14.337 -14.334
-14.332 -14.332 -10.272 -10.271 -10.264 -10.256 -10.255 -10.254
-10.253 -10.248 -10.247 -10.245 -10.243 -10.241 -10.239 -10.237
-10.234 -10.234 -10.232 -10.231 -10.230 -10.230 -10.230 -10.230
-10.229 -10.227 -10.227 -10.222 -10.222 -10.218 -10.217 -10.216
-10.212 -10.207 -10.206 -10.205 -10.199 -10.195 -10.195 -10.193
-10.193 -10.184 -10.183 -10.178 -10.177 -10.177 -10.175 -10.174
-10.172 -10.172 -10.169 -10.163  -8.043  -8.042  -7.996  -7.986
 -7.984  -7.983  -7.968  -7.960  -6.008  -6.007  -6.002  -6.001
 -6.001  -5.999  -5.960  -5.957  -5.954  -5.950  -5.948  -5.947
 -5.946  -5.945  -5.944  -5.943  -5.941  -5.939  -5.933  -5.929
 -5.925  -5.924  -5.921  -5.916  -1.054  -1.047  -0.991  -0.974
 -0.958  -0.950  -0.939  -0.927  -0.919  -0.916  -0.910  -0.902
 -0.844  -0.841  -0.834  -0.831  -0.830  -0.816  -0.811  -0.805
 -0.805  -0.801  -0.797  -0.790  -0.785  -0.778  -0.767  -0.764
 -0.750  -0.745  -0.739  -0.737  -0.725  -0.719  -0.711  -0.709
 -0.692  -0.689  -0.672  -0.671  -0.655  -0.653  -0.646  -0.645
 -0.634  -0.633  -0.623  -0.622  -0.612  -0.609  -0.601  -0.598
 -0.594  -0.589  -0.587  -0.584  -0.581  -0.574  -0.568  -0.557
 -0.548  -0.543  -0.539  -0.538  -0.532  -0.520  -0.519  -0.512
 -0.511  -0.507  -0.501  -0.498  -0.487  -0.485  -0.480  -0.480
 -0.478  -0.474  -0.471  -0.468  -0.464  -0.454  -0.451  -0.449
 -0.446  -0.446  -0.444  -0.443  -0.439  -0.435  -0.432  -0.431
 -0.429  -0.427  -0.422  -0.422  -0.416  -0.415  -0.414  -0.413
 -0.409  -0.407  -0.404  -0.402  -0.401  -0.400  -0.396  -0.395
 -0.392  -0.392  -0.391  -0.388  -0.386  -0.383  -0.380  -0.379
 -0.379  -0.377  -0.375  -0.372  -0.371  -0.367  -0.358  -0.355
 -0.353  -0.348  -0.347  -0.346  -0.346  -0.345  -0.342  -0.340
 -0.339  -0.336  -0.333  -0.331  -0.327  -0.324  -0.323  -0.322
 -0.315  -0.313  -0.313  -0.311  -0.308  -0.305  -0.301  -0.300
 -0.296  -0.295  -0.292  -0.290  -0.290  -0.285  -0.284  -0.273
 -0.268  -0.267  -0.265  -0.260  -0.252  -0.250  -0.248  -0.247
 -0.246  -0.239  -0.235  -0.230  -0.195  -0.191

          Ground-State Mulliken Net Atomic Charges

     Atom                 Charge (a.u.)
  ----------------------------------------
      1 C                     0.256808
      2 C                    -0.107662
      3 N                    -0.482436
      4 C                    -0.075509
      5 C                     0.076423
      6 C                     0.058258
      7 C                     0.002617
      8 C                     0.038108
      9 C                     0.238864
     10 N                    -0.515955
     11 N                    -0.545882
     12 C                     0.198038
     13 C                     0.287574
     14 S                     0.617727
     15 N                    -0.533636
     16 C                    -0.202713
     17 S                     0.311732
     18 C                    -0.114800
     19 C                    -0.195087
     20 S                     0.263979
     21 C                     0.071480
     22 C                     0.077398
     23 C                    -0.321829
     24 C                    -0.032440
     25 N                    -0.437880
     26 S                     0.268610
     27 C                     0.139829
     28 C                    -0.324445
     29 C                    -0.227204
     30 H                     0.087188
     31 H                     0.099634
     32 H                     0.117638
     33 H                     0.122816
     34 H                     0.146088
     35 H                     0.129489
     36 H                     0.124621
     37 H                     0.122470
     38 H                     0.116941
     39 C                    -0.188771
     40 H                     0.120596
     41 H                     0.099677
     42 H                     0.093402
     43 C                    -0.165236
     44 H                     0.092411
     45 C                    -0.179336
     46 H                     0.088837
     47 H                     0.086046
     48 H                     0.084922
     49 C                    -0.166112
     50 H                     0.093275
     51 C                    -0.322148
     52 H                     0.092930
     53 H                     0.103149
     54 H                     0.100019
     55 H                     0.103625
     56 C                     0.290540
     57 C                    -0.121923
     58 N                    -0.492641
     59 C                    -0.058139
     60 C                     0.114169
     61 C                    -0.000443
     62 C                     0.006411
     63 C                     0.062373
     64 C                     0.219927
     65 N                    -0.534269
     66 N                    -0.519286
     67 C                     0.200385
     68 C                     0.295766
     69 S                     0.596637
     70 N                    -0.559765
     71 C                    -0.196518
     72 S                     0.304802
     73 C                    -0.145854
     74 C                    -0.278868
     75 S                     0.263158
     76 C                     0.201703
     77 C                     0.059503
     78 C                    -0.314783
     79 C                    -0.030381
     80 N                    -0.410887
     81 S                     0.301393
     82 C                     0.119016
     83 C                    -0.310618
     84 C                    -0.240166
     85 H                     0.091142
     86 H                     0.105398
     87 H                     0.103657
     88 H                     0.124642
     89 H                     0.132400
     90 H                     0.125382
     91 H                     0.103835
     92 H                     0.140524
     93 H                     0.093076
     94 C                    -0.181221
     95 H                     0.128370
     96 H                     0.108260
     97 H                     0.123412
     98 C                    -0.185431
     99 H                     0.094633
    100 C                    -0.188717
    101 H                     0.090324
    102 H                     0.090436
    103 H                     0.093932
    104 C                    -0.177356
    105 H                     0.101981
    106 C                    -0.318867
    107 H                     0.096722
    108 H                     0.097794
    109 H                     0.095411
    110 H                     0.094882
  ----------------------------------------
  Sum of atomic charges =     0.000000

                    Cartesian Multipole Moments
 -----------------------------------------------------------------
    Charge (ESU x 10^10)
                 0.0000
    Dipole Moment (Debye)
         X       3.0733      Y      -0.5299      Z      -1.3284
       Tot       3.3898
    Quadrupole Moments (Debye-Ang)
        XX    -381.1298     XY      11.1197     YY    -424.0905
        XZ       5.9809     YZ       0.8214     ZZ    -437.2692

 Total job time:  91.48s(wall), 1076.08s(cpu)
        *  Thank you very much for using Q-Chem.  Have a nice day.  *
