 Q-Chem 4.4, Q-Chem, Inc., Pleasanton, CA (2016)
 Q-Chem 4.4.2 for Intel X86 Linux

User input:
--------------------------------------------------------------
$comment
SP
$end

$rem
MEM_STATIC 5000
MEM_TOTAL 20000
JOBTYPE SP
EXCHANGE B3LYP
BASIS 6-31g(d,p)
$end

$molecule
0 1
C          13.413000    -20.486000     -6.767000
C          14.535000    -21.326000     -6.536000
N          13.421000    -19.481000     -7.652000
C          15.676000    -21.023000     -7.227000
C          14.526000    -19.296000     -8.434000
C          15.748000    -20.038000     -8.291000
C          16.993000    -19.629000     -9.030000
C          17.179000    -18.235000     -9.471000
C          18.094000    -20.424000     -9.319000
N          18.317000    -17.735000     -9.928000
N          18.158000    -21.719000     -8.844000
C          19.201000    -19.927000     -9.962000
C          19.375000    -18.547000    -10.226000
S          19.533000    -22.315000     -9.556000
N          20.154000    -20.915000    -10.185000
C          20.629000    -18.033000    -10.760000
S          22.087000    -18.930000    -11.410000
C          20.848000    -16.683000    -11.146000
C          22.927000    -17.475000    -11.765000
S          19.811000    -15.326000    -10.916000
C          22.135000    -16.387000    -11.617000
C          24.279000    -17.440000    -12.298000
C          21.148000    -14.260000    -11.596000
C          22.294000    -14.997000    -11.844000
N          24.660000    -16.525000    -13.122000
S          25.499000    -18.693000    -12.059000
C          25.908000    -16.713000    -13.576000
C          26.577000    -17.787000    -13.050000
C          12.175000    -20.627000     -5.897000
H          14.452000    -22.186000     -5.878000
H          16.617000    -21.426000     -6.864000
H          14.356000    -18.457000     -9.107000
H          16.453000    -17.534000     -9.062000
H          20.925000    -13.213000    -11.751000
H          23.177000    -14.615000    -12.345000
H          26.374000    -15.915000    -14.139000
H          27.580000    -18.072000    -13.339000
H          12.386000    -20.419000     -4.841000
C          11.487000    -22.060000     -5.983000
H          11.384000    -19.894000     -6.100000
H          12.284000    -22.800000     -5.847000
H          11.070000    -22.331000     -6.961000
C          10.353000    -22.233000     -4.860000
H           9.575000    -21.460000     -4.829000
C          11.105000    -22.366000     -3.428000
H           9.856000    -23.204000     -4.977000
H          11.490000    -21.370000     -3.178000
H          11.846000    -23.173000     -3.491000
C          10.080000    -22.811000     -2.378000
H           9.224000    -22.131000     -2.472000
C          10.603000    -23.018000     -0.912000
H           9.650000    -23.756000     -2.732000
H           9.787000    -23.243000     -0.214000
H          10.929000    -22.013000     -0.617000
H          11.404000    -23.767000     -0.875000
C          19.415000    -26.714000    -12.600000
C          18.535000    -27.759000    -12.412000
N          19.729000    -25.812000    -11.636000
C          17.952000    -27.932000    -11.120000
C          19.166000    -25.996000    -10.426000
C          18.316000    -27.080000    -10.040000
C          17.726000    -27.289000     -8.676000
C          16.510000    -28.051000     -8.498000
C          18.202000    -26.790000     -7.424000
N          15.947000    -28.345000     -7.318000
N          19.191000    -25.943000     -7.337000
C          17.597000    -27.076000     -6.193000
C          16.473000    -27.913000     -6.199000
S          19.375000    -25.652000     -5.767000
N          18.203000    -26.596000     -5.167000
C          15.664000    -28.202000     -4.997000
S          16.115000    -27.842000     -3.280000
C          14.451000    -28.910000     -4.934000
C          14.582000    -28.492000     -2.589000
S          13.382000    -29.130000     -6.330000
C          13.913000    -29.028000     -3.650000
C          14.129000    -28.327000     -1.275000
C          12.166000    -29.552000     -5.047000
C          12.604000    -29.452000     -3.765000
N          14.467000    -27.171000     -0.803000
S          13.388000    -29.552000     -0.338000
C          13.947000    -27.110000      0.513000
C          13.310000    -28.304000      0.878000
C          20.041000    -26.471000    -13.968000
H          18.258000    -28.442000    -13.210000
H          17.303000    -28.788000    -10.959000
H          19.335000    -25.211000     -9.690000
H          15.947000    -28.410000     -9.358000
H          11.160000    -29.671000     -5.426000
H          11.912000    -29.604000     -2.945000
H          13.994000    -26.175000      1.055000
H          12.723000    -28.467000      1.773000
H          20.768000    -25.666000    -13.808000
C          19.018000    -26.020000    -15.023000
H          20.557000    -27.395000    -14.256000
H          18.631000    -25.010000    -14.836000
H          18.155000    -26.695000    -14.964000
C          19.477000    -26.187000    -16.496000
H          20.328000    -25.505000    -16.621000
C          18.292000    -26.055000    -17.467000
H          19.976000    -27.140000    -16.707000
H          17.656000    -26.927000    -17.266000
H          18.742000    -26.296000    -18.438000
C          17.515000    -24.650000    -17.448000
H          17.096000    -24.478000    -16.449000
C          16.345000    -24.717000    -18.451000
H          18.290000    -23.923000    -17.720000
H          16.678000    -24.543000    -19.482000
H          15.471000    -24.102000    -18.203000
H          15.868000    -25.705000    -18.432000
$end

--------------------------------------------------------------

             Standard Nuclear Orientation (Angstroms)
    I     Atom           X                Y                Z
 ----------------------------------------------------------------
    1      C      -1.6155964364     4.0311972623    -2.8861215995
    2      C      -1.6207839178     3.2463765527    -1.7021137685
    3      N      -0.4956836375     4.3524695298    -3.5463438749
    4      C      -0.3992378102     2.8715271338    -1.2137655113
    5      C       0.6959865164     3.8396384683    -3.1177408574
    6      C       0.8551856636     3.0645020136    -1.9185260692
    7      C       2.2230372630     2.7270381286    -1.3907693748
    8      C       3.3845910466     3.5702852867    -1.7254931985
    9      C       2.5539245482     1.6959285982    -0.5218195829
   10      N       4.5707466111     3.4842629185    -1.1428027755
   11      N       1.5635745778     0.8992069799     0.0177984292
   12      C       3.8366983340     1.5112945806    -0.0676074145
   13      C       4.8741552428     2.4434339264    -0.3108591407
   14      S       2.4183088298    -0.2618799420     0.8388291949
   15      N       3.9370158956     0.3916755285     0.7512158662
   16      C       6.1791946544     2.3020099313     0.3205990033
   17      S       6.8708892471     0.9148069736     1.2953295017
   18      C       7.2998420610     3.1332029621     0.0509241330
   19      C       8.3703764516     1.7182955972     1.5289834239
   20      S       7.3576597566     4.5721302289    -0.8955764930
   21      C       8.4607984356     2.8436595216     0.7817940889
   22      C       9.4578685302     1.1702476986     2.3228489539
   23      C       9.1100189350     4.7784678662    -0.3730948292
   24      C       9.4727966002     3.8074239056     0.5453032285
   25      N      10.6926709312     1.3746894060     2.0149063963
   26      S       9.2680535425     0.0359523736     3.6618315476
   27      C      11.5486086384     0.7119045359     2.8067718252
   28      C      10.9814610100    -0.0044903225     3.8279647426
   29      C      -2.9094983896     4.6558755343    -3.3811163388
   30      H      -2.5591389162     2.9325346657    -1.2544016212
   31      H      -0.3382558610     2.5501475236    -0.1780747525
   32      H       1.4937610529     4.1810415826    -3.7755779972
   33      H       3.1308772273     4.5134811781    -2.2069169290
   34      H       9.6754039889     5.5847600980    -0.8205270337
   35      H      10.4804902384     3.6550602475     0.9167232699
   36      H      12.6020518884     0.9482007404     2.7336252415
   37      H      11.5467752631    -0.6033958448     4.5297389018
   38      H      -3.3311481849     5.3626114282    -2.6560943898
   39      C      -4.0404566339     3.5950303269    -3.7413522275
   40      H      -2.8014869447     5.3006912912    -4.2624364665
   41      H      -4.1076412580     2.9063318661    -2.8913606650
   42      H      -3.8150675094     2.9234680465    -4.5792172801
   43      C      -5.4524154501     4.3118085046    -4.0051994284
   44      H      -5.4596906543     5.1153569090    -4.7522141761
   45      C      -6.0043492062     4.8378660937    -2.5725621604
   46      H      -6.1991809038     3.5669972514    -4.3070877426
   47      H      -5.3869612814     5.6996392674    -2.2916348614
   48      H      -6.0166277707     3.9969267209    -1.8676017302
   49      C      -7.4651642154     5.2720059579    -2.7419495488
   50      H      -7.4900530567     5.9477555431    -3.6060763010
   51      C      -8.2048580719     5.8048709107    -1.4634966007
   52      H      -8.0138862238     4.4033980928    -3.1262222828
   53      H      -9.2094141342     6.1787386541    -1.6975372556
   54      H      -7.6424524087     6.7110588691    -1.2068855061
   55      H      -8.2136125878     5.0534306995    -0.6639767651
   56      C       1.7564489769    -5.4689022239    -0.2003635160
   57      C       0.5700335050    -6.0251978953    -0.6301570177
   58      N       1.8397348765    -4.2741289172     0.4376617221
   59      C      -0.6460316688    -5.3301237788    -0.3524170930
   60      C       0.6791681353    -3.6373673034     0.6877506789
   61      C      -0.6355533055    -4.1221286658     0.3995390299
   62      C      -1.9203611846    -3.4149200379     0.7179753192
   63      C      -3.1241290664    -3.6781372329    -0.0387568626
   64      C      -2.1545981930    -2.4203632700     1.7175106408
   65      N      -4.3282050767    -3.1467431003     0.2134855555
   66      N      -1.1908454086    -1.8948905176     2.4233136990
   67      C      -3.4086638604    -1.8455976197     1.9627569438
   68      C      -4.4905957243    -2.2901195625     1.1908730896
   69      S      -1.8987840039    -0.8318188283     3.3990895588
   70      N      -3.4427054086    -1.0182439967     2.9449173967
   71      C      -5.8396775399    -1.6912122399     1.2548596031
   72      S      -6.4540740721    -0.5470155089     2.5175633459
   73      C      -6.9400864677    -1.9749296328     0.4270875134
   74      C      -8.0853440502    -0.3705197053     1.7706513766
   75      S      -6.7826501923    -2.6999662219    -1.1821087964
   76      C      -8.0956002700    -1.2492564678     0.7274378259
   77      C      -9.0533224208     0.5824569644     2.1081174354
   78      C      -8.4790162266    -2.0788011201    -1.3804146059
   79      C      -8.9777981573    -1.3818937538    -0.3264199624
   80      N      -8.5087805346     1.7057434087     2.4473307874
   81      S     -10.7295068685     0.2652241798     2.2401933906
   82      C      -9.5732548942     2.5898396428     2.7493989693
   83      C     -10.8208635998     1.9602304257     2.6412566951
   84      C       3.0825663291    -6.1583805928    -0.4976535207
   85      H       0.5277214279    -6.9592602675    -1.1831119642
   86      H      -1.5830162700    -5.7969342079    -0.6422547726
   87      H       0.7585486704    -2.6326367775     1.1009059778
   88      H      -3.1011603101    -4.3251533045    -0.9141382877
   89      H      -8.8602082834    -2.1741306995    -2.3881064670
   90      H      -9.9490776420    -0.9076292224    -0.4042487281
   91      H      -9.3555766991     3.6340586669     2.9294568299
   92      H     -11.7875329814     2.4450976937     2.6924136996
   93      H       3.8344605462    -5.5718535065     0.0434518880
   94      C       3.4326257731    -6.1630700647    -1.9944472255
   95      H       3.0208817810    -7.1710129852    -0.0808242339
   96      H       3.6757966133    -5.1636683668    -2.3777254389
   97      H       2.5442573989    -6.4953884273    -2.5460278067
   98      C       4.5012454386    -7.2066699506    -2.4154582571
   99      H       5.4279044893    -6.9026231714    -1.9116640929
  100      C       4.5308217320    -7.3887402358    -3.9420445318
  101      H       4.3662169317    -8.1966699236    -1.9644611886
  102      H       3.5671180389    -7.8491041119    -4.1962517177
  103      H       5.2417812896    -8.2131392069    -4.0774138189
  104      C       4.8882819200    -6.0817717627    -4.8035377844
  105      H       4.1379386661    -5.3040956214    -4.6155196451
  106      C       4.8335314205    -6.4452985944    -6.3016194328
  107      H       5.8899461982    -5.8066677969    -4.4512247393
  108      H       5.7520953312    -6.9433436305    -6.6367574404
  109      H       4.5502696983    -5.6295121507    -6.9782731663
  110      H       4.0038311274    -7.1329463539    -6.5084333161
 ----------------------------------------------------------------

   10   -5663.4950995187      3.77E-06 Convergence criterion met
 Total energy in the final basis set = -5663.4950995187

                    Orbital Energies (a.u.)
 --------------------------------------------------------------

 Alpha MOs
 -- Occupied --
-88.986 -88.984 -88.939 -88.926 -88.925 -88.915 -88.908 -88.905
-14.384 -14.383 -14.379 -14.377 -14.349 -14.347 -14.347 -14.340
-14.334 -14.323 -10.269 -10.264 -10.261 -10.259 -10.254 -10.250
-10.248 -10.246 -10.243 -10.243 -10.240 -10.239 -10.238 -10.238
-10.237 -10.234 -10.233 -10.230 -10.229 -10.228 -10.228 -10.228
-10.227 -10.226 -10.225 -10.225 -10.224 -10.223 -10.221 -10.220
-10.218 -10.205 -10.203 -10.203 -10.202 -10.197 -10.195 -10.194
-10.187 -10.187 -10.186 -10.183 -10.182 -10.181 -10.181 -10.179
-10.177 -10.175 -10.175 -10.173  -8.042  -8.038  -8.000  -7.987
 -7.983  -7.973  -7.966  -7.964  -6.007  -6.003  -6.002  -6.000
 -5.998  -5.996  -5.964  -5.961  -5.957  -5.951  -5.948  -5.948
 -5.945  -5.944  -5.940  -5.937  -5.934  -5.931  -5.929  -5.929
 -5.928  -5.925  -5.922  -5.921  -1.064  -1.018  -0.985  -0.981
 -0.970  -0.951  -0.938  -0.928  -0.928  -0.911  -0.908  -0.886
 -0.839  -0.834  -0.832  -0.821  -0.821  -0.811  -0.810  -0.805
 -0.803  -0.798  -0.794  -0.791  -0.782  -0.778  -0.766  -0.761
 -0.750  -0.747  -0.743  -0.734  -0.719  -0.713  -0.711  -0.704
 -0.694  -0.687  -0.678  -0.669  -0.656  -0.650  -0.648  -0.638
 -0.637  -0.634  -0.628  -0.617  -0.613  -0.606  -0.606  -0.599
 -0.594  -0.590  -0.587  -0.583  -0.579  -0.577  -0.566  -0.564
 -0.553  -0.551  -0.548  -0.530  -0.529  -0.525  -0.516  -0.509
 -0.507  -0.500  -0.499  -0.494  -0.489  -0.484  -0.480  -0.473
 -0.471  -0.470  -0.468  -0.462  -0.461  -0.458  -0.447  -0.446
 -0.445  -0.441  -0.439  -0.438  -0.437  -0.433  -0.433  -0.431
 -0.429  -0.427  -0.427  -0.417  -0.416  -0.415  -0.413  -0.412
 -0.410  -0.409  -0.403  -0.400  -0.398  -0.396  -0.395  -0.393
 -0.393  -0.391  -0.388  -0.388  -0.387  -0.385  -0.385  -0.383
 -0.378  -0.373  -0.372  -0.368  -0.367  -0.367  -0.359  -0.357
 -0.351  -0.351  -0.349  -0.349  -0.344  -0.342  -0.342  -0.341
 -0.336  -0.332  -0.330  -0.328  -0.326  -0.325  -0.321  -0.318
 -0.317  -0.314  -0.310  -0.307  -0.305  -0.301  -0.299  -0.299
 -0.296  -0.294  -0.291  -0.291  -0.289  -0.287  -0.281  -0.277
 -0.275  -0.269  -0.265  -0.263  -0.258  -0.257  -0.255  -0.245
 -0.242  -0.241  -0.231  -0.228  -0.195  -0.191

          Ground-State Mulliken Net Atomic Charges

     Atom                 Charge (a.u.)
  ----------------------------------------
      1 C                     0.272785
      2 C                    -0.105132
      3 N                    -0.484394
      4 C                    -0.068245
      5 C                     0.050224
      6 C                     0.039364
      7 C                     0.000764
      8 C                     0.070534
      9 C                     0.214641
     10 N                    -0.527806
     11 N                    -0.561612
     12 C                     0.204528
     13 C                     0.319678
     14 S                     0.631331
     15 N                    -0.571653
     16 C                    -0.206356
     17 S                     0.332704
     18 C                    -0.146933
     19 C                    -0.236540
     20 S                     0.276686
     21 C                     0.191977
     22 C                     0.047881
     23 C                    -0.321727
     24 C                    -0.043517
     25 N                    -0.404787
     26 S                     0.265133
     27 C                     0.111133
     28 C                    -0.300578
     29 C                    -0.230574
     30 H                     0.101996
     31 H                     0.111027
     32 H                     0.104588
     33 H                     0.115397
     34 H                     0.131584
     35 H                     0.124794
     36 H                     0.111542
     37 H                     0.137594
     38 H                     0.112738
     39 C                    -0.190108
     40 H                     0.115419
     41 H                     0.095547
     42 H                     0.099221
     43 C                    -0.194120
     44 H                     0.098134
     45 C                    -0.168927
     46 H                     0.093635
     47 H                     0.096350
     48 H                     0.098257
     49 C                    -0.185038
     50 H                     0.087549
     51 C                    -0.320568
     52 H                     0.087142
     53 H                     0.101553
     54 H                     0.103662
     55 H                     0.109043
     56 C                     0.260088
     57 C                    -0.099685
     58 N                    -0.489673
     59 C                    -0.099133
     60 C                     0.078190
     61 C                     0.056796
     62 C                     0.053335
     63 C                     0.044200
     64 C                     0.209523
     65 N                    -0.532752
     66 N                    -0.543706
     67 C                     0.244156
     68 C                     0.337067
     69 S                     0.586389
     70 N                    -0.559855
     71 C                    -0.233629
     72 S                     0.317801
     73 C                    -0.133458
     74 C                    -0.206552
     75 S                     0.273947
     76 C                     0.163788
     77 C                     0.047773
     78 C                    -0.302998
     79 C                    -0.079908
     80 N                    -0.410556
     81 S                     0.296821
     82 C                     0.107780
     83 C                    -0.303527
     84 C                    -0.232788
     85 H                     0.095357
     86 H                     0.099624
     87 H                     0.116709
     88 H                     0.108813
     89 H                     0.120381
     90 H                     0.103566
     91 H                     0.123061
     92 H                     0.129595
     93 H                     0.119778
     94 C                    -0.172619
     95 H                     0.102863
     96 H                     0.110738
     97 H                     0.086553
     98 C                    -0.187870
     99 H                     0.090175
    100 C                    -0.182521
    101 H                     0.085489
    102 H                     0.091116
    103 H                     0.089502
    104 C                    -0.173072
    105 H                     0.104312
    106 C                    -0.322574
    107 H                     0.105099
    108 H                     0.107013
    109 H                     0.099838
    110 H                     0.102121
  ----------------------------------------
  Sum of atomic charges =     0.000000

                    Cartesian Multipole Moments
 -----------------------------------------------------------------
    Charge (ESU x 10^10)
                 0.0000
    Dipole Moment (Debye)
         X      -2.3644      Y      -2.2538      Z       1.3821
       Tot       3.5468
    Quadrupole Moments (Debye-Ang)
        XX    -359.1790     XY     -19.7378     YY    -430.7269
        XZ      17.2705     YZ      13.1665     ZZ    -443.2590

 Total job time:  86.92s(wall), 1007.00s(cpu)
        *  Thank you very much for using Q-Chem.  Have a nice day.  *
