 Q-Chem 4.4, Q-Chem, Inc., Pleasanton, CA (2016)
 Q-Chem 4.4.2 for Intel X86 Linux

User input:
--------------------------------------------------------------
$comment
SP
$end

$rem
MEM_STATIC 5000
MEM_TOTAL 20000
JOBTYPE SP
EXCHANGE B3LYP
BASIS 6-31g(d,p)
$end

$molecule
0 1
C          16.490000    -22.127000     -0.974000
C          16.579000    -21.906000      0.348000
N          16.450000    -23.368000     -1.490000
C          16.753000    -22.950000      1.248000
C          16.684000    -24.391000     -0.657000
C          16.815000    -24.321000      0.758000
C          16.804000    -25.510000      1.621000
C          15.925000    -25.507000      2.744000
C          17.488000    -26.718000      1.399000
N          15.684000    -26.570000      3.460000
N          18.439000    -26.880000      0.391000
C          17.250000    -27.796000      2.215000
C          16.314000    -27.690000      3.227000
S          19.082000    -28.305000      0.716000
N          18.172000    -28.756000      1.981000
C          15.953000    -28.730000      4.251000
S          15.133000    -28.336000      5.714000
C          15.994000    -30.098000      4.114000
C          15.030000    -30.020000      6.246000
S          16.312000    -31.109000      2.695000
C          15.469000    -30.822000      5.220000
C          14.438000    -30.368000      7.465000
C          15.902000    -32.521000      3.730000
C          15.380000    -32.212000      4.979000
N          14.338000    -31.643000      7.883000
S          13.672000    -29.232000      8.479000
C          13.603000    -31.682000      9.080000
C          13.104000    -30.467000      9.492000
C          16.466000    -20.976000     -2.038000
H          16.764000    -20.904000      0.725000
H          17.026000    -22.711000      2.272000
H          16.716000    -25.349000     -1.174000
H          15.338000    -24.629000      3.009000
H          16.041000    -33.476000      3.240000
H          15.108000    -32.973000      5.701000
H          13.472000    -32.602000      9.634000
H          12.648000    -30.278000     10.455000
H          16.780000    -20.058000     -1.525000
C          15.025000    -20.700000     -2.543000
H          17.160000    -21.158000     -2.868000
H          14.649000    -21.449000     -3.252000
H          14.905000    -19.847000     -3.221000
C          13.955000    -20.586000     -1.366000
H          12.976000    -20.311000     -1.777000
C          14.072000    -19.343000     -0.459000
H          13.819000    -21.535000     -0.832000
H          13.909000    -18.485000     -1.122000
H          15.014000    -19.151000      0.070000
C          13.016000    -19.411000      0.616000
H          12.019000    -19.749000      0.304000
C          12.976000    -18.046000      1.315000
H          13.394000    -20.087000      1.392000
H          13.928000    -17.754000      1.775000
H          12.256000    -17.985000      2.141000
H          12.817000    -17.258000      0.569000
C          19.415000    -26.714000    -12.600000
C          18.535000    -27.759000    -12.412000
N          19.729000    -25.812000    -11.636000
C          17.952000    -27.932000    -11.120000
C          19.166000    -25.996000    -10.426000
C          18.316000    -27.080000    -10.040000
C          17.726000    -27.289000     -8.676000
C          16.510000    -28.051000     -8.498000
C          18.202000    -26.790000     -7.424000
N          15.947000    -28.345000     -7.318000
N          19.191000    -25.943000     -7.337000
C          17.597000    -27.076000     -6.193000
C          16.473000    -27.913000     -6.199000
S          19.375000    -25.652000     -5.767000
N          18.203000    -26.596000     -5.167000
C          15.664000    -28.202000     -4.997000
S          16.115000    -27.842000     -3.280000
C          14.451000    -28.910000     -4.934000
C          14.582000    -28.492000     -2.589000
S          13.382000    -29.130000     -6.330000
C          13.913000    -29.028000     -3.650000
C          14.129000    -28.327000     -1.275000
C          12.166000    -29.552000     -5.047000
C          12.604000    -29.452000     -3.765000
N          14.467000    -27.171000     -0.803000
S          13.388000    -29.552000     -0.338000
C          13.947000    -27.110000      0.513000
C          13.310000    -28.304000      0.878000
C          20.041000    -26.471000    -13.968000
H          18.258000    -28.442000    -13.210000
H          17.303000    -28.788000    -10.959000
H          19.335000    -25.211000     -9.690000
H          15.947000    -28.410000     -9.358000
H          11.160000    -29.671000     -5.426000
H          11.912000    -29.604000     -2.945000
H          13.994000    -26.175000      1.055000
H          12.723000    -28.467000      1.773000
H          20.768000    -25.666000    -13.808000
C          19.018000    -26.020000    -15.023000
H          20.557000    -27.395000    -14.256000
H          18.631000    -25.010000    -14.836000
H          18.155000    -26.695000    -14.964000
C          19.477000    -26.187000    -16.496000
H          20.328000    -25.505000    -16.621000
C          18.292000    -26.055000    -17.467000
H          19.976000    -27.140000    -16.707000
H          17.656000    -26.927000    -17.266000
H          18.742000    -26.296000    -18.438000
C          17.515000    -24.650000    -17.448000
H          17.096000    -24.478000    -16.449000
C          16.345000    -24.717000    -18.451000
H          18.290000    -23.923000    -17.720000
H          16.678000    -24.543000    -19.482000
H          15.471000    -24.102000    -18.203000
H          15.868000    -25.705000    -18.432000
$end

--------------------------------------------------------------

             Standard Nuclear Orientation (Angstroms)
    I     Atom           X                Y                Z
 ----------------------------------------------------------------
    1      C      -0.6217799049    -4.9682671017    -0.8180908785
    2      C      -1.8659839029    -5.3542134186    -1.1458832701
    3      N      -0.2988491072    -3.6756194925    -0.6372183865
    4      C      -2.8614109020    -4.4279704816    -1.4312095938
    5      C      -1.2158994925    -2.7574876429    -0.9707247546
    6      C      -2.5649831644    -3.0035071735    -1.3498469472
    7      C      -3.5756147840    -1.9409738190    -1.4407182849
    8      C      -4.8183334583    -2.1479826156    -0.7724543740
    9      C      -3.4136763866    -0.6725117569    -2.0248278230
   10      N      -5.7063864818    -1.2057665380    -0.6165804165
   11      N      -2.2934017261    -0.3185968978    -2.7774485492
   12      C      -4.4009146769     0.2716448584    -1.8887659110
   13      C      -5.5304276651    -0.0264219114    -1.1492845994
   14      S      -2.7025357036     1.0902583955    -3.4078731292
   15      N      -4.1526418370     1.3117747146    -2.7151619899
   16      C      -6.7359241942     0.8449320233    -0.9301557814
   17      S      -8.2457568809     0.2104294244    -0.3955374968
   18      C      -6.7870717318     2.2188471642    -0.8899672878
   19      C      -9.0181597223     1.8000219223    -0.3175724980
   20      S      -5.4907372924     3.4254108116    -0.9129278204
   21      C      -8.0557785128     2.7562201479    -0.5369086804
   22      C     -10.3556705424     1.9462898068     0.0660933881
   23      C      -6.7673080148     4.6601544082    -0.6321352962
   24      C      -8.0302976150     4.1570850116    -0.3497446945
   25      N     -10.9590067239     3.1463923042     0.1441218936
   26      S     -11.3143148290     0.6400401655     0.5953957652
   27      C     -12.2557016242     2.9805827998     0.6595290566
   28      C     -12.5710806251     1.6923169543     1.0281442993
   29      C       0.5738106326    -5.9691611221    -0.6560803027
   30      H      -2.0624728579    -6.3828228958    -1.4352146266
   31      H      -3.7814629805    -4.7807733334    -1.8886593949
   32      H      -0.8402723519    -1.7400025164    -0.8722094332
   33      H      -5.0522296439    -3.0893254543    -0.2776369992
   34      H      -6.3996838706     5.6780759203    -0.6437233881
   35      H      -8.8870773449     4.7977461028    -0.1769128096
   36      H     -12.9471987067     3.8096781486     0.7295982195
   37      H     -13.5607350799     1.3496861491     1.3005671163
   38      H       0.2544436787    -6.9241125367    -1.0926138577
   39      C       0.8638989946    -6.2695329508     0.8383451745
   40      H       1.4745269824    -5.6354338368    -1.1861710083
   41      H       1.3878310183    -5.4601263805     1.3631444108
   42      H       1.6249654275    -7.0323901649     1.0396403700
   43      C      -0.4479572163    -6.6058077386     1.6804719755
   44      H      -0.1723449097    -6.8875354996     2.7040218400
   45      C      -1.1392689596    -7.9466339724     1.3554180039
   46      H      -1.1248387447    -5.7457292749     1.7601553031
   47      H      -0.3993431056    -8.7191901783     1.5961847776
   48      H      -1.4707864314    -8.1447437535     0.3283261480
   49      C      -2.3747474614    -8.0885991250     2.2091297627
   50      H      -2.2846648591    -7.7780350488     3.2584305200
   51      C      -2.8722848104    -9.5330645106     2.0698374942
   52      H      -3.1634231502    -7.4969413656     1.7295802307
   53      H      -3.1207791234    -9.8204183626     1.0408348994
   54      H      -3.7904099392    -9.7482528288     2.6312083481
   55      H      -2.0605023283   -10.2252453142     2.3240734809
   56      C      10.5707282467     1.2813987325    -1.4734596582
   57      C      10.0934046198     2.2334979450    -0.5974241310
   58      N       9.8090072931     0.2832259823    -1.9881715674
   59      C       8.7106879811     2.1976696808    -0.2426100491
   60      C       8.5081198861     0.2703130294    -1.6382427033
   61      C       7.8371367052     1.2370150716    -0.8247190511
   62      C       6.3779407117     1.2269194922    -0.4741165245
   63      C       5.8937475799     1.8785744180     0.7224982292
   64      C       5.3058356594     0.6002200464    -1.1818732352
   65      N       4.6067207534     1.9784088629     1.0822203880
   66      N       5.5053109558    -0.1849409439    -2.2050207443
   67      C       3.9631253130     0.6827390531    -0.7900805102
   68      C       3.6633915903     1.4386467922     0.3512976854
   69      S       4.0448183976    -0.6664456999    -2.6725158324
   70      N       3.1306792007     0.1128569165    -1.5854293773
   71      C       2.3143864190     1.5147004965     0.9489655548
   72      S       0.7648403961     0.9630053239     0.1902630048
   73      C       1.9504869156     2.1281865077     2.1604993205
   74      C      -0.2573764376     1.4161363972     1.6044111496
   75      S       3.1028739399     2.4592760988     3.4652448240
   76      C       0.5908231573     2.0419143465     2.4701694331
   77      C      -1.5924176668     1.0514860038     1.8135164029
   78      C       1.5880049377     2.6299017636     4.4546324068
   79      C       0.4243434097     2.3915279258     3.7955134785
   80      N      -1.8344011770    -0.1319865763     1.3506982607
   81      S      -2.8025980373     2.0926011907     2.4293228972
   82      C      -3.1971923507    -0.3983601303     1.6296648296
   83      C      -3.8274156976     0.6937247050     2.2418733281
   84      C      12.0446231090     1.2607176417    -1.8601833673
   85      H      10.7300216415     2.9956861172    -0.1571856072
   86      H       8.3248958892     2.9813134848     0.4030871324
   87      H       7.9282078175    -0.5916669612    -1.9656178527
   88      H       6.5883613902     2.3098093650     1.4415240111
   89      H       1.7726524728     2.7320047967     5.5154425964
   90      H      -0.5130853188     2.3896551780     4.3391970921
   91      H      -3.5872049412    -1.3912419358     1.4500154498
   92      H      -4.8219855594     0.6997237279     2.6696089960
   93      H      12.1230845124     0.4905564030    -2.6366171858
   94      C      12.9659810508     0.8863443541    -0.6880489105
   95      H      12.2826236946     2.2459736205    -2.2792327408
   96      H      12.8602041391    -0.1623986173    -0.3818015841
   97      H      12.6692418714     1.4904069235     0.1785128424
   98      C      14.4569084955     1.2741803423    -0.8751788140
   99      H      14.8170249912     0.6710560645    -1.7186876848
  100      C      15.2244520625     1.1938791573     0.4548281756
  101      H      14.6128561920     2.2769409438    -1.2897659484
  102      H      14.7995612344     1.9889571266     1.0814060293
  103      H      16.2136210913     1.5886102240     0.1918566611
  104      C      15.2726404436    -0.2489211959     1.1577648874
  105      H      14.2516710493    -0.5770483650     1.3881993833
  106      C      16.0460368646    -0.1271954659     2.4868393107
  107      H      15.7697826140    -0.8822446190     0.4128560982
  108      H      17.1323145474    -0.1427426565     2.3322913220
  109      H      15.7437955136    -0.8247479111     3.2778359933
  110      H      15.8091319906     0.8167786219     2.9936163842
 ----------------------------------------------------------------

   10   -5663.4931399540      3.04E-06 Convergence criterion met
 Total energy in the final basis set = -5663.4931399540

                    Orbital Energies (a.u.)
 --------------------------------------------------------------

 Alpha MOs
 -- Occupied --
-88.995 -88.981 -88.935 -88.922 -88.919 -88.912 -88.908 -88.904
-14.383 -14.381 -14.380 -14.375 -14.346 -14.346 -14.344 -14.340
-14.329 -14.322 -10.262 -10.261 -10.260 -10.255 -10.255 -10.253
-10.249 -10.246 -10.240 -10.237 -10.237 -10.236 -10.234 -10.233
-10.233 -10.231 -10.229 -10.229 -10.228 -10.228 -10.227 -10.225
-10.225 -10.224 -10.223 -10.223 -10.220 -10.219 -10.218 -10.217
-10.214 -10.214 -10.209 -10.200 -10.199 -10.198 -10.192 -10.191
-10.188 -10.187 -10.181 -10.181 -10.180 -10.180 -10.177 -10.176
-10.176 -10.174 -10.173 -10.169  -8.050  -8.038  -7.996  -7.985
 -7.979  -7.970  -7.968  -7.963  -6.015  -6.009  -6.008  -6.003
 -5.997  -5.995  -5.960  -5.957  -5.953  -5.949  -5.945  -5.944
 -5.942  -5.940  -5.936  -5.934  -5.932  -5.931  -5.929  -5.927
 -5.927  -5.924  -5.924  -5.919  -1.059  -1.044  -0.981  -0.978
 -0.967  -0.962  -0.937  -0.934  -0.923  -0.912  -0.905  -0.899
 -0.844  -0.837  -0.831  -0.829  -0.817  -0.812  -0.809  -0.806
 -0.804  -0.804  -0.798  -0.795  -0.786  -0.780  -0.768  -0.763
 -0.748  -0.747  -0.741  -0.740  -0.720  -0.710  -0.709  -0.708
 -0.693  -0.691  -0.680  -0.675  -0.654  -0.653  -0.648  -0.645
 -0.635  -0.634  -0.624  -0.624  -0.613  -0.611  -0.603  -0.596
 -0.593  -0.591  -0.584  -0.583  -0.581  -0.574  -0.564  -0.563
 -0.551  -0.549  -0.546  -0.544  -0.525  -0.524  -0.522  -0.513
 -0.504  -0.504  -0.503  -0.496  -0.485  -0.483  -0.480  -0.478
 -0.475  -0.472  -0.469  -0.465  -0.462  -0.461  -0.450  -0.444
 -0.444  -0.438  -0.436  -0.435  -0.434  -0.433  -0.433  -0.431
 -0.427  -0.426  -0.425  -0.424  -0.423  -0.416  -0.413  -0.412
 -0.410  -0.407  -0.400  -0.399  -0.399  -0.398  -0.396  -0.395
 -0.391  -0.390  -0.389  -0.388  -0.386  -0.385  -0.384  -0.383
 -0.382  -0.373  -0.373  -0.371  -0.365  -0.359  -0.356  -0.355
 -0.355  -0.351  -0.350  -0.349  -0.348  -0.344  -0.340  -0.339
 -0.338  -0.334  -0.332  -0.327  -0.324  -0.322  -0.317  -0.316
 -0.313  -0.311  -0.310  -0.309  -0.306  -0.304  -0.303  -0.298
 -0.297  -0.295  -0.293  -0.288  -0.285  -0.284  -0.282  -0.280
 -0.277  -0.273  -0.270  -0.266  -0.255  -0.253  -0.253  -0.250
 -0.240  -0.237  -0.230  -0.227  -0.193  -0.192

          Ground-State Mulliken Net Atomic Charges

     Atom                 Charge (a.u.)
  ----------------------------------------
      1 C                     0.266678
      2 C                    -0.101938
      3 N                    -0.472167
      4 C                    -0.099152
      5 C                     0.083941
      6 C                     0.017131
      7 C                     0.026026
      8 C                     0.044162
      9 C                     0.190239
     10 N                    -0.493561
     11 N                    -0.529303
     12 C                     0.253574
     13 C                     0.292611
     14 S                     0.637676
     15 N                    -0.557511
     16 C                    -0.226491
     17 S                     0.306121
     18 C                    -0.119096
     19 C                    -0.230052
     20 S                     0.259631
     21 C                     0.154807
     22 C                     0.065067
     23 C                    -0.302786
     24 C                    -0.055228
     25 N                    -0.457971
     26 S                     0.276672
     27 C                     0.108058
     28 C                    -0.301927
     29 C                    -0.207622
     30 H                     0.088543
     31 H                     0.102056
     32 H                     0.138958
     33 H                     0.111187
     34 H                     0.128925
     35 H                     0.133894
     36 H                     0.113176
     37 H                     0.134108
     38 H                     0.093895
     39 C                    -0.185843
     40 H                     0.114698
     41 H                     0.108627
     42 H                     0.087866
     43 C                    -0.191236
     44 H                     0.091054
     45 C                    -0.160173
     46 H                     0.103251
     47 H                     0.088860
     48 H                     0.081882
     49 C                    -0.173198
     50 H                     0.094726
     51 C                    -0.321956
     52 H                     0.097074
     53 H                     0.097095
     54 H                     0.093983
     55 H                     0.099494
     56 C                     0.258741
     57 C                    -0.100065
     58 N                    -0.481946
     59 C                    -0.099359
     60 C                     0.077223
     61 C                     0.052168
     62 C                     0.055504
     63 C                     0.042930
     64 C                     0.205232
     65 N                    -0.533107
     66 N                    -0.538381
     67 C                     0.245631
     68 C                     0.336073
     69 S                     0.587743
     70 N                    -0.558263
     71 C                    -0.233595
     72 S                     0.320168
     73 C                    -0.134457
     74 C                    -0.210581
     75 S                     0.273649
     76 C                     0.164083
     77 C                     0.049163
     78 C                    -0.303350
     79 C                    -0.079301
     80 N                    -0.418602
     81 S                     0.300593
     82 C                     0.103184
     83 C                    -0.305280
     84 C                    -0.232241
     85 H                     0.093308
     86 H                     0.098266
     87 H                     0.120883
     88 H                     0.107237
     89 H                     0.119564
     90 H                     0.103781
     91 H                     0.125621
     92 H                     0.137372
     93 H                     0.119076
     94 C                    -0.172371
     95 H                     0.102147
     96 H                     0.109819
     97 H                     0.086450
     98 C                    -0.187777
     99 H                     0.089383
    100 C                    -0.182511
    101 H                     0.085689
    102 H                     0.091412
    103 H                     0.089219
    104 C                    -0.172557
    105 H                     0.104103
    106 C                    -0.322537
    107 H                     0.104146
    108 H                     0.106827
    109 H                     0.098934
    110 H                     0.102423
  ----------------------------------------
  Sum of atomic charges =     0.000000

                    Cartesian Multipole Moments
 -----------------------------------------------------------------
    Charge (ESU x 10^10)
                 0.0000
    Dipole Moment (Debye)
         X      -1.9735      Y       0.5514      Z       1.7617
       Tot       2.7023
    Quadrupole Moments (Debye-Ang)
        XX    -402.0335     XY      16.4251     YY    -426.0511
        XZ      -1.5177     YZ       7.4680     ZZ    -437.9547

 Total job time:  93.61s(wall), 1112.31s(cpu)
        *  Thank you very much for using Q-Chem.  Have a nice day.  *
