 Q-Chem 4.4, Q-Chem, Inc., Pleasanton, CA (2016)
 Q-Chem 4.4.2 for Intel X86 Linux

User input:
--------------------------------------------------------------
$comment
SP
$end

$rem
MEM_STATIC 5000
MEM_TOTAL 20000
JOBTYPE SP
EXCHANGE B3LYP
BASIS 6-31g(d,p)
$end

$molecule
0 1
C          21.908000    -21.346000    -16.379000
C          21.630000    -22.679000    -16.033000
N          22.717000    -20.558000    -15.603000
C          22.195000    -23.205000    -14.871000
C          23.166000    -21.070000    -14.397000
C          22.976000    -22.435000    -13.965000
C          23.535000    -22.951000    -12.597000
C          22.637000    -23.716000    -11.823000
C          24.870000    -22.817000    -12.124000
N          22.948000    -24.243000    -10.673000
N          25.886000    -22.261000    -12.862000
C          25.202000    -23.400000    -10.924000
C          24.207000    -24.154000    -10.225000
S          27.173000    -22.424000    -11.824000
N          26.518000    -23.312000    -10.650000
C          24.580000    -24.774000     -8.913000
S          26.058000    -24.360000     -7.921000
C          23.764000    -25.593000     -8.195000
C          25.550000    -25.417000     -6.611000
S          22.199000    -26.328000     -8.537000
C          24.284000    -25.856000     -6.868000
C          26.284000    -25.566000     -5.400000
C          22.282000    -27.007000     -6.879000
C          23.385000    -26.660000     -6.088000
N          27.039000    -24.530000     -5.070000
S          26.278000    -26.850000     -4.268000
C          27.851000    -24.793000     -3.913000
C          27.632000    -26.039000     -3.432000
C          21.512000    -20.754000    -17.770000
H          21.135000    -23.376000    -16.704000
H          22.041000    -24.230000    -14.546000
H          23.847000    -20.466000    -13.800000
H          21.602000    -23.846000    -12.138000
H          21.464000    -27.662000     -6.609000
H          23.530000    -26.926000     -5.047000
H          28.597000    -24.059000     -3.636000
H          28.263000    -26.561000     -2.725000
H          22.273000    -19.997000    -17.995000
C          20.137000    -20.000000    -17.671000
H          21.494000    -21.476000    -18.594000
H          20.005000    -19.361000    -18.553000
H          20.202000    -19.277000    -16.848000
C          18.915000    -20.938000    -17.506000
H          18.946000    -21.675000    -18.317000
C          17.658000    -20.104000    -17.588000
H          18.974000    -21.603000    -16.635000
H          17.768000    -19.580000    -18.546000
H          17.651000    -19.402000    -16.745000
C          16.342000    -20.960000    -17.709000
H          15.563000    -20.509000    -18.336000
C          15.813000    -21.158000    -16.339000
H          16.572000    -21.948000    -18.126000
H          14.832000    -21.647000    -16.304000
H          15.808000    -20.255000    -15.715000
H          16.572000    -21.727000    -15.787000
C          19.415000    -26.714000    -12.600000
C          18.535000    -27.759000    -12.412000
N          19.729000    -25.812000    -11.636000
C          17.952000    -27.932000    -11.120000
C          19.166000    -25.996000    -10.426000
C          18.316000    -27.080000    -10.040000
C          17.726000    -27.289000     -8.676000
C          16.510000    -28.051000     -8.498000
C          18.202000    -26.790000     -7.424000
N          15.947000    -28.345000     -7.318000
N          19.191000    -25.943000     -7.337000
C          17.597000    -27.076000     -6.193000
C          16.473000    -27.913000     -6.199000
S          19.375000    -25.652000     -5.767000
N          18.203000    -26.596000     -5.167000
C          15.664000    -28.202000     -4.997000
S          16.115000    -27.842000     -3.280000
C          14.451000    -28.910000     -4.934000
C          14.582000    -28.492000     -2.589000
S          13.382000    -29.130000     -6.330000
C          13.913000    -29.028000     -3.650000
C          14.129000    -28.327000     -1.275000
C          12.166000    -29.552000     -5.047000
C          12.604000    -29.452000     -3.765000
N          14.467000    -27.171000     -0.803000
S          13.388000    -29.552000     -0.338000
C          13.947000    -27.110000      0.513000
C          13.310000    -28.304000      0.878000
C          20.041000    -26.471000    -13.968000
H          18.258000    -28.442000    -13.210000
H          17.303000    -28.788000    -10.959000
H          19.335000    -25.211000     -9.690000
H          15.947000    -28.410000     -9.358000
H          11.160000    -29.671000     -5.426000
H          11.912000    -29.604000     -2.945000
H          13.994000    -26.175000      1.055000
H          12.723000    -28.467000      1.773000
H          20.768000    -25.666000    -13.808000
C          19.018000    -26.020000    -15.023000
H          20.557000    -27.395000    -14.256000
H          18.631000    -25.010000    -14.836000
H          18.155000    -26.695000    -14.964000
C          19.477000    -26.187000    -16.496000
H          20.328000    -25.505000    -16.621000
C          18.292000    -26.055000    -17.467000
H          19.976000    -27.140000    -16.707000
H          17.656000    -26.927000    -17.266000
H          18.742000    -26.296000    -18.438000
C          17.515000    -24.650000    -17.448000
H          17.096000    -24.478000    -16.449000
C          16.345000    -24.717000    -18.451000
H          18.290000    -23.923000    -17.720000
H          16.678000    -24.543000    -19.482000
H          15.471000    -24.102000    -18.203000
H          15.868000    -25.705000    -18.432000
$end

--------------------------------------------------------------

             Standard Nuclear Orientation (Angstroms)
    I     Atom           X                Y                Z
 ----------------------------------------------------------------
    1      C      -8.2216378438    -1.4539297494     1.1364147936
    2      C      -7.3062936444    -1.6052287439     0.0813590553
    3      N      -8.2268155301    -0.3337367089     1.9255546694
    4      C      -6.3848240905    -0.5865083924    -0.1620494628
    5      C      -7.2259978959     0.6045157361     1.7352196680
    6      C      -6.2644742651     0.5695968589     0.6580929441
    7      C      -5.1750319978     1.6810054363     0.4906190052
    8      C      -3.8674488681     1.2168933665     0.2346280962
    9      C      -5.3971400152     3.0859188435     0.4623993859
   10      N      -2.8490689099     2.0064972039     0.0438978136
   11      N      -6.6438874266     3.6597899605     0.5106573727
   12      C      -4.3248439804     3.9146813588     0.2312135150
   13      C      -3.0425237007     3.3303667681    -0.0165225530
   14      S      -6.2668586698     5.2740305884     0.3990396694
   15      N      -4.6848045777     5.2063276314     0.1017752094
   16      C      -1.8810620023     4.2462073992    -0.2555113845
   17      S      -1.8445539129     6.0371697774     0.1065175084
   18      C      -0.6330100918     3.8248707188    -0.5975389135
   19      C      -0.1470560861     6.1541443579    -0.3364622606
   20      S       0.0250820795     2.2478716760    -1.0292827184
   21      C       0.3414144947     4.8959598871    -0.5361979090
   22      C       0.5983879712     7.3646007012    -0.2553044003
   23      C       1.6151738348     3.0692002301    -1.1472726171
   24      C       1.6694013830     4.4317448459    -0.8259775147
   25      N       0.1535199566     8.2394557545     0.6329197186
   26      S       2.0269361535     7.8268824745    -1.0772908069
   27      C       0.8659109547     9.4869440958     0.5743201948
   28      C       1.8339244330     9.4559870306    -0.3711054057
   29      C      -9.4275917118    -2.4288448534     1.3297456193
   30      H      -7.3814553147    -2.3947909880    -0.6616195352
   31      H      -5.6575601861    -0.6224046415    -0.9681292805
   32      H      -7.2536693856     1.5177438968     2.3270258990
   33      H      -3.6426731683     0.1507680489     0.2488650895
   34      H       2.4325338213     2.4428724563    -1.4799664288
   35      H       2.5669778029     5.0375947512    -0.7733993561
   36      H       0.4978162057    10.3128521992     1.1696210100
   37      H       2.3522237736    10.3177527044    -0.7701288598
   38      H     -10.2234601457    -1.8259712399     1.7835427569
   39      C      -9.0613321268    -3.5514479189     2.3663546458
   40      H      -9.8186515697    -2.8725848173     0.4073839593
   41      H      -9.9776363567    -4.0509428215     2.7048223701
   42      H      -8.6911661006    -3.0667925630     3.2786973989
   43      C      -8.0518279246    -4.5977082983     1.8310103788
   44      H      -8.4469364639    -4.9929977346     0.8878844573
   45      C      -7.9146420139    -5.6979158969     2.8571937279
   46      H      -7.1039535167    -4.1689926052     1.4816052252
   47      H      -8.9503872444    -6.0266028964     3.0109359595
   48      H      -7.4897744573    -5.2682332048     3.7728150161
   49      C      -7.1324910179    -6.9577889540     2.3278614133
   50      H      -7.4956408799    -7.9156310316     2.7203301791
   51      C      -5.7084390611    -6.7854991315     2.6997985605
   52      H      -7.1902252428    -7.0049701052     1.2336156921
   53      H      -5.0800352384    -7.6575609757     2.4822582756
   54      H      -5.5419961083    -6.4470185216     3.7305932152
   55      H      -5.3530118321    -5.8869583078     2.1793738560
   56      C      -1.9993911134    -2.1427716658    -2.0448516902
   57      C      -1.0729287205    -2.8830270595    -2.7487397398
   58      N      -1.6867158088    -1.3629724510    -0.9791860116
   59      C       0.2999803147    -2.7938011191    -2.3663243735
   60      C      -0.3853369589    -1.2955237718    -0.6374422997
   61      C       0.7063571549    -1.9178036533    -1.3211993553
   62      C       2.1552730731    -1.8025814595    -0.9475103028
   63      C       3.1050166567    -2.8281131066    -1.3179910259
   64      C       2.7923637546    -0.7653863003    -0.1982288701
   65      N       4.4241952934    -2.7806685561    -1.0870760216
   66      N       2.1227043463     0.1903395499     0.3859315325
   67      C       4.1679650940    -0.7303343842     0.0657300630
   68      C       4.9568863853    -1.7659489434    -0.4530055932
   69      S       3.2237597231     1.1101440815     1.1105512127
   70      N       4.5721808171     0.3132924065     0.6964160157
   71      C       6.3952546701    -1.9241861700    -0.1549055137
   72      S       7.4786696306    -0.6963835386     0.6195638024
   73      C       7.2283757251    -2.9986192417    -0.5128229372
   74      C       8.9396131873    -1.7521447382     0.5866667900
   75      S       6.6136145733    -4.6107093057    -0.9168171844
   76      C       8.5546320572    -2.8706935037    -0.0924622028
   77      C      10.1456927666    -1.5203147544     1.2579766344
   78      C       8.3403670606    -5.0956122575    -0.6235187444
   79      C       9.1720387683    -4.0987377361    -0.2236045545
   80      N       9.9458824248    -0.9386946660     2.3960266772
   81      S      11.6990440860    -1.7935652685     0.5945696439
   82      C      11.2218108449    -0.7703410071     2.9873309242
   83      C      12.2494873217    -1.2210389907     2.1474604661
   84      C      -3.4797967264    -2.2264274154    -2.3966327823
   85      H      -1.3491895034    -3.5401928994    -3.5683951789
   86      H       1.0345457062    -3.3336775018    -2.9569216788
   87      H      -0.1541707877    -0.7572757703     0.2808894977
   88      H       2.7725285397    -3.7490096981    -1.7942799296
   89      H       8.4961462430    -6.1659227827    -0.6260138947
   90      H      10.1945415491    -4.3275176489     0.0530103668
   91      H      11.2867232375    -0.4232214411     4.0098241458
   92      H      13.2939021592    -1.3225805483     2.4140124487
   93      H      -3.9635048842    -1.4688166866    -1.7687741981
   94      C      -4.0925372784    -3.6013033778    -2.0848313971
   95      H      -3.5759944967    -1.9576785195    -3.4556398738
   96      H      -4.1665812925    -3.7998259613    -1.0078243090
   97      H      -3.4220385781    -4.3680663626    -2.4927296907
   98      C      -5.4310462898    -3.9031680627    -2.8097936985
   99      H      -6.1534686435    -3.1778063532    -2.4136796578
  100      C      -5.7837623259    -5.3976498694    -2.7285193034
  101      H      -5.4456408604    -3.6144827386    -3.8672334283
  102      H      -5.0155887113    -5.9080190303    -3.3240976924
  103      H      -6.6773256948    -5.4738989298    -3.3603045411
  104      C      -5.9850035741    -5.9977533984    -1.2528863157
  105      H      -5.0547775197    -5.8846438593    -0.6827707837
  106      C      -6.2934940926    -7.5046974624    -1.3684336565
  107      H      -6.8137875865    -5.4063834682    -0.8447972733
  108      H      -7.3475507379    -7.6902892391    -1.6106035985
  109      H      -5.9609576171    -8.1235526809    -0.5257933353
  110      H      -5.6967365487    -7.9674456009    -2.1645357819
 ----------------------------------------------------------------

    9   -5663.4893461742      8.90E-06 Convergence criterion met
 Total energy in the final basis set = -5663.4893461742

                    Orbital Energies (a.u.)
 --------------------------------------------------------------

 Alpha MOs
 -- Occupied --
-88.985 -88.984 -88.938 -88.927 -88.914 -88.913 -88.909 -88.907
-14.384 -14.383 -14.381 -14.377 -14.349 -14.346 -14.341 -14.336
-14.336 -14.329 -10.263 -10.263 -10.260 -10.259 -10.253 -10.250
-10.249 -10.248 -10.244 -10.239 -10.238 -10.237 -10.234 -10.233
-10.233 -10.231 -10.231 -10.230 -10.230 -10.230 -10.228 -10.228
-10.228 -10.226 -10.225 -10.225 -10.225 -10.221 -10.220 -10.219
-10.216 -10.207 -10.206 -10.205 -10.203 -10.202 -10.196 -10.195
-10.191 -10.188 -10.186 -10.186 -10.186 -10.184 -10.179 -10.177
-10.174 -10.174 -10.172 -10.164  -8.041  -8.041  -8.000  -7.988
 -7.972  -7.971  -7.968  -7.966  -6.006  -6.006  -6.000  -6.000
 -5.999  -5.998  -5.964  -5.960  -5.957  -5.952  -5.948  -5.944
 -5.937  -5.936  -5.933  -5.932  -5.932  -5.930  -5.929  -5.929
 -5.928  -5.927  -5.924  -5.922  -1.063  -1.035  -0.980  -0.970
 -0.962  -0.958  -0.940  -0.927  -0.917  -0.907  -0.901  -0.895
 -0.834  -0.833  -0.831  -0.821  -0.820  -0.811  -0.810  -0.806
 -0.804  -0.799  -0.795  -0.790  -0.786  -0.776  -0.767  -0.763
 -0.751  -0.748  -0.745  -0.738  -0.716  -0.713  -0.711  -0.706
 -0.695  -0.692  -0.678  -0.673  -0.658  -0.649  -0.642  -0.638
 -0.636  -0.628  -0.628  -0.618  -0.616  -0.607  -0.607  -0.600
 -0.595  -0.589  -0.588  -0.577  -0.576  -0.572  -0.571  -0.567
 -0.553  -0.548  -0.540  -0.537  -0.529  -0.525  -0.515  -0.511
 -0.508  -0.500  -0.497  -0.491  -0.489  -0.485  -0.477  -0.473
 -0.472  -0.470  -0.468  -0.467  -0.466  -0.457  -0.451  -0.447
 -0.445  -0.443  -0.441  -0.437  -0.436  -0.432  -0.430  -0.428
 -0.427  -0.426  -0.420  -0.419  -0.417  -0.416  -0.413  -0.413
 -0.409  -0.407  -0.405  -0.401  -0.399  -0.396  -0.394  -0.394
 -0.392  -0.391  -0.390  -0.389  -0.387  -0.385  -0.383  -0.382
 -0.377  -0.376  -0.373  -0.371  -0.365  -0.362  -0.359  -0.358
 -0.356  -0.354  -0.352  -0.348  -0.345  -0.343  -0.341  -0.339
 -0.338  -0.333  -0.330  -0.329  -0.328  -0.323  -0.323  -0.320
 -0.316  -0.313  -0.309  -0.307  -0.303  -0.303  -0.300  -0.298
 -0.297  -0.296  -0.295  -0.291  -0.288  -0.280  -0.277  -0.275
 -0.270  -0.270  -0.269  -0.260  -0.260  -0.256  -0.255  -0.247
 -0.241  -0.237  -0.230  -0.227  -0.195  -0.192

          Ground-State Mulliken Net Atomic Charges

     Atom                 Charge (a.u.)
  ----------------------------------------
      1 C                     0.266370
      2 C                    -0.116493
      3 N                    -0.482267
      4 C                    -0.087304
      5 C                     0.070299
      6 C                     0.045727
      7 C                    -0.011172
      8 C                     0.064001
      9 C                     0.222160
     10 N                    -0.507293
     11 N                    -0.546598
     12 C                     0.214383
     13 C                     0.299028
     14 S                     0.606417
     15 N                    -0.543346
     16 C                    -0.240806
     17 S                     0.347691
     18 C                    -0.094711
     19 C                    -0.198612
     20 S                     0.321667
     21 C                     0.105135
     22 C                     0.049964
     23 C                    -0.322206
     24 C                    -0.074703
     25 N                    -0.433499
     26 S                     0.260974
     27 C                     0.121291
     28 C                    -0.307232
     29 C                    -0.233548
     30 H                     0.096334
     31 H                     0.091081
     32 H                     0.111015
     33 H                     0.136196
     34 H                     0.122594
     35 H                     0.116387
     36 H                     0.125129
     37 H                     0.133328
     38 H                     0.120678
     39 C                    -0.185170
     40 H                     0.098540
     41 H                     0.091389
     42 H                     0.110249
     43 C                    -0.179044
     44 H                     0.088177
     45 C                    -0.173610
     46 H                     0.098974
     47 H                     0.089182
     48 H                     0.097348
     49 C                    -0.186065
     50 H                     0.088438
     51 C                    -0.311910
     52 H                     0.107335
     53 H                     0.091651
     54 H                     0.100264
     55 H                     0.099870
     56 C                     0.270229
     57 C                    -0.102381
     58 N                    -0.489597
     59 C                    -0.097258
     60 C                     0.088407
     61 C                     0.045378
     62 C                     0.056238
     63 C                     0.043467
     64 C                     0.203564
     65 N                    -0.533547
     66 N                    -0.546616
     67 C                     0.241634
     68 C                     0.336006
     69 S                     0.597051
     70 N                    -0.559186
     71 C                    -0.233940
     72 S                     0.318212
     73 C                    -0.132964
     74 C                    -0.205135
     75 S                     0.273657
     76 C                     0.163354
     77 C                     0.048542
     78 C                    -0.303420
     79 C                    -0.078706
     80 N                    -0.409111
     81 S                     0.295489
     82 C                     0.108299
     83 C                    -0.303267
     84 C                    -0.248964
     85 H                     0.095514
     86 H                     0.099947
     87 H                     0.133913
     88 H                     0.107880
     89 H                     0.120082
     90 H                     0.103415
     91 H                     0.122817
     92 H                     0.129126
     93 H                     0.124741
     94 C                    -0.173268
     95 H                     0.106307
     96 H                     0.111164
     97 H                     0.090073
     98 C                    -0.196220
     99 H                     0.092262
    100 C                    -0.187318
    101 H                     0.088967
    102 H                     0.093836
    103 H                     0.090740
    104 C                    -0.180850
    105 H                     0.109324
    106 C                    -0.324416
    107 H                     0.108621
    108 H                     0.107666
    109 H                     0.106432
    110 H                     0.100136
  ----------------------------------------
  Sum of atomic charges =     0.000000

                    Cartesian Multipole Moments
 -----------------------------------------------------------------
    Charge (ESU x 10^10)
                 0.0000
    Dipole Moment (Debye)
         X       5.2874      Y      -1.9590      Z      -2.5327
       Tot       6.1814
    Quadrupole Moments (Debye-Ang)
        XX    -398.4019     XY      10.8464     YY    -404.2022
        XZ      21.5837     YZ       6.7220     ZZ    -444.5335

 Total job time:  87.04s(wall), 1050.56s(cpu)
        *  Thank you very much for using Q-Chem.  Have a nice day.  *
