 Q-Chem 4.4, Q-Chem, Inc., Pleasanton, CA (2016)
 Q-Chem 4.4.2 for Intel X86 Linux

User input:
--------------------------------------------------------------
$comment
SP
$end

$rem
MEM_STATIC 5000
MEM_TOTAL 20000
JOBTYPE SP
EXCHANGE B3LYP
BASIS 6-31g(d,p)
$end

$molecule
0 1
C          15.735000    -25.005000    -11.389000
C          16.081000    -24.130000    -10.345000
N          15.000000    -26.137000    -11.161000
C          15.477000    -24.256000     -9.058000
C          14.419000    -26.257000     -9.939000
C          14.592000    -25.350000     -8.876000
C          13.787000    -25.529000     -7.614000
C          12.540000    -26.143000     -7.647000
C          14.233000    -25.148000     -6.320000
N          11.851000    -26.448000     -6.552000
N          15.482000    -24.784000     -5.979000
C          13.471000    -25.390000     -5.160000
C          12.238000    -25.993000     -5.304000
S          15.490000    -24.511000     -4.354000
N          14.075000    -25.087000     -4.011000
C          11.306000    -26.312000     -4.210000
S          11.653000    -26.041000     -2.513000
C          10.104000    -27.004000     -4.399000
C          10.151000    -26.786000     -2.027000
S           9.274000    -27.475000     -5.814000
C           9.492000    -27.238000     -3.163000
C           9.706000    -27.087000     -0.649000
C           7.892000    -27.844000     -4.779000
C           8.198000    -27.738000     -3.409000
N           8.672000    -27.871000     -0.493000
S          10.474000    -26.428000      0.791000
C           8.512000    -28.163000      0.876000
C           9.415000    -27.563000      1.706000
C          16.178000    -24.944000    -12.826000
H          16.724000    -23.260000    -10.441000
H          15.849000    -23.646000     -8.241000
H          13.881000    -27.175000     -9.708000
H          12.103000    -26.529000     -8.567000
H           6.986000    -28.224000     -5.232000
H           7.426000    -27.894000     -2.664000
H           7.796000    -28.921000      1.164000
H           9.604000    -27.690000      2.763000
H          17.274000    -24.910000    -12.787000
C          15.530000    -23.699000    -13.581000
H          15.928000    -25.816000    -13.442000
H          15.814000    -23.694000    -14.640000
H          15.842000    -22.738000    -13.154000
C          13.917000    -23.667000    -13.537000
H          13.686000    -23.592000    -12.468000
C          13.230000    -24.918000    -14.101000
H          13.553000    -22.724000    -13.963000
H          12.137000    -24.879000    -14.007000
H          13.652000    -25.799000    -13.601000
C          13.639000    -25.059000    -15.595000
H          13.486000    -24.101000    -16.107000
C          12.742000    -26.101000    -16.303000
H          14.659000    -25.451000    -15.685000
H          12.864000    -27.127000    -15.934000
H          12.987000    -26.067000    -17.372000
H          11.676000    -25.844000    -16.332000
C          19.415000    -26.714000    -12.600000
C          18.535000    -27.759000    -12.412000
N          19.729000    -25.812000    -11.636000
C          17.952000    -27.932000    -11.120000
C          19.166000    -25.996000    -10.426000
C          18.316000    -27.080000    -10.040000
C          17.726000    -27.289000     -8.676000
C          16.510000    -28.051000     -8.498000
C          18.202000    -26.790000     -7.424000
N          15.947000    -28.345000     -7.318000
N          19.191000    -25.943000     -7.337000
C          17.597000    -27.076000     -6.193000
C          16.473000    -27.913000     -6.199000
S          19.375000    -25.652000     -5.767000
N          18.203000    -26.596000     -5.167000
C          15.664000    -28.202000     -4.997000
S          16.115000    -27.842000     -3.280000
C          14.451000    -28.910000     -4.934000
C          14.582000    -28.492000     -2.589000
S          13.382000    -29.130000     -6.330000
C          13.913000    -29.028000     -3.650000
C          14.129000    -28.327000     -1.275000
C          12.166000    -29.552000     -5.047000
C          12.604000    -29.452000     -3.765000
N          14.467000    -27.171000     -0.803000
S          13.388000    -29.552000     -0.338000
C          13.947000    -27.110000      0.513000
C          13.310000    -28.304000      0.878000
C          20.041000    -26.471000    -13.968000
H          18.258000    -28.442000    -13.210000
H          17.303000    -28.788000    -10.959000
H          19.335000    -25.211000     -9.690000
H          15.947000    -28.410000     -9.358000
H          11.160000    -29.671000     -5.426000
H          11.912000    -29.604000     -2.945000
H          13.994000    -26.175000      1.055000
H          12.723000    -28.467000      1.773000
H          20.768000    -25.666000    -13.808000
C          19.018000    -26.020000    -15.023000
H          20.557000    -27.395000    -14.256000
H          18.631000    -25.010000    -14.836000
H          18.155000    -26.695000    -14.964000
C          19.477000    -26.187000    -16.496000
H          20.328000    -25.505000    -16.621000
C          18.292000    -26.055000    -17.467000
H          19.976000    -27.140000    -16.707000
H          17.656000    -26.927000    -17.266000
H          18.742000    -26.296000    -18.438000
C          17.515000    -24.650000    -17.448000
H          17.096000    -24.478000    -16.449000
C          16.345000    -24.717000    -18.451000
H          18.290000    -23.923000    -17.720000
H          16.678000    -24.543000    -19.482000
H          15.471000    -24.102000    -18.203000
H          15.868000    -25.705000    -18.432000
$end

--------------------------------------------------------------

             Standard Nuclear Orientation (Angstroms)
    I     Atom           X                Y                Z
 ----------------------------------------------------------------
    1      C      -4.6913372987     0.7065474551    -0.9597143237
    2      C      -4.0065893484     0.0560183879    -2.0004876791
    3      N      -4.0328094701     1.1906741771     0.1382817673
    4      C      -2.5814608791     0.0919772362    -2.0696021289
    5      C      -2.6765903597     1.2316547647     0.0732024615
    6      C      -1.9095422634     0.7348100335    -0.9979322317
    7      C      -0.4189166874     0.9599420962    -1.0057390639
    8      C       0.1374315247     2.0606271580    -0.3638176812
    9      C       0.5203248022     0.0763969626    -1.6021335818
   10      N       1.4477210867     2.2342006393    -0.2231602594
   11      N       0.2765723358    -1.1690543989    -2.0473454879
   12      C       1.9100661224     0.2967516119    -1.5323418106
   13      C       2.3587934306     1.4292151173    -0.8836475745
   14      S       1.7064137111    -1.7912360315    -2.5799444530
   15      N       2.6653576407    -0.6812448553    -2.0322254296
   16      C       3.7677843902     1.8243839487    -0.7230017823
   17      S       5.1268199909     0.8634268638    -1.2736765656
   18      C       4.1756437204     2.9383745832     0.0200087378
   19      C       6.2735670767     1.9820592940    -0.5802375942
   20      S       3.2936812347     4.2130977871     0.7342838439
   21      C       5.5727792637     2.9922550478     0.0658908608
   22      C       7.7413882074     1.8214012298    -0.4953841044
   23      C       4.8370586814     5.0389856957     0.9649464095
   24      C       5.9394378704     4.2296577107     0.6309998024
   25      N       8.4067367477     2.6379575803     0.2783697624
   26      S       8.6448677426     0.6100481819    -1.3976332511
   27      C       9.7506164650     2.2207533139     0.3487466448
   28      C      10.0558681454     1.1204418836    -0.3998822137
   29      C      -6.1785270087     0.8712324766    -0.7982070176
   30      H      -4.4723839507    -0.4187021404    -2.8591149606
   31      H      -2.0759378692    -0.5163053341    -2.8128462349
   32      H      -2.1241575323     1.5530012773     0.9547257965
   33      H      -0.4662115836     2.7884882436     0.1767359589
   34      H       4.8437898691     6.0131006472     1.4355840115
   35      H       6.9456564208     4.6298134477     0.6833888757
   36      H      10.4040312993     2.6966214337     1.0676086531
   37      H      10.9542247608     0.5208570830    -0.4504040759
   38      H      -6.5884452753    -0.1443327831    -0.8651937168
   39      C      -6.7738474188     1.8700509585    -1.8881195139
   40      H      -6.5148741457     1.2659171315     0.1679371883
   41      H      -7.8472329893     2.0267949068    -1.7286304806
   42      H      -6.6458148539     1.5006914523    -2.9129976615
   43      C      -6.0901449798     3.3319943366    -1.8868808373
   44      H      -5.0400870675     3.1298051012    -2.1282206265
   45      C      -6.1513056671     4.0730872517    -0.5444551740
   46      H      -6.4600047844     3.9151179856    -2.7391669013
   47      H      -5.6323169480     5.0400139875    -0.5710896816
   48      H      -5.7463616884     3.4132104550     0.2332517035
   49      C      -7.6484536066     4.2736280793    -0.1736055767
   50      H      -8.1830390559     4.6987318449    -1.0319890492
   51      C      -7.7844890112     5.2818271649     0.9911544726
   52      H      -8.0856038899     3.3410686643     0.2024217724
   53      H      -7.3574638212     4.9353594755     1.9405388138
   54      H      -8.8552662997     5.4807368682     1.1246195561
   55      H      -7.4178696817     6.2914579279     0.7687089970
   56      C      -7.0299212622    -2.3353862023     0.8311700023
   57      C      -6.3613660818    -1.6952020568     1.8534063891
   58      N      -6.4084615838    -2.9228168518    -0.2224946029
   59      C      -4.9336446125    -1.6845421537     1.8293279219
   60      C      -5.0614772604    -2.8991941273    -0.2229409194
   61      C      -4.2203615564    -2.3677098687     0.8049699986
   62      C      -2.7196716737    -2.3820929657     0.8049219034
   63      C      -1.9643055984    -1.4056682445     1.5579164959
   64      C      -1.8468425388    -3.2662667308     0.0981779227
   65      N      -0.6292446870    -1.3798760550     1.6708418058
   66      N      -2.2828778371    -4.1316380281    -0.7759529236
   67      C      -0.4498461444    -3.2213771706     0.1959940835
   68      C       0.1123811321    -2.2633993042     1.0504880256
   69      S      -0.9760506506    -4.8917255058    -1.3217612515
   70      N       0.1688011005    -4.1373728078    -0.4586352613
   71      C       1.5655367170    -2.0206442918     1.1610088377
   72      S       2.8885516892    -3.0768722724     0.5167233137
   73      C       2.2081286189    -0.9970385421     1.8792768354
   74      C       4.2201588251    -2.0021334855     1.0840230368
   75      S       1.4046701270     0.5109391259     2.3487816861
   76      C       3.6029068311    -1.0196129165     1.8011222680
   77      C       5.5687427151    -2.0895471664     0.7197287326
   78      C       3.1131417489     1.0827630026     2.5874680310
   79      C       4.0836448889     0.1866758740     2.2704199066
   80      N       5.7000564427    -2.4833352774    -0.5054453891
   81      S       6.8843053512    -1.8867514097     1.7948305099
   82      C       7.0917797704    -2.5193052936    -0.7658092440
   83      C       7.8435080676    -2.1841560714     0.3687433400
   84      C      -8.5534087832    -2.3494086863     0.7974336238
   85      H      -6.8777666069    -1.1877308432     2.6632369054
   86      H      -4.4085426460    -1.2286545238     2.6637692881
   87      H      -4.5719107313    -3.2745156524    -1.1206827345
   88      H      -2.4667359251    -0.5836969916     2.0652398902
   89      H       3.1909074180     2.1421563967     2.7911249414
   90      H       5.1250412033     0.4844741984     2.3047400833
   91      H       7.4340142229    -2.6935780290    -1.7770968358
   92      H       8.9121109280    -2.0129107762     0.3991731891
   93      H      -8.8122485703    -3.0073298969    -0.0405971903
   94      C      -9.1596105056    -0.9588755194     0.5486526288
   95      H      -8.8935445020    -2.7893487037     1.7428099901
   96      H      -8.9746504609    -0.5897906570    -0.4684039803
   97      H      -8.6658826052    -0.2511787655     1.2263495116
   98      C     -10.6542467320    -0.8146305044     0.9405134796
   99      H     -11.2038601797    -1.4847881609     0.2668935767
  100      C     -11.0751348877     0.6632635960     0.9968356628
  101      H     -10.9138382987    -1.2718131522     1.9024527943
  102      H     -10.5168368505     1.0901293322     1.8402631611
  103      H     -12.1015258732     0.6119514875     1.3806463094
  104      C     -10.9401802916     1.4899201249    -0.3730333968
  105      H      -9.8913511095     1.4958147434    -0.6940763850
  106      C     -11.3685078779     2.9492541572    -0.1155889157
  107      H     -11.5985341502     0.9510461178    -1.0653649657
  108      H     -12.4596439914     3.0649245016    -0.1285640157
  109      H     -10.8779033889     3.7055768470    -0.7407994597
  110      H     -11.0227904477     3.2919726606     0.8678018947
 ----------------------------------------------------------------

   10   -5663.4911926752      4.01E-06 Convergence criterion met
 Total energy in the final basis set = -5663.4911926752

                    Orbital Energies (a.u.)
 --------------------------------------------------------------

 Alpha MOs
 -- Occupied --
-88.986 -88.980 -88.935 -88.926 -88.925 -88.911 -88.911 -88.900
-14.378 -14.377 -14.373 -14.371 -14.344 -14.343 -14.343 -14.343
-14.332 -14.328 -10.275 -10.259 -10.255 -10.253 -10.249 -10.247
-10.245 -10.244 -10.240 -10.238 -10.236 -10.236 -10.235 -10.235
-10.234 -10.233 -10.232 -10.231 -10.229 -10.225 -10.225 -10.223
-10.223 -10.223 -10.222 -10.219 -10.219 -10.217 -10.214 -10.211
-10.211 -10.211 -10.204 -10.202 -10.197 -10.196 -10.193 -10.187
-10.186 -10.185 -10.183 -10.180 -10.180 -10.179 -10.176 -10.174
-10.174 -10.172 -10.168 -10.166  -8.041  -8.037  -7.996  -7.986
 -7.984  -7.970  -7.969  -7.958  -6.006  -6.002  -6.001  -5.999
 -5.996  -5.994  -5.960  -5.957  -5.953  -5.950  -5.948  -5.947
 -5.944  -5.943  -5.941  -5.934  -5.933  -5.931  -5.929  -5.927
 -5.925  -5.923  -5.920  -5.915  -1.057  -1.045  -0.977  -0.966
 -0.964  -0.951  -0.933  -0.931  -0.921  -0.913  -0.903  -0.902
 -0.846  -0.828  -0.826  -0.824  -0.817  -0.811  -0.805  -0.803
 -0.800  -0.796  -0.793  -0.790  -0.779  -0.778  -0.763  -0.761
 -0.746  -0.746  -0.739  -0.734  -0.722  -0.709  -0.706  -0.706
 -0.690  -0.690  -0.674  -0.673  -0.651  -0.648  -0.645  -0.643
 -0.633  -0.630  -0.623  -0.621  -0.610  -0.608  -0.603  -0.595
 -0.594  -0.591  -0.583  -0.581  -0.575  -0.570  -0.563  -0.548
 -0.548  -0.546  -0.542  -0.538  -0.523  -0.521  -0.520  -0.512
 -0.503  -0.501  -0.498  -0.494  -0.489  -0.483  -0.480  -0.473
 -0.470  -0.469  -0.466  -0.465  -0.463  -0.460  -0.449  -0.444
 -0.441  -0.441  -0.437  -0.435  -0.434  -0.433  -0.431  -0.428
 -0.425  -0.423  -0.422  -0.416  -0.414  -0.412  -0.411  -0.409
 -0.408  -0.406  -0.403  -0.400  -0.399  -0.397  -0.393  -0.393
 -0.390  -0.389  -0.387  -0.384  -0.383  -0.383  -0.381  -0.380
 -0.377  -0.376  -0.370  -0.369  -0.364  -0.358  -0.356  -0.353
 -0.352  -0.350  -0.349  -0.348  -0.345  -0.344  -0.339  -0.337
 -0.336  -0.334  -0.333  -0.332  -0.325  -0.320  -0.317  -0.315
 -0.312  -0.308  -0.305  -0.302  -0.300  -0.299  -0.298  -0.296
 -0.294  -0.291  -0.290  -0.289  -0.286  -0.286  -0.284  -0.275
 -0.271  -0.267  -0.263  -0.261  -0.257  -0.256  -0.252  -0.252
 -0.243  -0.233  -0.229  -0.220  -0.192  -0.188

          Ground-State Mulliken Net Atomic Charges

     Atom                 Charge (a.u.)
  ----------------------------------------
      1 C                     0.282876
      2 C                    -0.122051
      3 N                    -0.487856
      4 C                    -0.082000
      5 C                     0.053038
      6 C                     0.055400
      7 C                     0.057076
      8 C                     0.049091
      9 C                     0.221439
     10 N                    -0.515263
     11 N                    -0.588531
     12 C                     0.207955
     13 C                     0.308991
     14 S                     0.631196
     15 N                    -0.542436
     16 C                    -0.227152
     17 S                     0.347365
     18 C                    -0.106247
     19 C                    -0.241978
     20 S                     0.282948
     21 C                     0.156518
     22 C                     0.086215
     23 C                    -0.314786
     24 C                    -0.068731
     25 N                    -0.445297
     26 S                     0.243585
     27 C                     0.127782
     28 C                    -0.315243
     29 C                    -0.236729
     30 H                     0.097591
     31 H                     0.126673
     32 H                     0.109207
     33 H                     0.111829
     34 H                     0.124484
     35 H                     0.119664
     36 H                     0.117560
     37 H                     0.130858
     38 H                     0.123448
     39 C                    -0.210131
     40 H                     0.120646
     41 H                     0.104167
     42 H                     0.092165
     43 C                    -0.188640
     44 H                     0.090753
     45 C                    -0.169935
     46 H                     0.086883
     47 H                     0.088198
     48 H                     0.117401
     49 C                    -0.175875
     50 H                     0.092015
     51 C                    -0.328349
     52 H                     0.101482
     53 H                     0.102669
     54 H                     0.092661
     55 H                     0.098594
     56 C                     0.251349
     57 C                    -0.097183
     58 N                    -0.485877
     59 C                    -0.083620
     60 C                     0.072635
     61 C                     0.055647
     62 C                     0.060096
     63 C                     0.043559
     64 C                     0.208576
     65 N                    -0.538270
     66 N                    -0.541113
     67 C                     0.278173
     68 C                     0.340623
     69 S                     0.573903
     70 N                    -0.582849
     71 C                    -0.252790
     72 S                     0.303168
     73 C                    -0.134242
     74 C                    -0.201619
     75 S                     0.277129
     76 C                     0.164023
     77 C                     0.055683
     78 C                    -0.301398
     79 C                    -0.086004
     80 N                    -0.410666
     81 S                     0.295604
     82 C                     0.105519
     83 C                    -0.290252
     84 C                    -0.231571
     85 H                     0.093739
     86 H                     0.099066
     87 H                     0.117574
     88 H                     0.113592
     89 H                     0.132011
     90 H                     0.110054
     91 H                     0.119378
     92 H                     0.123994
     93 H                     0.118017
     94 C                    -0.176629
     95 H                     0.102350
     96 H                     0.112065
     97 H                     0.089175
     98 C                    -0.188944
     99 H                     0.088995
    100 C                    -0.183205
    101 H                     0.086304
    102 H                     0.091946
    103 H                     0.089793
    104 C                    -0.184419
    105 H                     0.112037
    106 C                    -0.325802
    107 H                     0.103582
    108 H                     0.105224
    109 H                     0.102612
    110 H                     0.106063
  ----------------------------------------
  Sum of atomic charges =     0.000000

                    Cartesian Multipole Moments
 -----------------------------------------------------------------
    Charge (ESU x 10^10)
                 0.0000
    Dipole Moment (Debye)
         X       3.5687      Y       0.4822      Z      -0.3605
       Tot       3.6191
    Quadrupole Moments (Debye-Ang)
        XX    -385.8203     XY      -8.9135     YY    -450.4827
        XZ      -2.8648     YZ       7.9143     ZZ    -439.0601

 Total job time:  126.31s(wall), 1512.46s(cpu)
        *  Thank you very much for using Q-Chem.  Have a nice day.  *
