 Q-Chem 4.4, Q-Chem, Inc., Pleasanton, CA (2016)
 Q-Chem 4.4.2 for Intel X86 Linux

User input:
--------------------------------------------------------------
$comment
SP
$end

$rem
MEM_STATIC 5000
MEM_TOTAL 20000
JOBTYPE SP
EXCHANGE B3LYP
BASIS 6-31g(d,p)
$end

$molecule
0 1
C         -16.949000     14.677000      3.511000
C         -16.949000     13.945000      2.338000
N         -16.133000     15.742000      3.637000
C         -16.104000     14.237000      1.252000
C         -15.303000     16.048000      2.667000
C         -15.221000     15.319000      1.453000
C         -14.208000     15.718000      0.450000
C         -12.944000     16.149000      0.946000
C         -14.323000     15.755000     -0.993000
N         -11.931000     16.447000      0.145000
N         -15.432000     15.397000     -1.660000
C         -13.222000     16.047000     -1.770000
C         -11.982000     16.394000     -1.207000
S         -15.069000     15.651000     -3.212000
N         -13.480000     16.016000     -3.145000
C         -10.842000     16.794000     -1.960000
S         -10.691000     16.972000     -3.681000
C          -9.644000     17.040000     -1.388000
C          -9.013000     17.537000     -3.565000
S          -9.096000     16.658000      0.252000
C          -8.603000     17.387000     -2.270000
C          -8.225000     17.978000     -4.724000
C          -7.462000     17.118000     -0.276000
C          -7.325000     17.471000     -1.573000
N          -6.893000     18.045000     -4.550000
S          -8.925000     18.638000     -6.247000
C          -6.410000     18.752000     -5.623000
C          -7.340000     19.010000     -6.620000
C         -17.789000     14.355000      4.648000
H         -17.552000     13.042000      2.363000
H         -16.049000     13.608000      0.368000
H         -14.782000     17.004000      2.706000
H         -12.707000     16.047000      2.004000
H          -6.607000     17.051000      0.384000
H          -6.420000     17.890000     -1.999000
H          -5.356000     18.993000     -5.581000
H          -7.206000     19.578000     -7.531000
H         -17.449000     14.958000      5.499000
C         -17.796000     12.847000      5.010000
H         -18.766000     14.832000      4.503000
H         -16.967000     12.515000      5.647000
H         -17.791000     12.169000      4.148000
C         -19.066000     12.383000      5.700000
H         -19.859000     12.638000      4.987000
C         -19.346000     13.168000      7.029000
H         -19.010000     11.321000      5.971000
H         -19.360000     14.241000      6.800000
H         -18.434000     13.139000      7.639000
C         -20.542000     12.741000      7.949000
H         -21.463000     12.659000      7.357000
C         -20.676000     13.742000      9.151000
H         -20.363000     11.725000      8.321000
H         -20.022000     13.518000     10.002000
H         -21.745000     13.761000      9.396000
H         -20.363000     14.751000      8.856000
C         -13.921000     24.626000     15.686000
C         -14.875000     24.638000     14.700000
N         -12.656000     24.180000     15.511000
C         -14.491000     24.155000     13.403000
C         -12.254000     23.714000     14.316000
C         -13.165000     23.682000     13.219000
C         -12.646000     23.358000     11.837000
C         -13.190000     22.410000     11.003000
C         -11.567000     24.094000     11.232000
N         -12.813000     22.115000      9.760000
N         -10.876000     25.096000     11.770000
C         -11.174000     23.817000      9.958000
C         -11.752000     22.729000      9.225000
S          -9.717000     25.554000     10.751000
N         -10.076000     24.568000      9.538000
C         -11.295000     22.082000      7.960000
S         -11.687000     20.365000      7.671000
C         -10.501000     22.470000      6.890000
C         -10.804000     20.240000      6.124000
S          -9.694000     23.983000      6.637000
C         -10.221000     21.477000      5.957000
C         -10.558000     19.053000      5.398000
C          -8.786000     23.172000      5.322000
C          -9.137000     21.921000      5.139000
N         -11.193000     18.011000      5.823000
S          -9.839000     19.025000      3.799000
C         -10.909000     16.951000      4.973000
C         -10.125000     17.237000      3.908000
C         -14.258000     24.898000     17.179000
H         -15.843000     25.108000     14.848000
H         -15.127000     24.241000     12.527000
H         -11.211000     23.424000     14.201000
H         -14.029000     21.784000     11.303000
H          -7.960000     23.685000      4.848000
H          -8.577000     21.316000      4.435000
H         -11.366000     15.990000      5.163000
H          -9.759000     16.568000      3.140000
H         -15.091000     24.260000     17.499000
C         -14.504000     26.358000     17.480000
H         -13.436000     24.559000     17.822000
H         -15.231000     26.732000     16.749000
H         -13.529000     26.764000     17.182000
C         -14.855000     26.709000     18.928000
H         -15.885000     26.429000     19.180000
C         -14.711000     28.253000     19.086000
H         -14.132000     26.310000     19.649000
H         -15.429000     28.725000     18.405000
H         -13.673000     28.569000     18.924000
C         -15.092000     28.689000     20.486000
H         -15.258000     29.770000     20.393000
C         -14.040000     28.482000     21.623000
H         -16.060000     28.315000     20.841000
H         -13.081000     28.812000     21.205000
H         -13.891000     27.422000     21.864000
H         -14.352000     29.110000     22.466000
$end

--------------------------------------------------------------

             Standard Nuclear Orientation (Angstroms)
    I     Atom           X                Y                Z
 ----------------------------------------------------------------
    1      C      -3.2709687013    -6.0911063458     0.2506997554
    2      C      -4.6393154764    -6.2892445028     0.2396827779
    3      N      -2.7744926010    -4.8479319122     0.4055732827
    4      C      -5.5671824774    -5.2382093183     0.3540194268
    5      C      -3.5913085875    -3.8237685000     0.4912292755
    6      C      -5.0036252422    -3.9481033296     0.4480608041
    7      C      -5.8282550956    -2.7196566323     0.4958448689
    8      C      -5.3316410122    -1.5817812242    -0.2027873719
    9      C      -7.0836941648    -2.4936987174     1.1811614119
   10      N      -6.0212664307    -0.4546047051    -0.3050804658
   11      N      -7.7167905813    -3.4329215867     1.9022601078
   12      C      -7.7640765294    -1.3066332460     1.0104294449
   13      C      -7.2424873329    -0.2510991335     0.2431156581
   14      S      -9.0244207766    -2.6841924373     2.4806172060
   15      N      -8.9737713924    -1.2460980013     1.7112317156
   16      C      -7.8578340869     1.0257774352     0.1106634006
   17      S      -9.3267690058     1.5988829707     0.8387473581
   18      C      -7.3684872773     1.9866392183    -0.7018563430
   19      C      -9.1534320189     3.2153986990     0.1279758133
   20      S      -6.1371689288     1.8512127638    -1.9672980842
   21      C      -8.1114896220     3.1812381342    -0.7556610450
   22      C     -10.0741003521     4.3258462047     0.4072286690
   23      C      -6.5787688004     3.5018027847    -2.4580955336
   24      C      -7.5912975633     4.0822322606    -1.7773061919
   25      N     -10.0326889970     5.3649113075    -0.4457764962
   26      S     -11.0617458062     4.4852198723     1.9053226217
   27      C     -10.7261502499     6.3796253625     0.1657248345
   28      C     -11.3991414810     6.0137867412     1.3227546119
   29      C      -2.3115482067    -7.1665099011     0.0923567484
   30      H      -4.9524964816    -7.3010803646    -0.0006271193
   31      H      -6.6385926768    -5.3909379126     0.2598060456
   32      H      -3.1888685705    -2.8570172200     0.7917820917
   33      H      -4.4607514923    -1.6735199246    -0.8501454296
   34      H      -6.1129758651     3.9917615051    -3.3031348189
   35      H      -7.8819570345     5.1214864806    -1.8846828098
   36      H     -10.6952182550     7.3333634742    -0.3443612621
   37      H     -11.9725353944     6.6416559672     1.9917095095
   38      H      -1.3234763549    -6.7158111467    -0.0625453125
   39      C      -2.6570100996    -8.1447060019    -1.0604422232
   40      H      -2.1241874101    -7.6113832180     1.0772763714
   41      H      -2.3263453109    -7.8282827747    -2.0573229276
   42      H      -3.7251862477    -8.3699544351    -1.1653986898
   43      C      -2.1121265091    -9.5479056285    -0.8644098772
   44      H      -2.5484238545    -9.8668418106     0.0896170292
   45      C      -0.5513685489    -9.5673182771    -0.7078093057
   46      H      -2.3476675998   -10.1927386627    -1.7206410099
   47      H      -0.2780874738    -8.8918417681     0.1125655719
   48      H      -0.1193558606    -9.0002730924    -1.5423809296
   49      C       0.2066504109   -10.9377190846    -0.6268532466
   50      H      -0.2575734730   -11.5815994815     0.1316605766
   51      C       1.7344313520   -10.6891400156    -0.3644511838
   52      H       0.0681647907   -11.4801199978    -1.5698823990
   53      H       2.3222182431   -10.4877108878    -1.2677926902
   54      H       2.0757636860   -11.5578088071     0.2117898842
   55      H       1.8854706328    -9.7844577058     0.2370569658
   56      C      11.6483652293    -0.2808703882     0.0592756605
   57      C      10.8787103669    -0.8142703166     1.0620577451
   58      N      11.1590124541     0.4711786939    -0.9530098918
   59      C       9.4691074208    -0.5405111860     1.0299723486
   60      C       9.8457847514     0.7483283660    -1.0265358080
   61      C       8.9532231691     0.2446411757    -0.0345746010
   62      C       7.5239395678     0.7353265290    -0.0093303738
   63      C       6.4200076400    -0.0829784545     0.0343417311
   64      C       7.1957820965     2.1351092947     0.0605472544
   65      N       5.1425394705     0.2864741876     0.1103865926
   66      N       8.0444265971     3.1599234230     0.0826269757
   67      C       5.8969841294     2.5340201803     0.1513654577
   68      C       4.8245398497     1.5853068679     0.0811990990
   69      S       7.2160185148     4.5401900388     0.0858079315
   70      N       5.7380737461     3.9199125182     0.1439547994
   71      C       3.3628826958     1.8114663135    -0.1190339393
   72      S       2.3868029737     0.5419224394    -0.9069430253
   73      C       2.4972843916     2.8768860954     0.0846821969
   74      C       0.8597634923     1.4674889706    -0.9070788878
   75      S       2.8559995556     4.4572184997     0.6997431069
   76      C       1.1967563925     2.6918061976    -0.3728222894
   77      C      -0.3388761672     1.0982626783    -1.5578445228
   78      C       1.2286928794     4.9460057056     0.1302081660
   79      C       0.5490823523     3.9646358258    -0.4145245120
   80      N      -0.3542465570    -0.1025866760    -2.0346448787
   81      S      -1.8515773720     1.9648681865    -1.3700255726
   82      C      -1.6110343793    -0.3413764429    -2.5733654157
   83      C      -2.5163167746     0.6544396084    -2.4337546116
   84      C      13.1338281588    -0.6837707852    -0.1590661704
   85      H      11.3227564663    -1.3158635508     1.9170754578
   86      H       8.7959732091    -0.8051690571     1.8399813264
   87      H       9.5028271049     1.4087953997    -1.8211032061
   88      H       6.4996947661    -1.1688046920     0.0136452573
   89      H       0.9454678011     5.9897106962     0.1543835167
   90      H      -0.4057666210     4.1818408794    -0.8796335344
   91      H      -1.8187696192    -1.3079361354    -3.0104906047
   92      H      -3.5356414811     0.6958205655    -2.7951487996
   93      H      13.2253508667    -1.7761565793    -0.1996847732
   94      C      14.0752386352    -0.0654005634     0.8479500081
   95      H      13.4674823141    -0.3781771396    -1.1587368304
   96      H      13.6685730784    -0.2584633898     1.8480079414
   97      H      13.8852086080     0.9944571976     0.6361597460
   98      C      15.5571726677    -0.4229232437     0.7095482154
   99      H      15.7680210034    -1.4410162848     1.0585948297
  100      C      16.3666419172     0.5774770176     1.5890906256
  101      H      15.9442880772    -0.2458422270    -0.3006769938
  102      H      16.0469422105     0.4396805215     2.6287411549
  103      H      16.2509852082     1.6049621213     1.2224274459
  104      C      17.8467558706     0.2570933092     1.5458013141
  105      H      18.2609495049     0.7916583307     2.4103531466
  106      C      18.6538341305     0.7196443406     0.2900174052
  107      H      18.1009437965    -0.7898288046     1.7513921356
  108      H      18.3250448934     1.7461412399     0.0862853426
  109      H      18.3824873266     0.1543261363    -0.6103537627
  110      H      19.7159301879     0.6805140038     0.5598280452
 ----------------------------------------------------------------

   10   -5663.5158499771      3.86E-06 Convergence criterion met
 Total energy in the final basis set = -5663.5158499771

                    Orbital Energies (a.u.)
 --------------------------------------------------------------

 Alpha MOs
 -- Occupied --
-88.992 -88.990 -88.936 -88.923 -88.922 -88.911 -88.911 -88.900
-14.393 -14.385 -14.380 -14.370 -14.352 -14.346 -14.340 -14.335
-14.324 -14.324 -10.277 -10.265 -10.261 -10.259 -10.259 -10.254
-10.253 -10.251 -10.243 -10.238 -10.238 -10.234 -10.233 -10.231
-10.229 -10.229 -10.227 -10.227 -10.225 -10.225 -10.225 -10.225
-10.223 -10.223 -10.223 -10.221 -10.218 -10.216 -10.216 -10.216
-10.213 -10.213 -10.210 -10.203 -10.201 -10.195 -10.195 -10.191
-10.186 -10.185 -10.182 -10.179 -10.177 -10.175 -10.174 -10.174
-10.174 -10.174 -10.172 -10.172  -8.047  -8.046  -7.997  -7.982
 -7.982  -7.970  -7.969  -7.961  -6.012  -6.011  -6.007  -6.005
 -6.005  -6.004  -5.961  -5.958  -5.954  -5.947  -5.946  -5.943
 -5.943  -5.939  -5.939  -5.934  -5.933  -5.931  -5.929  -5.926
 -5.926  -5.925  -5.922  -5.917  -1.043  -1.042  -0.971  -0.971
 -0.961  -0.961  -0.946  -0.932  -0.916  -0.911  -0.904  -0.894
 -0.844  -0.841  -0.832  -0.827  -0.826  -0.814  -0.811  -0.808
 -0.805  -0.798  -0.796  -0.793  -0.784  -0.784  -0.767  -0.765
 -0.748  -0.747  -0.742  -0.737  -0.726  -0.717  -0.714  -0.706
 -0.693  -0.690  -0.674  -0.673  -0.659  -0.650  -0.647  -0.639
 -0.639  -0.633  -0.629  -0.628  -0.612  -0.609  -0.598  -0.597
 -0.592  -0.589  -0.589  -0.579  -0.575  -0.570  -0.563  -0.560
 -0.556  -0.544  -0.541  -0.535  -0.527  -0.521  -0.517  -0.513
 -0.508  -0.505  -0.500  -0.499  -0.494  -0.485  -0.478  -0.474
 -0.474  -0.471  -0.467  -0.467  -0.467  -0.461  -0.449  -0.447
 -0.443  -0.441  -0.438  -0.436  -0.435  -0.433  -0.432  -0.429
 -0.428  -0.427  -0.426  -0.421  -0.421  -0.417  -0.415  -0.414
 -0.412  -0.409  -0.405  -0.403  -0.403  -0.398  -0.396  -0.395
 -0.395  -0.391  -0.391  -0.389  -0.387  -0.386  -0.385  -0.381
 -0.378  -0.373  -0.373  -0.372  -0.367  -0.362  -0.360  -0.358
 -0.355  -0.354  -0.350  -0.349  -0.342  -0.342  -0.340  -0.339
 -0.338  -0.336  -0.335  -0.327  -0.324  -0.324  -0.320  -0.318
 -0.318  -0.316  -0.310  -0.309  -0.301  -0.300  -0.300  -0.297
 -0.297  -0.297  -0.296  -0.292  -0.287  -0.286  -0.280  -0.278
 -0.271  -0.269  -0.264  -0.264  -0.252  -0.251  -0.249  -0.246
 -0.241  -0.240  -0.235  -0.231  -0.196  -0.193

          Ground-State Mulliken Net Atomic Charges

     Atom                 Charge (a.u.)
  ----------------------------------------
      1 C                     0.277189
      2 C                    -0.110980
      3 N                    -0.484394
      4 C                    -0.055731
      5 C                     0.078049
      6 C                     0.022877
      7 C                     0.001893
      8 C                     0.065941
      9 C                     0.235983
     10 N                    -0.548157
     11 N                    -0.541621
     12 C                     0.160773
     13 C                     0.328272
     14 S                     0.611480
     15 N                    -0.552041
     16 C                    -0.192199
     17 S                     0.312445
     18 C                    -0.130640
     19 C                    -0.259007
     20 S                     0.280458
     21 C                     0.164455
     22 C                     0.047620
     23 C                    -0.317853
     24 C                    -0.034016
     25 N                    -0.417911
     26 S                     0.300359
     27 C                     0.115797
     28 C                    -0.304885
     29 C                    -0.241323
     30 H                     0.082119
     31 H                     0.113493
     32 H                     0.112819
     33 H                     0.120347
     34 H                     0.120803
     35 H                     0.123948
     36 H                     0.113038
     37 H                     0.133660
     38 H                     0.133739
     39 C                    -0.190249
     40 H                     0.122675
     41 H                     0.106142
     42 H                     0.097210
     43 C                    -0.183215
     44 H                     0.091241
     45 C                    -0.179777
     46 H                     0.088152
     47 H                     0.092472
     48 H                     0.086391
     49 C                    -0.181068
     50 H                     0.093849
     51 C                    -0.322724
     52 H                     0.095207
     53 H                     0.109072
     54 H                     0.103571
     55 H                     0.106275
     56 C                     0.267347
     57 C                    -0.111966
     58 N                    -0.483069
     59 C                    -0.070758
     60 C                     0.108379
     61 C                     0.015009
     62 C                     0.021851
     63 C                     0.041644
     64 C                     0.260139
     65 N                    -0.496694
     66 N                    -0.558837
     67 C                     0.173249
     68 C                     0.290981
     69 S                     0.617905
     70 N                    -0.541238
     71 C                    -0.239507
     72 S                     0.339248
     73 C                    -0.114205
     74 C                    -0.212328
     75 S                     0.267140
     76 C                     0.118651
     77 C                     0.077410
     78 C                    -0.301973
     79 C                    -0.059765
     80 N                    -0.430891
     81 S                     0.263049
     82 C                     0.123247
     83 C                    -0.304001
     84 C                    -0.224944
     85 H                     0.095758
     86 H                     0.105928
     87 H                     0.112790
     88 H                     0.110508
     89 H                     0.122577
     90 H                     0.113513
     91 H                     0.116940
     92 H                     0.141497
     93 H                     0.095111
     94 C                    -0.174793
     95 H                     0.114900
     96 H                     0.086142
     97 H                     0.106197
     98 C                    -0.171100
     99 H                     0.093189
    100 C                    -0.168884
    101 H                     0.096474
    102 H                     0.090457
    103 H                     0.093866
    104 C                    -0.184860
    105 H                     0.085071
    106 C                    -0.316786
    107 H                     0.087432
    108 H                     0.099765
    109 H                     0.105107
    110 H                     0.106105
  ----------------------------------------
  Sum of atomic charges =     0.000000

                    Cartesian Multipole Moments
 -----------------------------------------------------------------
    Charge (ESU x 10^10)
                 0.0000
    Dipole Moment (Debye)
         X      -4.0437      Y       1.0438      Z       1.7272
       Tot       4.5194
    Quadrupole Moments (Debye-Ang)
        XX    -405.7290     XY     -13.0304     YY    -393.7657
        XZ       4.4657     YZ       3.3271     ZZ    -440.6758

 Total job time:  87.10s(wall), 1010.64s(cpu)
        *  Thank you very much for using Q-Chem.  Have a nice day.  *
