 Q-Chem 4.4, Q-Chem, Inc., Pleasanton, CA (2016)
 Q-Chem 4.4.2 for Intel X86 Linux

User input:
--------------------------------------------------------------
$comment
SP
$end

$rem
MEM_STATIC 5000
MEM_TOTAL 20000
JOBTYPE SP
EXCHANGE B3LYP
BASIS 6-31g(d,p)
$end

$molecule
0 1
C          -7.003000     27.352000      8.610000
C          -5.934000     26.916000      7.812000
N          -6.884000     27.590000      9.933000
C          -4.733000     26.634000      8.485000
C          -5.755000     27.278000     10.548000
C          -4.645000     26.808000      9.917000
C          -3.481000     26.246000     10.708000
C          -2.702000     25.222000     10.233000
C          -3.145000     26.717000     11.964000
N          -1.610000     24.776000     10.911000
N          -3.741000     27.754000     12.606000
C          -2.082000     26.200000     12.730000
C          -1.315000     25.183000     12.135000
S          -3.096000     27.888000     14.108000
N          -1.870000     26.803000     13.964000
C          -0.211000     24.558000     12.903000
S          -0.104000     24.688000     14.713000
C           0.675000     23.600000     12.496000
C           1.436000     23.822000     14.724000
S           0.730000     22.733000     10.940000
C           1.628000     23.246000     13.424000
C           2.335000     23.544000     15.814000
C           2.258000     22.055000     11.548000
C           2.438000     22.184000     12.913000
N           3.622000     23.373000     15.561000
S           1.851000     24.066000     17.434000
C           4.289000     23.576000     16.777000
C           3.476000     23.822000     17.826000
C          -8.286000     27.507000      7.853000
H          -6.087000     26.742000      6.751000
H          -3.865000     26.394000      7.879000
H          -5.845000     27.266000     11.633000
H          -2.963000     24.730000      9.297000
H           2.860000     21.520000     10.826000
H           3.259000     21.826000     13.523000
H           5.369000     23.623000     16.805000
H           3.752000     24.027000     18.852000
H          -7.966000     27.669000      6.816000
C          -9.435000     28.396000      8.337000
H          -8.770000     26.524000      7.901000
H          -9.387000     28.664000      9.400000
H         -10.439000     27.981000      8.180000
C          -9.377000     29.764000      7.600000
H          -8.408000     30.254000      7.762000
C         -10.568000     30.689000      8.005000
H          -9.455000     29.614000      6.517000
H         -10.611000     30.895000      9.081000
H         -11.534000     30.323000      7.635000
C         -10.552000     32.056000      7.324000
H          -9.474000     32.261000      7.295000
C         -11.455000     33.079000      8.062000
H         -10.879000     32.021000      6.278000
H         -11.110000     34.116000      7.974000
H         -11.595000     32.689000      9.078000
H         -12.450000     33.031000      7.602000
C         -13.921000     24.626000     15.686000
C         -14.875000     24.638000     14.700000
N         -12.656000     24.180000     15.511000
C         -14.491000     24.155000     13.403000
C         -12.254000     23.714000     14.316000
C         -13.165000     23.682000     13.219000
C         -12.646000     23.358000     11.837000
C         -13.190000     22.410000     11.003000
C         -11.567000     24.094000     11.232000
N         -12.813000     22.115000      9.760000
N         -10.876000     25.096000     11.770000
C         -11.174000     23.817000      9.958000
C         -11.752000     22.729000      9.225000
S          -9.717000     25.554000     10.751000
N         -10.076000     24.568000      9.538000
C         -11.295000     22.082000      7.960000
S         -11.687000     20.365000      7.671000
C         -10.501000     22.470000      6.890000
C         -10.804000     20.240000      6.124000
S          -9.694000     23.983000      6.637000
C         -10.221000     21.477000      5.957000
C         -10.558000     19.053000      5.398000
C          -8.786000     23.172000      5.322000
C          -9.137000     21.921000      5.139000
N         -11.193000     18.011000      5.823000
S          -9.839000     19.025000      3.799000
C         -10.909000     16.951000      4.973000
C         -10.125000     17.237000      3.908000
C         -14.258000     24.898000     17.179000
H         -15.843000     25.108000     14.848000
H         -15.127000     24.241000     12.527000
H         -11.211000     23.424000     14.201000
H         -14.029000     21.784000     11.303000
H          -7.960000     23.685000      4.848000
H          -8.577000     21.316000      4.435000
H         -11.366000     15.990000      5.163000
H          -9.759000     16.568000      3.140000
H         -15.091000     24.260000     17.499000
C         -14.504000     26.358000     17.480000
H         -13.436000     24.559000     17.822000
H         -15.231000     26.732000     16.749000
H         -13.529000     26.764000     17.182000
C         -14.855000     26.709000     18.928000
H         -15.885000     26.429000     19.180000
C         -14.711000     28.253000     19.086000
H         -14.132000     26.310000     19.649000
H         -15.429000     28.725000     18.405000
H         -13.673000     28.569000     18.924000
C         -15.092000     28.689000     20.486000
H         -15.258000     29.770000     20.393000
C         -14.040000     28.482000     21.623000
H         -16.060000     28.315000     20.841000
H         -13.081000     28.812000     21.205000
H         -13.891000     27.422000     21.864000
H         -14.352000     29.110000     22.466000
$end

--------------------------------------------------------------

             Standard Nuclear Orientation (Angstroms)
    I     Atom           X                Y                Z
 ----------------------------------------------------------------
    1      C      -0.4612635505    -1.1471897237    -3.6680169812
    2      C       0.3319743069    -2.3025971725    -3.7419651306
    3      N       0.0266481299     0.0581459500    -3.3071262694
    4      C       1.6643793864    -2.1678813792    -3.3160515725
    5      C       1.2729937349     0.1484733712    -2.8727605366
    6      C       2.1510165895    -0.8905456139    -2.8467525468
    7      C       3.4729744085    -0.7724806224    -2.1153776891
    8      C       4.0612605072    -1.8436600514    -1.4928537161
    9      C       4.1570607952     0.4250214706    -2.0139501147
   10      N       5.2858903006    -1.7507297049    -0.9074394868
   11      N       3.7912133494     1.5970609242    -2.5929390315
   12      C       5.3763179950     0.5683508464    -1.3233832673
   13      C       5.9199725013    -0.5988885694    -0.7589411322
   14      S       4.8310894582     2.7715158291    -2.1140879540
   15      N       5.9388281319     1.8390658778    -1.3365989708
   16      C       7.1762044786    -0.5134279978     0.0245400162
   17      S       7.7847764411     1.0614255296     0.6982799762
   18      C       7.8879215153    -1.5244536488     0.6073736054
   19      C       9.2430628736     0.2789781388     1.3170317531
   20      S       7.4852483673    -3.2586720939     0.6860547385
   21      C       9.0509536019    -1.1405663158     1.2356218692
   22      C      10.4012691262     0.8494750921     1.9547436807
   23      C       9.1028155532    -3.4436503975     1.4025681202
   24      C       9.6579810963    -2.2677088396     1.8729070111
   25      N      11.5623422035     0.2224315739     1.8633941565
   26      S      10.4002798121     2.5931956423     2.2557049145
   27      C      12.5458704837     1.1785285217     2.1520197763
   28      C      12.0629327035     2.3955130900     2.4800527944
   29      C      -1.8991994823    -1.3898316469    -4.0095256241
   30      H      -0.1141355027    -3.2466611811    -4.0405202936
   31      H       2.3232287062    -3.0185900864    -3.4591329108
   32      H       1.4873134693     1.0917391441    -2.3729748495
   33      H       3.5374224370    -2.7972113956    -1.4417214358
   34      H       9.4659567383    -4.4579885867     1.4982734895
   35      H      10.6058967333    -2.1226128715     2.3775931564
   36      H      13.5920915073     0.9436146815     2.0119124690
   37      H      12.6182998852     3.2918752325     2.7229091369
   38      H      -1.8752188405    -2.2838349413    -4.6452897614
   39      C      -2.8440060464    -0.2761954420    -4.4698873944
   40      H      -2.3775714361    -1.6688282000    -3.0628629612
   41      H      -2.4956056550     0.7394026796    -4.2434483897
   42      H      -3.8631035416    -0.3377751663    -4.0667270879
   43      C      -2.9553993031    -0.2998774684    -6.0206896719
   44      H      -1.9664747503    -0.1909692431    -6.4848795332
   45      C      -3.9614772324     0.7735883941    -6.5437663798
   46      H      -3.3349320704    -1.2712796101    -6.3580407614
   47      H      -3.6985561271     1.7957782323    -6.2470149229
   48      H      -5.0018473017     0.5426973920    -6.2823635028
   49      C      -4.0976925303     0.8081063545    -8.0646082200
   50      H      -3.0648874864     0.5966971265    -8.3705001608
   51      C      -4.7321076636     2.1352959114    -8.5572209672
   52      H      -4.7029368597    -0.0150491868    -8.4625582880
   53      H      -4.3968453963     2.4406973809    -9.5554529816
   54      H      -4.5952910915     2.8613861230    -7.7460303421
   55      H      -5.8166036520     1.9792729349    -8.6159941075
   56      C      -5.2159184078     5.4465424775     2.5990021545
   57      C      -6.4053599614     4.8584670260     2.2499290192
   58      N      -4.0618504148     4.7671090340     2.7894313104
   59      C      -6.4097079498     3.4338308899     2.0673174787
   60      C      -4.0201431648     3.4325010405     2.6349417999
   61      C      -5.2002952495     2.7186662267     2.2715757092
   62      C      -5.0942352435     1.2585772553     1.8958730730
   63      C      -5.8740178045     0.2587717675     2.4274030758
   64      C      -4.2057807841     0.7962847642     0.8619986482
   65      N      -5.8649613123    -1.0327997635     2.1018820159
   66      N      -3.3654889339     1.5299880508     0.1363829829
   67      C      -4.1894687675    -0.5177183228     0.5050899688
   68      C      -4.9777055577    -1.4860088727     1.2095139700
   69      S      -2.5226929718     0.5678815006    -0.8410892431
   70      N      -3.2310216296    -0.8203602285    -0.4622734380
   71      C      -4.9075549335    -2.9766038109     1.1797042396
   72      S      -5.4111672813    -3.8994970985     2.6218958298
   73      C      -4.4313493194    -3.9192669714     0.2794296265
   74      C      -4.9958869681    -5.5045320012     1.9586249780
   75      S      -3.6851768734    -3.6587016491    -1.2632172526
   76      C      -4.4485154220    -5.2375990997     0.7228749157
   77      C      -4.9935702293    -6.7254157948     2.6699606197
   78      C      -3.2002739634    -5.3832230881    -1.2152071040
   79      C      -3.6223519703    -6.0151723918    -0.1455430288
   80      N      -5.5139527663    -6.6704561988     3.8513984970
   81      S      -4.7475618025    -8.2883106541     1.9140601548
   82      C      -5.5060783365    -7.9493993868     4.3908410940
   83      C      -5.0408786222    -8.9314271774     3.5846850022
   84      C      -5.1178175552     6.9305346988     3.0514900660
   85      H      -7.2810432024     5.4487233747     1.9957552511
   86      H      -7.2612136515     2.8906331727     1.6683910694
   87      H      -3.0583538245     2.9325074637     2.7356477483
   88      H      -6.6136171609     0.4485441593     3.2037897265
   89      H      -2.5245334074    -5.7692303607    -1.9665353188
   90      H      -3.2964648434    -7.0349877198     0.0247956848
   91      H      -5.9185155752    -8.1043213465     5.3779402331
   92      H      -4.9208072189    -9.9845154602     3.8036117634
   93      H      -5.8464332790     7.1303704634     3.8467999390
   94      C      -5.2306009667     7.9126622161     1.9089392173
   95      H      -4.1592646546     7.1121260517     3.5537399212
   96      H      -6.1213836227     7.6472412584     1.3268533345
   97      H      -4.3658581653     7.5896291974     1.3155299519
   98      C      -5.1562711179     9.3977058949     2.2725686243
   99      H      -6.0831507216     9.7528692211     2.7389989106
  100      C      -4.9319061593    10.1947941024     0.9519828622
  101      H      -4.2727885495     9.6443065193     2.8729165928
  102      H      -5.7974906239    10.0140922597     0.3037704136
  103      H      -3.9713849023     9.9306280042     0.4924622562
  104      C      -4.8973810907    11.6851991206     1.2217195884
  105      H      -5.0530357860    12.1388006905     0.2344084765
  106      C      -3.5772588861    12.2882755366     1.8012868419
  107      H      -5.7387092124    12.0695313979     1.8111096902
  108      H      -2.7632593030    11.8326075458     1.2241591603
  109      H      -3.3962867766    11.9748237974     2.8370856172
  110      H      -3.6257815909    13.3727447400     1.6465318937
 ----------------------------------------------------------------

   10   -5663.4843540217      4.91E-06 Convergence criterion met
 Total energy in the final basis set = -5663.4843540217

                    Orbital Energies (a.u.)
 --------------------------------------------------------------

 Alpha MOs
 -- Occupied --
-88.990 -88.989 -88.927 -88.925 -88.923 -88.914 -88.907 -88.905
-14.388 -14.380 -14.379 -14.369 -14.350 -14.347 -14.342 -14.340
-14.330 -14.325 -10.269 -10.266 -10.266 -10.261 -10.254 -10.253
-10.253 -10.250 -10.243 -10.242 -10.241 -10.237 -10.235 -10.235
-10.232 -10.230 -10.229 -10.229 -10.229 -10.227 -10.226 -10.225
-10.224 -10.223 -10.222 -10.222 -10.220 -10.220 -10.220 -10.217
-10.217 -10.216 -10.207 -10.205 -10.204 -10.202 -10.196 -10.196
-10.188 -10.181 -10.178 -10.177 -10.176 -10.175 -10.174 -10.173
-10.172 -10.172 -10.172 -10.171  -8.045  -8.044  -7.988  -7.988
 -7.981  -7.972  -7.967  -7.966  -6.010  -6.009  -6.004  -6.003
 -6.003  -6.002  -5.952  -5.951  -5.949  -5.948  -5.946  -5.945
 -5.945  -5.942  -5.938  -5.937  -5.933  -5.931  -5.930  -5.929
 -5.928  -5.927  -5.923  -5.922  -1.041  -1.028  -0.977  -0.972
 -0.962  -0.960  -0.947  -0.933  -0.914  -0.907  -0.895  -0.894
 -0.845  -0.837  -0.833  -0.828  -0.818  -0.811  -0.809  -0.807
 -0.806  -0.801  -0.796  -0.795  -0.788  -0.784  -0.770  -0.768
 -0.752  -0.750  -0.744  -0.739  -0.721  -0.720  -0.708  -0.708
 -0.695  -0.694  -0.676  -0.672  -0.662  -0.650  -0.645  -0.640
 -0.638  -0.634  -0.630  -0.627  -0.612  -0.611  -0.601  -0.595
 -0.592  -0.591  -0.577  -0.577  -0.575  -0.572  -0.568  -0.560
 -0.549  -0.546  -0.542  -0.539  -0.525  -0.524  -0.517  -0.515
 -0.512  -0.505  -0.502  -0.492  -0.486  -0.484  -0.479  -0.475
 -0.474  -0.473  -0.469  -0.469  -0.467  -0.466  -0.453  -0.450
 -0.449  -0.443  -0.438  -0.437  -0.437  -0.435  -0.434  -0.432
 -0.430  -0.429  -0.424  -0.421  -0.418  -0.416  -0.415  -0.412
 -0.412  -0.411  -0.404  -0.403  -0.401  -0.399  -0.399  -0.396
 -0.396  -0.391  -0.390  -0.389  -0.388  -0.386  -0.384  -0.380
 -0.380  -0.378  -0.376  -0.373  -0.372  -0.361  -0.358  -0.354
 -0.353  -0.351  -0.350  -0.349  -0.343  -0.343  -0.340  -0.337
 -0.336  -0.330  -0.328  -0.328  -0.326  -0.324  -0.320  -0.319
 -0.316  -0.309  -0.304  -0.304  -0.302  -0.298  -0.297  -0.296
 -0.296  -0.294  -0.293  -0.291  -0.290  -0.285  -0.284  -0.281
 -0.273  -0.272  -0.268  -0.265  -0.256  -0.254  -0.251  -0.243
 -0.242  -0.241  -0.238  -0.231  -0.197  -0.190

          Ground-State Mulliken Net Atomic Charges

     Atom                 Charge (a.u.)
  ----------------------------------------
      1 C                     0.303235
      2 C                    -0.111759
      3 N                    -0.507308
      4 C                    -0.103650
      5 C                     0.091406
      6 C                     0.051826
      7 C                     0.074946
      8 C                     0.041731
      9 C                     0.227258
     10 N                    -0.551168
     11 N                    -0.567451
     12 C                     0.182326
     13 C                     0.344055
     14 S                     0.610426
     15 N                    -0.566483
     16 C                    -0.231332
     17 S                     0.328973
     18 C                    -0.113410
     19 C                    -0.215709
     20 S                     0.274423
     21 C                     0.155000
     22 C                     0.047482
     23 C                    -0.292533
     24 C                    -0.077987
     25 N                    -0.422072
     26 S                     0.278785
     27 C                     0.111797
     28 C                    -0.295834
     29 C                    -0.270466
     30 H                     0.094947
     31 H                     0.103409
     32 H                     0.118115
     33 H                     0.114674
     34 H                     0.126352
     35 H                     0.122117
     36 H                     0.117506
     37 H                     0.131611
     38 H                     0.099715
     39 C                    -0.183426
     40 H                     0.154087
     41 H                     0.123515
     42 H                     0.097228
     43 C                    -0.187785
     44 H                     0.097670
     45 C                    -0.177572
     46 H                     0.089793
     47 H                     0.092333
     48 H                     0.092445
     49 C                    -0.182140
     50 H                     0.087305
     51 C                    -0.322993
     52 H                     0.090303
     53 H                     0.107545
     54 H                     0.103391
     55 H                     0.103411
     56 C                     0.268175
     57 C                    -0.112325
     58 N                    -0.483459
     59 C                    -0.070566
     60 C                     0.109481
     61 C                     0.014860
     62 C                     0.021975
     63 C                     0.041070
     64 C                     0.256914
     65 N                    -0.497774
     66 N                    -0.559884
     67 C                     0.174509
     68 C                     0.291385
     69 S                     0.645909
     70 N                    -0.560757
     71 C                    -0.240081
     72 S                     0.340577
     73 C                    -0.122579
     74 C                    -0.213680
     75 S                     0.278109
     76 C                     0.118814
     77 C                     0.081275
     78 C                    -0.308367
     79 C                    -0.056952
     80 N                    -0.430974
     81 S                     0.251667
     82 C                     0.131630
     83 C                    -0.303851
     84 C                    -0.224972
     85 H                     0.095982
     86 H                     0.105643
     87 H                     0.113236
     88 H                     0.110134
     89 H                     0.119412
     90 H                     0.112979
     91 H                     0.117176
     92 H                     0.131461
     93 H                     0.095076
     94 C                    -0.174939
     95 H                     0.114935
     96 H                     0.086223
     97 H                     0.106561
     98 C                    -0.171134
     99 H                     0.093178
    100 C                    -0.168957
    101 H                     0.096435
    102 H                     0.090631
    103 H                     0.093962
    104 C                    -0.184875
    105 H                     0.085173
    106 C                    -0.316692
    107 H                     0.087434
    108 H                     0.099690
    109 H                     0.104984
    110 H                     0.106102
  ----------------------------------------
  Sum of atomic charges =     0.000000

                    Cartesian Multipole Moments
 -----------------------------------------------------------------
    Charge (ESU x 10^10)
                 0.0000
    Dipole Moment (Debye)
         X       1.2002      Y      -1.4449      Z      -1.0187
       Tot       2.1368
    Quadrupole Moments (Debye-Ang)
        XX    -417.8340     XY       9.8819     YY    -391.4326
        XZ      14.7766     YZ       4.0859     ZZ    -448.7110

 Total job time:  88.43s(wall), 1033.26s(cpu)
        *  Thank you very much for using Q-Chem.  Have a nice day.  *
