 Q-Chem 4.4, Q-Chem, Inc., Pleasanton, CA (2016)
 Q-Chem 4.4.2 for Intel X86 Linux

User input:
--------------------------------------------------------------
$comment
SP
$end

$rem
MEM_STATIC 5000
MEM_TOTAL 20000
JOBTYPE SP
EXCHANGE B3LYP
BASIS 6-31g(d,p)
$end

$molecule
0 1
C         -14.976000     14.720000      8.474000
C         -14.108000     15.468000      7.681000
N         -16.286000     14.986000      8.616000
C         -14.678000     16.501000      6.931000
C         -16.822000     16.122000      7.946000
C         -16.041000     16.827000      7.024000
C         -16.770000     17.948000      6.193000
C         -18.021000     17.820000      5.638000
C         -16.202000     19.260000      6.054000
N         -18.654000     18.764000      4.859000
N         -15.064000     19.596000      6.603000
C         -16.836000     20.280000      5.379000
C         -18.050000     19.977000      4.777000
S         -14.785000     21.219000      6.263000
N         -16.083000     21.473000      5.312000
C         -18.646000     20.973000      3.795000
S         -18.486000     22.684000      3.978000
C         -19.393000     20.678000      2.662000
C         -19.358000     23.008000      2.433000
S         -19.854000     19.232000      2.036000
C         -19.741000     21.804000      1.896000
C         -19.650000     24.265000      1.836000
C         -20.605000     20.021000      0.588000
C         -20.495000     21.385000      0.725000
N         -20.259000     24.406000      0.701000
S         -19.018000     25.740000      2.541000
C         -20.350000     25.684000      0.355000
C         -19.784000     26.592000      1.249000
C         -14.470000     13.574000      9.322000
H         -13.048000     15.250000      7.583000
H         -14.019000     16.838000      6.137000
H         -17.879000     16.359000      8.056000
H         -18.639000     16.950000      5.853000
H         -21.043000     19.446000     -0.217000
H         -20.856000     22.109000      0.004000
H         -20.620000     25.937000     -0.661000
H         -19.740000     27.663000      1.103000
H         -13.419000     13.373000      9.080000
C         -15.270000     12.222000      9.307000
H         -14.421000     13.956000     10.349000
H         -14.512000     11.447000      9.471000
H         -15.782000     12.053000      8.352000
C         -16.418000     12.207000     10.430000
H         -16.923000     13.170000     10.572000
C         -15.820000     11.829000     11.769000
H         -17.266000     11.536000     10.244000
H         -15.045000     12.588000     11.935000
H         -15.215000     10.914000     11.799000
C         -16.781000     11.637000     12.982000
H         -17.245000     12.623000     13.115000
C         -15.915000     11.164000     14.225000
H         -17.427000     10.796000     12.702000
H         -16.544000     10.723000     15.008000
H         -15.373000     11.913000     14.815000
H         -15.274000     10.315000     13.957000
C         -13.921000     24.626000     15.686000
C         -14.875000     24.638000     14.700000
N         -12.656000     24.180000     15.511000
C         -14.491000     24.155000     13.403000
C         -12.254000     23.714000     14.316000
C         -13.165000     23.682000     13.219000
C         -12.646000     23.358000     11.837000
C         -13.190000     22.410000     11.003000
C         -11.567000     24.094000     11.232000
N         -12.813000     22.115000      9.760000
N         -10.876000     25.096000     11.770000
C         -11.174000     23.817000      9.958000
C         -11.752000     22.729000      9.225000
S          -9.717000     25.554000     10.751000
N         -10.076000     24.568000      9.538000
C         -11.295000     22.082000      7.960000
S         -11.687000     20.365000      7.671000
C         -10.501000     22.470000      6.890000
C         -10.804000     20.240000      6.124000
S          -9.694000     23.983000      6.637000
C         -10.221000     21.477000      5.957000
C         -10.558000     19.053000      5.398000
C          -8.786000     23.172000      5.322000
C          -9.137000     21.921000      5.139000
N         -11.193000     18.011000      5.823000
S          -9.839000     19.025000      3.799000
C         -10.909000     16.951000      4.973000
C         -10.125000     17.237000      3.908000
C         -14.258000     24.898000     17.179000
H         -15.843000     25.108000     14.848000
H         -15.127000     24.241000     12.527000
H         -11.211000     23.424000     14.201000
H         -14.029000     21.784000     11.303000
H          -7.960000     23.685000      4.848000
H          -8.577000     21.316000      4.435000
H         -11.366000     15.990000      5.163000
H          -9.759000     16.568000      3.140000
H         -15.091000     24.260000     17.499000
C         -14.504000     26.358000     17.480000
H         -13.436000     24.559000     17.822000
H         -15.231000     26.732000     16.749000
H         -13.529000     26.764000     17.182000
C         -14.855000     26.709000     18.928000
H         -15.885000     26.429000     19.180000
C         -14.711000     28.253000     19.086000
H         -14.132000     26.310000     19.649000
H         -15.429000     28.725000     18.405000
H         -13.673000     28.569000     18.924000
C         -15.092000     28.689000     20.486000
H         -15.258000     29.770000     20.393000
C         -14.040000     28.482000     21.623000
H         -16.060000     28.315000     20.841000
H         -13.081000     28.812000     21.205000
H         -13.891000     27.422000     21.864000
H         -14.352000     29.110000     22.466000
$end

--------------------------------------------------------------

             Standard Nuclear Orientation (Angstroms)
    I     Atom           X                Y                Z
 ----------------------------------------------------------------
    1      C      -2.2067070699     5.9857734916    -0.6785839524
    2      C      -2.3559144514     5.1669484158     0.4390204734
    3      N      -2.3809043971     5.5715223230    -1.9454980223
    4      C      -2.7977794009     3.8614959768     0.2044180520
    5      C      -2.7037004165     4.2035171393    -2.1714549810
    6      C      -3.0084521508     3.3662875672    -1.0929175342
    7      C      -3.5365271180     1.9255776805    -1.4452452955
    8      C      -4.4509633829     1.6489000157    -2.4335093227
    9      C      -2.9925748047     0.7573846059    -0.8106353198
   10      N      -4.9708116472     0.4055889283    -2.7209137801
   11      N      -2.0396205568     0.8207939402     0.0822243880
   12      C      -3.3931323128    -0.5211003387    -1.1315884768
   13      C      -4.4032022039    -0.6456257919    -2.0761842774
   14      S      -1.6426939653    -0.7513734974     0.5275431829
   15      N      -2.7745866794    -1.5241024740    -0.3530417434
   16      C      -5.0699729255    -1.9999832548    -2.2569843539
   17      S      -4.2183349980    -3.4954733422    -2.0994018703
   18      C      -6.3998492296    -2.2353396272    -2.5806499123
   19      C      -5.7143643347    -4.4646205818    -2.3733267716
   20      S      -7.6312958199    -1.1854848126    -2.8575202127
   21      C      -6.7532624655    -3.5956874361    -2.5976476629
   22      C      -5.8535859600    -5.8795571554    -2.3904682940
   23      C      -8.8309204455    -2.5321983138    -3.0321326511
   24      C      -8.1651169828    -3.7303132925    -2.9199219260
   25      N      -6.9794483077    -6.4964794584    -2.5660468976
   26      S      -4.4900769956    -6.9011768940    -1.9791163597
   27      C      -6.8299157160    -7.8123499729    -2.4799899794
   28      C      -5.5340306814    -8.2556618327    -2.2188146128
   29      C      -1.7409669712     7.4185964411    -0.5423468211
   30      H      -2.2012036865     5.5104479167     1.4582361876
   31      H      -3.1658298560     3.3883504838     1.1093811480
   32      H      -2.8398559264     3.8470013297    -3.1911981617
   33      H      -4.7775448147     2.4254539914    -3.1229710629
   34      H      -9.8848635682    -2.3458057991    -3.1901064606
   35      H      -8.6341095412    -4.7053211545    -2.9811072940
   36      H      -7.7064210645    -8.4365509390    -2.3737989820
   37      H      -5.2461170911    -9.2896072478    -2.0833316131
   38      H      -1.7086680428     7.6959176959     0.5186035551
   39      C      -2.5053238510     8.5331725063    -1.3433510377
   40      H      -0.6834984182     7.4221458899    -0.8335540684
   41      H      -2.4223536923     9.4315798935    -0.7204023082
   42      H      -3.5605653586     8.2804649303    -1.5025183765
   43      C      -1.8770225214     8.7393191759    -2.8069080027
   44      H      -1.5445375247     7.8126438395    -3.2899033939
   45      C      -0.6649533921     9.6432003812    -2.7214902508
   46      H      -2.5498444861     9.1573418787    -3.5661896525
   47      H       0.0012161895     9.1248539940    -2.0202077746
   48      H      -0.7984185628    10.6004149965    -2.2018007007
   49      C       0.0325182971    10.0746860752    -4.0478036899
   50      H       0.3782350252     9.1304249746    -4.4882942321
   51      C       1.2063701926    11.0781272922    -3.6818645536
   52      H      -0.7250191747    10.6514916859    -4.5922568709
   53      H       1.5348457793    11.6487730663    -4.5591776046
   54      H       2.1690955505    10.6747165273    -3.3452867172
   55      H       0.8477726303    11.8788731301    -3.0232904185
   56      C       8.1491085126    -0.5597082583    -1.7595822336
   57      C       7.0002911912    -1.0634956127    -2.3153457298
   58      N       8.2131095364     0.0025473594    -0.5309494612
   59      C       5.8002124542    -0.9938441569    -1.5292708608
   60      C       7.1141850075     0.0941061289     0.2376641422
   61      C       5.8647446877    -0.3995807174    -0.2414247693
   62      C       4.6910467287    -0.4837485987     0.7070528893
   63      C       3.4393515417     0.0206257824     0.4442570702
   64      C       4.7660863045    -1.1927211452     1.9575283950
   65      N       2.3550425830    -0.0665789242     1.2129393331
   66      N       5.8236524799    -1.8234507624     2.4621697871
   67      C       3.6662676910    -1.3044883055     2.7526140000
   68      C       2.4400553073    -0.6417735400     2.4174583203
   69      S       5.4561626505    -2.4025739875     3.9185260331
   70      N       3.9146743776    -1.9613206656     3.9579647244
   71      C       1.2285830943    -0.3973550509     3.2542842756
   72      S       0.2113336812     1.0293571880     2.9152122789
   73      C       0.6791352814    -0.9892601172     4.3828388791
   74      C      -0.9213403200     0.7649427044     4.2700766957
   75      S       1.2714907893    -2.3428484853     5.2891172482
   76      C      -0.4255128680    -0.3408548347     4.9252972238
   77      C      -1.9279970368     1.6577188184     4.7015324463
   78      C       0.0918088791    -1.8891400283     6.5595145194
   79      C      -0.6451132943    -0.8510664710     6.2416466223
   80      N      -2.1405254851     2.6621012931     3.9168914436
   81      S      -3.1196335093     1.2587475760     5.9243858574
   82      C      -3.1964668448     3.4014143397     4.4318283952
   83      C      -3.7828973942     2.9039940445     5.5450890388
   84      C       9.4557987346    -0.3596178371    -2.5775837537
   85      H       7.0120021886    -1.6081222882    -3.2550651756
   86      H       4.8722107242    -1.4762544140    -1.8214371371
   87      H       7.2217947936     0.4956806644     1.2438112619
   88      H       3.2116275668     0.5636885803    -0.4717241462
   89      H       0.1208046137    -2.3888806543     7.5184407700
   90      H      -1.3183677792    -0.4378166404     6.9840710131
   91      H      -3.5301517890     4.2802984031     3.8982675634
   92      H      -4.5952268015     3.3227157590     6.1248597348
   93      H       9.2429000700     0.2023445773    -3.4953012502
   94      C      10.1929587111    -1.6496286259    -2.8517813722
   95      H      10.1413541728     0.3085254019    -2.0412514375
   96      H       9.4724087081    -2.3644098649    -3.2673069113
   97      H      10.3811504044    -1.9658760444    -1.8179359017
   98      C      11.4856747590    -1.5402886089    -3.6642073565
   99      H      11.2878198439    -1.3654142274    -4.7286679632
  100      C      12.2478238086    -2.8923033216    -3.5199123711
  101      H      12.1868621823    -0.8064211862    -3.2500264740
  102      H      11.6105979669    -3.6793336203    -3.9401450871
  103      H      12.5404240979    -3.0685915749    -2.4773906579
  104      C      13.5213270457    -2.8829298454    -4.3404967014
  105      H      13.7955233861    -3.9427823153    -4.4198384246
  106      C      14.7588841643    -2.1310930364    -3.7526907888
  107      H      13.3971849435    -2.5757764668    -5.3860446632
  108      H      14.8086077976    -2.4204121569    -2.6957484977
  109      H      14.6169689353    -1.0431764644    -3.7392892941
  110      H      15.6378918700    -2.4774446279    -4.3092543776
 ----------------------------------------------------------------

    9   -5663.4950623507      6.50E-06 Convergence criterion met
 Total energy in the final basis set = -5663.4950623507

                    Orbital Energies (a.u.)
 --------------------------------------------------------------

 Alpha MOs
 -- Occupied --
-88.997 -88.982 -88.934 -88.922 -88.920 -88.920 -88.909 -88.897
-14.387 -14.384 -14.376 -14.367 -14.349 -14.348 -14.347 -14.335
-14.328 -14.327 -10.273 -10.273 -10.261 -10.260 -10.260 -10.257
-10.248 -10.247 -10.243 -10.241 -10.238 -10.236 -10.235 -10.235
-10.234 -10.234 -10.233 -10.231 -10.229 -10.228 -10.228 -10.224
-10.224 -10.223 -10.223 -10.223 -10.222 -10.221 -10.220 -10.217
-10.217 -10.213 -10.205 -10.205 -10.202 -10.200 -10.194 -10.193
-10.182 -10.181 -10.179 -10.178 -10.178 -10.177 -10.175 -10.174
-10.174 -10.169 -10.165 -10.160  -8.053  -8.036  -7.994  -7.981
 -7.979  -7.979  -7.970  -7.960  -6.018  -6.012  -6.011  -6.002
 -5.996  -5.994  -5.958  -5.955  -5.951  -5.945  -5.944  -5.943
 -5.942  -5.940  -5.939  -5.939  -5.936  -5.936  -5.934  -5.931
 -5.926  -5.924  -5.920  -5.916  -1.048  -1.022  -0.983  -0.981
 -0.969  -0.947  -0.936  -0.920  -0.920  -0.910  -0.901  -0.890
 -0.850  -0.842  -0.834  -0.816  -0.815  -0.808  -0.807  -0.806
 -0.805  -0.801  -0.793  -0.788  -0.787  -0.777  -0.773  -0.762
 -0.755  -0.748  -0.741  -0.734  -0.726  -0.720  -0.712  -0.699
 -0.699  -0.687  -0.682  -0.668  -0.655  -0.646  -0.645  -0.641
 -0.639  -0.635  -0.628  -0.619  -0.617  -0.607  -0.604  -0.597
 -0.594  -0.591  -0.582  -0.578  -0.576  -0.573  -0.561  -0.557
 -0.552  -0.545  -0.541  -0.531  -0.530  -0.523  -0.515  -0.509
 -0.508  -0.504  -0.501  -0.497  -0.490  -0.480  -0.478  -0.477
 -0.473  -0.471  -0.467  -0.464  -0.462  -0.456  -0.455  -0.447
 -0.446  -0.443  -0.442  -0.438  -0.437  -0.435  -0.435  -0.430
 -0.428  -0.426  -0.425  -0.420  -0.418  -0.417  -0.413  -0.409
 -0.408  -0.408  -0.406  -0.403  -0.403  -0.398  -0.396  -0.395
 -0.394  -0.393  -0.389  -0.385  -0.384  -0.384  -0.382  -0.377
 -0.376  -0.375  -0.369  -0.366  -0.364  -0.360  -0.356  -0.353
 -0.349  -0.348  -0.346  -0.344  -0.342  -0.338  -0.337  -0.335
 -0.334  -0.333  -0.331  -0.329  -0.329  -0.326  -0.321  -0.318
 -0.314  -0.310  -0.304  -0.303  -0.302  -0.301  -0.298  -0.295
 -0.295  -0.291  -0.290  -0.286  -0.285  -0.283  -0.280  -0.279
 -0.275  -0.270  -0.270  -0.262  -0.262  -0.248  -0.247  -0.245
 -0.245  -0.243  -0.238  -0.234  -0.203  -0.188

          Ground-State Mulliken Net Atomic Charges

     Atom                 Charge (a.u.)
  ----------------------------------------
      1 C                     0.292545
      2 C                    -0.127129
      3 N                    -0.495916
      4 C                    -0.046718
      5 C                     0.057723
      6 C                     0.049064
      7 C                     0.054854
      8 C                     0.026818
      9 C                     0.253996
     10 N                    -0.514361
     11 N                    -0.569647
     12 C                     0.217140
     13 C                     0.262414
     14 S                     0.629001
     15 N                    -0.553546
     16 C                    -0.225097
     17 S                     0.327510
     18 C                    -0.092608
     19 C                    -0.245487
     20 S                     0.256786
     21 C                     0.151987
     22 C                     0.075317
     23 C                    -0.316504
     24 C                    -0.045273
     25 N                    -0.431308
     26 S                     0.258198
     27 C                     0.119715
     28 C                    -0.314157
     29 C                    -0.228673
     30 H                     0.096843
     31 H                     0.106793
     32 H                     0.109556
     33 H                     0.111427
     34 H                     0.132659
     35 H                     0.125760
     36 H                     0.109019
     37 H                     0.129653
     38 H                     0.084514
     39 C                    -0.174468
     40 H                     0.126674
     41 H                     0.095688
     42 H                     0.099956
     43 C                    -0.178329
     44 H                     0.119616
     45 C                    -0.170009
     46 H                     0.076675
     47 H                     0.082485
     48 H                     0.076409
     49 C                    -0.176237
     50 H                     0.098674
     51 C                    -0.328846
     52 H                     0.099894
     53 H                     0.093454
     54 H                     0.106094
     55 H                     0.101899
     56 C                     0.268440
     57 C                    -0.111985
     58 N                    -0.482638
     59 C                    -0.070164
     60 C                     0.109204
     61 C                     0.014849
     62 C                     0.023323
     63 C                     0.040708
     64 C                     0.262273
     65 N                    -0.504539
     66 N                    -0.555677
     67 C                     0.173522
     68 C                     0.297403
     69 S                     0.622923
     70 N                    -0.542677
     71 C                    -0.249693
     72 S                     0.347342
     73 C                    -0.115179
     74 C                    -0.217847
     75 S                     0.272696
     76 C                     0.121423
     77 C                     0.080258
     78 C                    -0.300249
     79 C                    -0.060164
     80 N                    -0.434686
     81 S                     0.259693
     82 C                     0.129090
     83 C                    -0.302654
     84 C                    -0.225558
     85 H                     0.097694
     86 H                     0.106193
     87 H                     0.112898
     88 H                     0.114409
     89 H                     0.126027
     90 H                     0.114162
     91 H                     0.115294
     92 H                     0.134602
     93 H                     0.096402
     94 C                    -0.175164
     95 H                     0.115619
     96 H                     0.086373
     97 H                     0.106069
     98 C                    -0.171134
     99 H                     0.093833
    100 C                    -0.169180
    101 H                     0.096836
    102 H                     0.090702
    103 H                     0.093814
    104 C                    -0.185322
    105 H                     0.085471
    106 C                    -0.316941
    107 H                     0.087917
    108 H                     0.099666
    109 H                     0.105217
    110 H                     0.106609
  ----------------------------------------
  Sum of atomic charges =     0.000000

                    Cartesian Multipole Moments
 -----------------------------------------------------------------
    Charge (ESU x 10^10)
                 0.0000
    Dipole Moment (Debye)
         X       0.2412      Y      -2.8566      Z       4.7663
       Tot       5.5620
    Quadrupole Moments (Debye-Ang)
        XX    -438.9665     XY     -10.4315     YY    -425.5557
        XZ     -24.5236     YZ      11.2628     ZZ    -416.8020

 Total job time:  81.45s(wall), 955.98s(cpu)
        *  Thank you very much for using Q-Chem.  Have a nice day.  *
