 Q-Chem 4.4, Q-Chem, Inc., Pleasanton, CA (2016)
 Q-Chem 4.4.2 for Intel X86 Linux

User input:
--------------------------------------------------------------
$comment
SP
$end

$rem
MEM_STATIC 5000
MEM_TOTAL 20000
JOBTYPE SP
EXCHANGE B3LYP
BASIS 6-31g(d,p)
$end

$molecule
0 1
C          -5.780000     18.574000      6.809000
C          -6.224000     17.467000      7.508000
N          -6.396000     19.727000      6.887000
C          -7.396000     17.581000      8.282000
C          -7.475000     19.848000      7.670000
C          -7.879000     18.809000      8.512000
C          -9.032000     19.011000      9.483000
C         -10.044000     18.092000      9.563000
C          -9.042000     19.986000     10.467000
N         -11.091000     18.203000     10.350000
N          -7.960000     20.825000     10.614000
C         -10.000000     20.046000     11.365000
C         -11.109000     19.197000     11.265000
S          -8.391000     21.766000     11.886000
N          -9.762000     21.027000     12.301000
C         -12.240000     19.120000     12.144000
S         -12.238000     19.779000     13.726000
C         -13.482000     18.747000     11.730000
C         -14.017000     19.587000     13.838000
S         -14.126000     18.162000     10.219000
C         -14.488000     19.038000     12.645000
C         -14.766000     20.294000     14.907000
C         -15.776000     18.193000     10.907000
C         -15.747000     18.656000     12.225000
N         -16.105000     20.162000     14.978000
S         -14.053000     21.133000     16.240000
C         -16.576000     20.686000     16.128000
C         -15.666000     21.274000     16.959000
C          -4.371000     18.563000      6.148000
H          -5.576000     16.606000      7.373000
H          -7.691000     16.742000      8.905000
H          -7.859000     20.854000      7.832000
H         -10.127000     17.312000      8.808000
H         -16.574000     17.842000     10.266000
H         -16.540000     18.560000     12.958000
H         -17.607000     20.545000     16.425000
H         -15.809000     21.575000     17.988000
H          -4.089000     17.590000      5.729000
C          -3.285000     19.013000      7.141000
H          -4.439000     19.078000      5.182000
H          -3.515000     20.059000      7.377000
H          -2.339000     19.024000      6.586000
C          -3.247000     18.291000      8.502000
H          -4.136000     18.512000      9.105000
C          -1.982000     18.775000      9.263000
H          -3.203000     17.219000      8.272000
H          -2.008000     19.872000      9.249000
H          -1.075000     18.457000      8.735000
C          -2.064000     18.204000     10.645000
H          -2.998000     18.339000     11.203000
C          -0.855000     18.833000     11.308000
H          -1.894000     17.132000     10.487000
H           0.015000     18.363000     10.834000
H          -0.877000     18.582000     12.376000
H          -0.868000     19.924000     11.195000
C         -13.921000     24.626000     15.686000
C         -14.875000     24.638000     14.700000
N         -12.656000     24.180000     15.511000
C         -14.491000     24.155000     13.403000
C         -12.254000     23.714000     14.316000
C         -13.165000     23.682000     13.219000
C         -12.646000     23.358000     11.837000
C         -13.190000     22.410000     11.003000
C         -11.567000     24.094000     11.232000
N         -12.813000     22.115000      9.760000
N         -10.876000     25.096000     11.770000
C         -11.174000     23.817000      9.958000
C         -11.752000     22.729000      9.225000
S          -9.717000     25.554000     10.751000
N         -10.076000     24.568000      9.538000
C         -11.295000     22.082000      7.960000
S         -11.687000     20.365000      7.671000
C         -10.501000     22.470000      6.890000
C         -10.804000     20.240000      6.124000
S          -9.694000     23.983000      6.637000
C         -10.221000     21.477000      5.957000
C         -10.558000     19.053000      5.398000
C          -8.786000     23.172000      5.322000
C          -9.137000     21.921000      5.139000
N         -11.193000     18.011000      5.823000
S          -9.839000     19.025000      3.799000
C         -10.909000     16.951000      4.973000
C         -10.125000     17.237000      3.908000
C         -14.258000     24.898000     17.179000
H         -15.843000     25.108000     14.848000
H         -15.127000     24.241000     12.527000
H         -11.211000     23.424000     14.201000
H         -14.029000     21.784000     11.303000
H          -7.960000     23.685000      4.848000
H          -8.577000     21.316000      4.435000
H         -11.366000     15.990000      5.163000
H          -9.759000     16.568000      3.140000
H         -15.091000     24.260000     17.499000
C         -14.504000     26.358000     17.480000
H         -13.436000     24.559000     17.822000
H         -15.231000     26.732000     16.749000
H         -13.529000     26.764000     17.182000
C         -14.855000     26.709000     18.928000
H         -15.885000     26.429000     19.180000
C         -14.711000     28.253000     19.086000
H         -14.132000     26.310000     19.649000
H         -15.429000     28.725000     18.405000
H         -13.673000     28.569000     18.924000
C         -15.092000     28.689000     20.486000
H         -15.258000     29.770000     20.393000
C         -14.040000     28.482000     21.623000
H         -16.060000     28.315000     20.841000
H         -13.081000     28.812000     21.205000
H         -13.891000     27.422000     21.864000
H         -14.352000     29.110000     22.466000
$end

--------------------------------------------------------------

             Standard Nuclear Orientation (Angstroms)
    I     Atom           X                Y                Z
 ----------------------------------------------------------------
    1      C      -6.9119520157     1.4242999778    -0.7088000366
    2      C      -6.5992438520     0.8393793992    -1.9217582062
    3      N      -6.0553406469     1.4501896541     0.2813997854
    4      C      -5.3435882208     0.2170248805    -2.0689308562
    5      C      -4.8411473236     0.9104559088     0.1189403818
    6      C      -4.4179855531     0.4412198878    -1.1270342057
    7      C      -2.9926895523    -0.0538259152    -1.3181230933
    8      C      -2.7486787828    -1.2532486161    -1.9320847606
    9      C      -1.8732771349     0.7290645226    -1.0879505444
   10      N      -1.5530633701    -1.7696158325    -2.1103196694
   11      N      -2.0208632084     2.0356834818    -0.6790260450
   12      C      -0.6652409397     0.3048338742    -1.3853474312
   13      C      -0.4723568559    -1.0107409319    -1.8243698220
   14      S      -0.4731263268     2.5661207637    -0.5677927975
   15      N       0.2856219644     1.2756909453    -1.1653536016
   16      C       0.7614421399    -1.6434478957    -2.1920013443
   17      S       2.1869995893    -0.7652551118    -2.5574769148
   18      C       0.9872118027    -2.9779920840    -2.0467124299
   19      C       3.1656395835    -2.2650421224    -2.4729092816
   20      S      -0.0052571540    -4.3236777437    -1.5525287847
   21      C       2.3266161070    -3.3347174579    -2.1593406565
   22      C       4.6443796095    -2.1727240773    -2.3811688106
   23      C       1.4154514621    -5.4059612035    -1.6365200983
   24      C       2.5536696495    -4.6893471088    -2.0150139518
   25      N       5.3762173103    -3.3010830523    -2.2998939484
   26      S       5.5701412188    -0.7263400843    -2.5814630626
   27      C       6.6890063099    -3.0303477678    -2.4489055190
   28      C       7.0374873779    -1.7188815784    -2.6006367923
   29      C      -8.1729473354     2.3278365707    -0.5829611361
   30      H      -7.3981742185     0.9455108981    -2.6496980212
   31      H      -5.0607951702    -0.1575114570    -3.0481272729
   32      H      -4.1086816898     1.0938446222     0.9035413473
   33      H      -3.5707607678    -1.9421360803    -2.1189785047
   34      H       1.2403239937    -6.4516802694    -1.4204460253
   35      H       3.4876458277    -5.1077418614    -2.3727685178
   36      H       7.4147860192    -3.8259352028    -2.5553735739
   37      H       7.9925045972    -1.3214675275    -2.9166987846
   38      H      -9.0252173614     1.9793910778    -1.1779699943
   39      C      -7.8570513961     3.7839032401    -0.9677008010
   40      H      -8.6390713686     2.1360177789     0.3911738324
   41      H      -7.1384301561     4.1384986614    -0.2189968538
   42      H      -8.7780230177     4.3570737196    -0.8053774400
   43      C      -7.1672643574     4.0083417050    -2.3274324719
   44      H      -6.1491925444     3.6007239246    -2.3396197057
   45      C      -7.1061421671     5.5394055371    -2.5837713486
   46      H      -7.7901371849     3.4922317251    -3.0688364976
   47      H      -6.6623830166     5.9901727533    -1.6870173504
   48      H      -8.1178431185     5.9475343769    -2.6953465927
   49      C      -6.2747298601     5.7390245646    -3.8132406730
   50      H      -5.2995833727     5.2403307771    -3.8616021709
   51      C      -6.1968435579     7.2507429975    -3.8876187845
   52      H      -6.9136346037     5.3530241130    -4.6168900866
   53      H      -7.2095639735     7.5825471668    -4.1460357985
   54      H      -5.5006845830     7.5216944857    -4.6913954778
   55      H      -5.8353467606     7.6726431487    -2.9418178922
   56      C       6.4912993782     0.6950663010     0.5260215364
   57      C       6.2935575068    -0.4491954700     1.2567876766
   58      N       5.4917921501     1.4725193459     0.0502925548
   59      C       4.9367917304    -0.8282012423     1.5369577184
   60      C       4.2069426916     1.1536916914     0.2833071372
   61      C       3.8864720828    -0.0158577082     1.0341778257
   62      C       2.4571362629    -0.2467336904     1.4677172064
   63      C       1.7618706723    -1.4159904198     1.2686180870
   64      C       1.7173333618     0.7322386696     2.2202242070
   65      N       0.5239883972    -1.6988027037     1.6709459199
   66      N       2.1363250050     1.9351067279     2.6055596938
   67      C       0.4551354616     0.4588131379     2.6519057322
   68      C      -0.2034446318    -0.7615651236     2.2884966520
   69      S       0.9370907342     2.7043342952     3.3549141582
   70      N      -0.1531125064     1.5288584719     3.3084439204
   71      C      -1.6423893651    -1.1401668697     2.4058924458
   72      S      -2.3286719540    -2.3162389951     1.2521400616
   73      C      -2.7074651780    -0.7195518453     3.1898417516
   74      C      -3.9986137365    -2.2237279657     1.8776471780
   75      S      -2.7282826280     0.5058036004     4.4156058665
   76      C      -3.9443417974    -1.2699765422     2.8703000774
   77      C      -5.1425673540    -2.8092484225     1.2901976776
   78      C      -4.5164695743     0.4068290279     4.3523486215
   79      C      -4.9604624312    -0.4933674319     3.5072405357
   80      N      -4.9006317637    -3.6245824101     0.3174121623
   81      S      -6.7221006520    -2.8283297734     2.0512866755
   82      C      -6.1055716269    -4.1699345170    -0.1038561674
   83      C      -7.2023972604    -3.8000303207     0.5967303121
   84      C       7.8817731131     1.0938633574    -0.0433164128
   85      H       7.1203538111    -0.9828619396     1.7166093491
   86      H       4.6755622791    -1.6386322998     2.2109226099
   87      H       3.4355282026     1.8394457142    -0.0628649392
   88      H       2.1903567050    -2.2641222489     0.7367636707
   89      H      -5.1110017770     1.1302674932     4.8939104803
   90      H      -6.0267038257    -0.5601184926     3.3230814071
   91      H      -6.1012232882    -4.8917601068    -0.9084796259
   92      H      -8.2351839949    -4.0774845434     0.4302619508
   93      H       8.3168610758     0.2528845615    -0.5971991889
   94      C       8.8228949813     1.6397081178     1.0050442727
   95      H       7.7685970442     1.8597843699    -0.8208832458
   96      H       8.8334659127     0.9340643856     1.8445210018
   97      H       8.2332657459     2.5043263553     1.3352527950
   98      C      10.2196363375     2.0446258369     0.5272773583
   99      H      10.8560739760     1.1726025487     0.3340766410
  100      C      10.8759855228     2.8933331783     1.6580017260
  101      H      10.1938827019     2.7323856429    -0.3260070019
  102      H      10.9576631352     2.2563463788     2.5466217713
  103      H      10.3157355811     3.8211316272     1.8278664989
  104      C      12.2879495962     3.2927505505     1.2810664290
  105      H      12.7438418833     3.5923629933     2.2335162212
  106      C      12.4648457591     4.4887852507     0.2908489056
  107      H      12.9284618428     2.4690439189     0.9431663742
  108      H      11.7653248244     5.2624830221     0.6305064101
  109      H      12.1354229829     4.2395570016    -0.7256391240
  110      H      13.5067592501     4.8206200305     0.3725737874
 ----------------------------------------------------------------

   11   -5663.4813106797      9.40E-06 Convergence criterion met
 Total energy in the final basis set = -5663.4813106797

                    Orbital Energies (a.u.)
 --------------------------------------------------------------

 Alpha MOs
 -- Occupied --
-88.993 -88.992 -88.926 -88.919 -88.918 -88.912 -88.901 -88.901
-14.384 -14.383 -14.378 -14.372 -14.342 -14.340 -14.338 -14.333
-14.324 -14.319 -10.266 -10.266 -10.265 -10.256 -10.253 -10.252
-10.246 -10.242 -10.241 -10.240 -10.233 -10.230 -10.229 -10.228
-10.227 -10.226 -10.225 -10.225 -10.224 -10.221 -10.221 -10.220
-10.219 -10.219 -10.217 -10.216 -10.216 -10.215 -10.215 -10.209
-10.204 -10.203 -10.201 -10.200 -10.200 -10.191 -10.190 -10.189
-10.180 -10.179 -10.176 -10.176 -10.175 -10.175 -10.174 -10.173
-10.173 -10.172 -10.171 -10.167  -8.048  -8.047  -7.986  -7.979
 -7.979  -7.970  -7.962  -7.961  -6.013  -6.012  -6.008  -6.007
 -6.006  -6.005  -5.950  -5.947  -5.943  -5.943  -5.942  -5.939
 -5.939  -5.936  -5.936  -5.935  -5.931  -5.927  -5.927  -5.925
 -5.923  -5.922  -5.918  -5.917  -1.044  -1.040  -0.975  -0.965
 -0.962  -0.959  -0.945  -0.932  -0.913  -0.912  -0.896  -0.894
 -0.843  -0.842  -0.837  -0.828  -0.815  -0.810  -0.809  -0.806
 -0.799  -0.797  -0.794  -0.793  -0.785  -0.784  -0.768  -0.764
 -0.749  -0.747  -0.743  -0.738  -0.722  -0.718  -0.707  -0.707
 -0.695  -0.692  -0.676  -0.671  -0.651  -0.649  -0.644  -0.640
 -0.635  -0.633  -0.629  -0.626  -0.611  -0.608  -0.600  -0.594
 -0.590  -0.585  -0.578  -0.577  -0.576  -0.571  -0.567  -0.561
 -0.550  -0.546  -0.538  -0.537  -0.523  -0.518  -0.516  -0.508
 -0.504  -0.504  -0.501  -0.494  -0.487  -0.485  -0.482  -0.478
 -0.473  -0.472  -0.471  -0.468  -0.466  -0.461  -0.448  -0.444
 -0.443  -0.442  -0.438  -0.435  -0.435  -0.432  -0.431  -0.430
 -0.429  -0.425  -0.423  -0.418  -0.417  -0.415  -0.414  -0.412
 -0.408  -0.405  -0.403  -0.403  -0.399  -0.399  -0.397  -0.396
 -0.393  -0.391  -0.388  -0.388  -0.387  -0.384  -0.379  -0.379
 -0.376  -0.375  -0.371  -0.364  -0.363  -0.360  -0.357  -0.354
 -0.350  -0.349  -0.347  -0.346  -0.343  -0.341  -0.338  -0.338
 -0.336  -0.330  -0.327  -0.327  -0.326  -0.325  -0.324  -0.320
 -0.317  -0.308  -0.306  -0.303  -0.302  -0.300  -0.298  -0.295
 -0.293  -0.290  -0.289  -0.283  -0.282  -0.280  -0.276  -0.274
 -0.272  -0.269  -0.265  -0.260  -0.254  -0.248  -0.245  -0.242
 -0.240  -0.239  -0.236  -0.228  -0.195  -0.187

          Ground-State Mulliken Net Atomic Charges

     Atom                 Charge (a.u.)
  ----------------------------------------
      1 C                     0.258609
      2 C                    -0.108549
      3 N                    -0.462159
      4 C                    -0.091363
      5 C                     0.070266
      6 C                     0.059726
      7 C                     0.021637
      8 C                     0.055228
      9 C                     0.216792
     10 N                    -0.499029
     11 N                    -0.546540
     12 C                     0.231903
     13 C                     0.270037
     14 S                     0.611025
     15 N                    -0.574007
     16 C                    -0.203035
     17 S                     0.314494
     18 C                    -0.098794
     19 C                    -0.236959
     20 S                     0.293431
     21 C                     0.143897
     22 C                     0.045437
     23 C                    -0.324744
     24 C                    -0.050868
     25 N                    -0.437970
     26 S                     0.284568
     27 C                     0.131905
     28 C                    -0.320995
     29 C                    -0.229734
     30 H                     0.086519
     31 H                     0.099125
     32 H                     0.120674
     33 H                     0.116698
     34 H                     0.136632
     35 H                     0.125572
     36 H                     0.108404
     37 H                     0.131376
     38 H                     0.082937
     39 C                    -0.173630
     40 H                     0.103225
     41 H                     0.110188
     42 H                     0.088085
     43 C                    -0.181163
     44 H                     0.109519
     45 C                    -0.167947
     46 H                     0.081723
     47 H                     0.093420
     48 H                     0.093938
     49 C                    -0.174563
     50 H                     0.096331
     51 C                    -0.307092
     52 H                     0.094753
     53 H                     0.101870
     54 H                     0.086941
     55 H                     0.102871
     56 C                     0.269783
     57 C                    -0.104965
     58 N                    -0.481769
     59 C                    -0.071466
     60 C                     0.105156
     61 C                     0.020137
     62 C                     0.035681
     63 C                     0.039998
     64 C                     0.261387
     65 N                    -0.501125
     66 N                    -0.561949
     67 C                     0.171623
     68 C                     0.285432
     69 S                     0.617766
     70 N                    -0.547695
     71 C                    -0.250686
     72 S                     0.354752
     73 C                    -0.116725
     74 C                    -0.224206
     75 S                     0.264624
     76 C                     0.116655
     77 C                     0.085217
     78 C                    -0.300528
     79 C                    -0.054847
     80 N                    -0.436652
     81 S                     0.259457
     82 C                     0.128266
     83 C                    -0.302635
     84 C                    -0.226237
     85 H                     0.095525
     86 H                     0.106861
     87 H                     0.118898
     88 H                     0.123547
     89 H                     0.126410
     90 H                     0.120775
     91 H                     0.116049
     92 H                     0.130602
     93 H                     0.092658
     94 C                    -0.176410
     95 H                     0.112010
     96 H                     0.087229
     97 H                     0.106364
     98 C                    -0.171865
     99 H                     0.092256
    100 C                    -0.168309
    101 H                     0.095545
    102 H                     0.090902
    103 H                     0.094036
    104 C                    -0.184711
    105 H                     0.085440
    106 C                    -0.316443
    107 H                     0.087008
    108 H                     0.099887
    109 H                     0.104329
    110 H                     0.106341
  ----------------------------------------
  Sum of atomic charges =     0.000000

                    Cartesian Multipole Moments
 -----------------------------------------------------------------
    Charge (ESU x 10^10)
                 0.0000
    Dipole Moment (Debye)
         X      -1.0586      Y       0.4797      Z       0.2107
       Tot       1.1811
    Quadrupole Moments (Debye-Ang)
        XX    -383.2268     XY      -0.3270     YY    -438.8427
        XZ       8.1755     YZ       4.1899     ZZ    -442.3381

 Total job time:  126.91s(wall), 1508.30s(cpu)
        *  Thank you very much for using Q-Chem.  Have a nice day.  *
