 Q-Chem 4.4, Q-Chem, Inc., Pleasanton, CA (2016)
 Q-Chem 4.4.2 for Intel X86 Linux

User input:
--------------------------------------------------------------
$comment
SP
$end

$rem
MEM_STATIC 5000
MEM_TOTAL 20000
JOBTYPE SP
EXCHANGE B3LYP
BASIS 6-31g(d,p)
$end

$molecule
0 1
C          25.986000     25.435000     -2.987000
C          25.345000     24.180000     -3.075000
N          25.314000     26.510000     -2.500000
C          24.087000     23.983000     -2.629000
C          24.060000     26.349000     -2.048000
C          23.382000     25.083000     -2.151000
C          21.895000     24.858000     -1.886000
C          21.459000     23.763000     -1.188000
C          20.958000     25.835000     -2.239000
N          20.174000     23.541000     -0.923000
N          21.222000     27.002000     -2.757000
C          19.620000     25.628000     -1.901000
C          19.193000     24.387000     -1.304000
S          19.783000     27.680000     -2.922000
N          18.781000     26.543000     -2.286000
C          17.758000     23.973000     -1.316000
S          16.516000     24.544000     -2.436000
C          17.287000     22.892000     -0.591000
C          15.379000     23.355000     -1.885000
S          18.097000     21.719000      0.404000
C          15.981000     22.542000     -0.903000
C          14.164000     23.136000     -2.646000
C          16.568000     20.731000      0.484000
C          15.594000     21.330000     -0.273000
N          13.259000     22.442000     -2.009000
S          14.127000     23.214000     -4.423000
C          12.223000     22.237000     -2.896000
C          12.560000     22.608000     -4.176000
C          27.419000     25.644000     -3.518000
H          25.951000     23.386000     -3.503000
H          23.649000     22.991000     -2.581000
H          23.494000     27.234000     -1.759000
H          22.020000     22.917000     -0.795000
H          16.498000     19.849000      1.108000
H          14.570000     20.977000     -0.312000
H          11.266000     21.781000     -2.681000
H          11.797000     22.540000     -4.940000
H          27.669000     24.814000     -4.190000
C          28.287000     25.683000     -2.245000
H          27.523000     26.486000     -4.214000
H          28.087000     24.710000     -1.780000
H          28.068000     26.474000     -1.517000
C          29.774000     25.778000     -2.534000
H          30.307000     25.580000     -1.596000
C          30.184000     27.177000     -3.096000
H          30.042000     25.032000     -3.292000
H          29.877000     27.976000     -2.410000
H          29.531000     27.343000     -3.962000
C          31.691000     27.314000     -3.388000
H          31.891000     28.388000     -3.299000
C          32.114000     26.799000     -4.767000
H          32.289000     26.858000     -2.589000
H          31.760000     25.766000     -4.872000
H          33.183000     26.570000     -4.858000
H          31.886000     27.464000     -5.609000
C          26.813000     14.785000    -15.461000
C          27.307000     16.059000    -15.108000
N          26.090000     13.961000    -14.658000
C          27.016000     16.482000    -13.743000
C          25.964000     14.306000    -13.383000
C          26.329000     15.594000    -12.863000
C          26.149000     15.945000    -11.373000
C          26.746000     15.235000    -10.298000
C          25.759000     17.261000    -10.976000
N          26.779000     15.549000     -8.975000
N          25.460000     18.225000    -11.841000
C          25.783000     17.645000     -9.677000
C          26.276000     16.796000     -8.633000
S          25.207000     19.588000    -10.966000
N          25.481000     18.990000     -9.523000
C          26.255000     17.184000     -7.201000
S          25.209000     18.375000     -6.493000
C          26.964000     16.480000     -6.210000
C          25.784000     18.070000     -4.873000
S          27.916000     15.115000     -6.204000
C          26.731000     17.083000     -4.962000
C          25.387000     18.781000     -3.722000
C          28.054000     15.254000     -4.444000
C          27.354000     16.325000     -3.927000
N          24.486000     19.700000     -3.934000
S          25.657000     18.287000     -2.067000
C          24.004000     20.190000     -2.755000
C          24.643000     19.627000     -1.651000
C          27.042000     14.340000    -16.899000
H          27.971000     16.602000    -15.774000
H          27.337000     17.464000    -13.408000
H          25.491000     13.600000    -12.702000
H          27.223000     14.289000    -10.552000
H          28.665000     14.548000     -3.896000
H          27.308000     16.476000     -2.855000
H          23.256000     20.966000     -2.848000
H          24.583000     19.936000     -0.615000
H          26.328000     13.536000    -17.116000
C          28.423000     13.711000    -17.181000
H          26.833000     15.191000    -17.559000
H          29.246000     14.313000    -16.776000
H          28.673000     13.762000    -18.248000
C          28.538000     12.189000    -16.738000
H          29.587000     11.958000    -16.517000
C          28.092000     11.279000    -17.854000
H          27.946000     12.065000    -15.822000
H          28.913000     11.051000    -18.545000
H          27.147000     11.576000    -18.326000
C          27.596000      9.999000    -17.150000
H          28.481000      9.464000    -16.785000
C          26.738000      9.007000    -17.968000
H          27.031000     10.236000    -16.240000
H          26.933000      8.874000    -19.039000
H          25.680000      9.269000    -17.846000
H          26.884000      8.036000    -17.479000
$end

--------------------------------------------------------------

             Standard Nuclear Orientation (Angstroms)
    I     Atom           X                Y                Z
 ----------------------------------------------------------------
    1      C      -3.7751479744     5.0176157959    -1.2053081400
    2      C      -3.3017433309     3.9198568822    -0.4540003396
    3      N      -5.0345585651     5.0024724568    -1.7132782606
    4      C      -4.0834456433     2.8604452889    -0.1592503258
    5      C      -5.8389816052     3.9629270948    -1.4394352163
    6      C      -5.3667623961     2.8243918505    -0.6952608308
    7      C      -6.1197018425     1.5056128665    -0.5342540568
    8      C      -6.1670514926     0.8614261568     0.6736807484
    9      C      -6.8860895926     0.9956607733    -1.5876797444
   10      N      -6.8260415270    -0.2799466719     0.8573494734
   11      N      -7.0819190051     1.5672829420    -2.7430186286
   12      C      -7.6276423271    -0.1663581485    -1.3705425358
   13      C      -7.5195666431    -0.8895101631    -0.1278881952
   14      S      -8.0408589218     0.5467526514    -3.5154059424
   15      N      -8.2907175040    -0.6248090294    -2.3901135729
   16      C      -7.9542660894    -2.3142258845    -0.0184052993
   17      S      -8.1192309775    -3.4609182859    -1.3529045022
   18      C      -8.0442805540    -2.9760071419     1.1940178792
   19      C      -8.3463576434    -4.7941824306    -0.2662071211
   20      S      -7.6557723323    -2.4865156731     2.8162119069
   21      C      -8.2536279496    -4.3417408103     1.0658569855
   22      C      -8.2869152982    -6.1462014542    -0.7875689605
   23      C      -7.8681747937    -4.2044241156     3.3854752709
   24      C      -8.1652974219    -5.0093210454     2.3157159166
   25      N      -8.7449694890    -7.0510032727     0.0358082480
   26      S      -7.1592084303    -6.6191479779    -2.0797689473
   27      C      -8.5243959944    -8.2746765472    -0.5609002660
   28      C      -7.7199917821    -8.1689253504    -1.6705671294
   29      C      -2.8605176852     6.2119698395    -1.5460438921
   30      H      -2.2738711049     4.0085112866    -0.1127158784
   31      H      -3.7554422174     2.0838980293     0.5245625918
   32      H      -6.8069034479     3.9095474986    -1.9368082404
   33      H      -5.6804706808     1.1078786718     1.6156925697
   34      H      -7.8145087054    -4.4616311748     4.4357916421
   35      H      -8.4221725288    -6.0577187989     2.4136104005
   36      H      -8.8606837494    -9.2393648109    -0.2055172336
   37      H      -7.5308718122    -9.0655300587    -2.2457389594
   38      H      -1.8172676776     5.9104502074    -1.3920980151
   39      C      -3.3241381526     7.3236431701    -0.5844241813
   40      H      -2.8269850666     6.4632531784    -2.6137181155
   41      H      -3.1735086296     6.8733961425     0.4042832380
   42      H      -4.3678896542     7.6510827907    -0.6680429463
   43      C      -2.4807484674     8.5826600165    -0.6697788490
   44      H      -2.7431100628     9.2157369967     0.1866771805
   45      C      -2.7107112820     9.3651705146    -2.0024226214
   46      H      -1.4194502133     8.3084523407    -0.6328984144
   47      H      -3.7725935489     9.6079731877    -2.1316468957
   48      H      -2.5350822831     8.6334492155    -2.8009584035
   49      C      -1.8798714661    10.6580774801    -2.1172214838
   50      H      -2.4592403858    11.2971657431    -2.7934572762
   51      C      -0.4615198340    10.4487078512    -2.6559589024
   52      H      -1.8707608101    11.2049340419    -1.1660086281
   53      H       0.0321707553     9.6878867993    -2.0388276936
   54      H       0.2367075247    11.2628022765    -2.4252820240
   55      H      -0.3861889870    10.2989235238    -3.7399620937
   56      C      11.0624035229    -1.9522293295    -2.1929464809
   57      C      10.3310688773    -0.9043818998    -2.7920177623
   58      N      10.6537718558    -2.7075196156    -1.1398222032
   59      C       9.0372440559    -0.6213876934    -2.1814716045
   60      C       9.5429809505    -2.3365884156    -0.5160597407
   61      C       8.6307213843    -1.3510759537    -1.0250947801
   62      C       7.3469620808    -0.9675846547    -0.2631253093
   63      C       7.3161201755    -0.4524729746     1.0596909039
   64      C       6.1434784522    -0.6617683965    -0.9699976966
   65      N       6.2662272032     0.0571701441     1.7582627600
   66      N       6.0295103978    -0.7568246316    -2.2909434165
   67      C       5.0653424138    -0.1376170065    -0.3388709240
   68      C       5.0855335383     0.2214714309     1.0483687137
   69      S       4.5439547243    -0.1850718104    -2.6828950107
   70      N       4.0496524063     0.1922148795    -1.2240430744
   71      C       3.8947419696     0.7433980749     1.7633631320
   72      S       2.2438585192     0.5084886833     1.2803906576
   73      C       3.9697549947     1.3363091561     3.0374147384
   74      C       1.6059493884     1.3156822201     2.6909084828
   75      S       5.1975897574     1.6077249348     4.1275157753
   76      C       2.6787525235     1.7126724380     3.4461509606
   77      C       0.2404349087     1.5675543425     2.9355748669
   78      C       4.0049412282     2.2533363719     5.2662608556
   79      C       2.7144709998     2.2201107952     4.7784979515
   80      N      -0.5701304078     1.1026926484     2.0255235094
   81      S      -0.4572185433     2.0404492925     4.4671136444
   82      C      -1.8682025800     1.1971380010     2.4360764429
   83      C      -1.9826783713     1.8169523717     3.6797932270
   84      C      12.3883328816    -2.3177489179    -2.8461055474
   85      H      10.7808004773    -0.2794830751    -3.5578793339
   86      H       8.4030995353     0.1508946645    -2.6069486152
   87      H       9.2669231144    -2.8578439572     0.3993695200
   88      H       8.2533580649    -0.4924508548     1.6137197009
   89      H       4.3313138955     2.6421121247     6.2225010431
   90      H       1.8884919722     2.5271573744     5.4090390240
   91      H      -2.6041709334     0.8386551233     1.7288497402
   92      H      -2.8815830001     2.1670870194     4.1714772686
   93      H      12.6555002337    -3.3283103138    -2.5134070787
   94      C      13.5910746345    -1.4465914538    -2.4256023387
   95      H      12.2443761892    -2.3261767922    -3.9336198883
   96      H      13.3652216951    -0.3738963426    -2.4711396668
   97      H      14.3947435119    -1.4914483534    -3.1710513269
   98      C      14.2197300257    -1.8533821531    -1.0237208437
   99      H      14.7007183646    -0.9745561266    -0.5777185648
  100      C      15.2764284575    -2.9128757074    -1.2062963972
  101      H      13.3969672811    -2.1769422077    -0.3731316053
  102      H      16.2583852949    -2.4742712725    -1.4228441268
  103      H      14.9749982107    -3.7406676432    -1.8604510558
  104      C      15.3024943140    -3.6837561408     0.1297784242
  105      H      15.7833277185    -3.0344790436     0.8713399444
  106      C      16.0114517122    -5.0569730835     0.1615059484
  107      H      14.2899882308    -3.8371380412     0.5232240038
  108      H      16.8970277888    -5.2264124785    -0.4628339462
  109      H      15.2787955440    -5.8396777169    -0.0697523400
  110      H      16.3087301462    -5.1982506199     1.2079017581
 ----------------------------------------------------------------

    9   -5663.4909194083      6.36E-06 Convergence criterion met
 Total energy in the final basis set = -5663.4909194083

                    Orbital Energies (a.u.)
 --------------------------------------------------------------

 Alpha MOs
 -- Occupied --
-88.990 -88.982 -88.936 -88.936 -88.928 -88.925 -88.916 -88.907
-14.386 -14.383 -14.382 -14.370 -14.356 -14.349 -14.344 -14.342
-14.331 -14.326 -10.270 -10.269 -10.268 -10.262 -10.252 -10.249
-10.247 -10.247 -10.242 -10.242 -10.241 -10.240 -10.238 -10.237
-10.236 -10.235 -10.230 -10.229 -10.229 -10.229 -10.228 -10.228
-10.227 -10.226 -10.226 -10.225 -10.225 -10.221 -10.218 -10.218
-10.211 -10.209 -10.209 -10.206 -10.204 -10.201 -10.196 -10.191
-10.188 -10.181 -10.179 -10.178 -10.177 -10.173 -10.173 -10.172
-10.171 -10.171 -10.169 -10.166  -8.046  -8.039  -7.998  -7.998
 -7.987  -7.984  -7.977  -7.966  -6.011  -6.005  -6.004  -6.004
 -5.998  -5.996  -5.962  -5.961  -5.959  -5.958  -5.955  -5.954
 -5.951  -5.948  -5.948  -5.944  -5.944  -5.941  -5.941  -5.938
 -5.934  -5.931  -5.927  -5.922  -1.061  -1.043  -0.984  -0.981
 -0.958  -0.948  -0.937  -0.933  -0.928  -0.921  -0.912  -0.899
 -0.856  -0.844  -0.832  -0.824  -0.821  -0.818  -0.810  -0.806
 -0.806  -0.804  -0.797  -0.795  -0.783  -0.779  -0.767  -0.763
 -0.753  -0.746  -0.738  -0.738  -0.727  -0.727  -0.710  -0.707
 -0.695  -0.691  -0.675  -0.674  -0.657  -0.649  -0.645  -0.641
 -0.637  -0.632  -0.626  -0.624  -0.614  -0.613  -0.604  -0.596
 -0.595  -0.588  -0.587  -0.583  -0.581  -0.572  -0.564  -0.558
 -0.555  -0.546  -0.543  -0.541  -0.527  -0.525  -0.520  -0.513
 -0.508  -0.504  -0.501  -0.498  -0.488  -0.487  -0.482  -0.477
 -0.477  -0.473  -0.470  -0.465  -0.465  -0.459  -0.449  -0.448
 -0.444  -0.444  -0.441  -0.439  -0.438  -0.437  -0.434  -0.433
 -0.429  -0.428  -0.422  -0.419  -0.417  -0.414  -0.414  -0.413
 -0.410  -0.408  -0.406  -0.405  -0.403  -0.401  -0.399  -0.397
 -0.395  -0.394  -0.392  -0.390  -0.389  -0.388  -0.385  -0.382
 -0.380  -0.379  -0.377  -0.370  -0.367  -0.361  -0.359  -0.357
 -0.355  -0.353  -0.351  -0.349  -0.344  -0.344  -0.343  -0.341
 -0.338  -0.336  -0.335  -0.334  -0.330  -0.327  -0.324  -0.321
 -0.315  -0.313  -0.309  -0.307  -0.306  -0.302  -0.300  -0.300
 -0.297  -0.296  -0.294  -0.291  -0.289  -0.286  -0.284  -0.283
 -0.278  -0.269  -0.264  -0.261  -0.259  -0.252  -0.251  -0.247
 -0.245  -0.243  -0.236  -0.230  -0.197  -0.195

          Ground-State Mulliken Net Atomic Charges

     Atom                 Charge (a.u.)
  ----------------------------------------
      1 C                     0.255570
      2 C                    -0.124575
      3 N                    -0.482151
      4 C                    -0.036631
      5 C                     0.092065
      6 C                     0.008233
      7 C                     0.017565
      8 C                     0.046104
      9 C                     0.257956
     10 N                    -0.515793
     11 N                    -0.532329
     12 C                     0.170543
     13 C                     0.301431
     14 S                     0.576911
     15 N                    -0.548813
     16 C                    -0.214160
     17 S                     0.322938
     18 C                    -0.113415
     19 C                    -0.236182
     20 S                     0.264667
     21 C                     0.160098
     22 C                     0.056028
     23 C                    -0.316092
     24 C                    -0.049452
     25 N                    -0.418792
     26 S                     0.295457
     27 C                     0.115304
     28 C                    -0.291630
     29 C                    -0.214904
     30 H                     0.089000
     31 H                     0.079467
     32 H                     0.116883
     33 H                     0.111355
     34 H                     0.133611
     35 H                     0.122127
     36 H                     0.118083
     37 H                     0.121612
     38 H                     0.097877
     39 C                    -0.170362
     40 H                     0.118025
     41 H                     0.090390
     42 H                     0.117157
     43 C                    -0.177558
     44 H                     0.085166
     45 C                    -0.174762
     46 H                     0.087576
     47 H                     0.088552
     48 H                     0.092385
     49 C                    -0.173331
     50 H                     0.090887
     51 C                    -0.319685
     52 H                     0.093853
     53 H                     0.101988
     54 H                     0.096513
     55 H                     0.108273
     56 C                     0.275099
     57 C                    -0.111786
     58 N                    -0.472720
     59 C                    -0.061673
     60 C                     0.076827
     61 C                     0.028896
     62 C                     0.014587
     63 C                     0.064683
     64 C                     0.235072
     65 N                    -0.512628
     66 N                    -0.571677
     67 C                     0.175183
     68 C                     0.288262
     69 S                     0.610984
     70 N                    -0.529262
     71 C                    -0.230425
     72 S                     0.366168
     73 C                    -0.091995
     74 C                    -0.202217
     75 S                     0.300099
     76 C                     0.104339
     77 C                     0.070271
     78 C                    -0.315498
     79 C                    -0.079414
     80 N                    -0.426699
     81 S                     0.291219
     82 C                     0.120081
     83 C                    -0.327821
     84 C                    -0.237930
     85 H                     0.101696
     86 H                     0.109819
     87 H                     0.102705
     88 H                     0.108145
     89 H                     0.128146
     90 H                     0.115834
     91 H                     0.123519
     92 H                     0.136300
     93 H                     0.116437
     94 C                    -0.185006
     95 H                     0.100908
     96 H                     0.080542
     97 H                     0.091757
     98 C                    -0.185344
     99 H                     0.090531
    100 C                    -0.165527
    101 H                     0.115911
    102 H                     0.096378
    103 H                     0.097861
    104 C                    -0.186988
    105 H                     0.086678
    106 C                    -0.329914
    107 H                     0.103809
    108 H                     0.100401
    109 H                     0.103978
    110 H                     0.100362
  ----------------------------------------
  Sum of atomic charges =     0.000000

                    Cartesian Multipole Moments
 -----------------------------------------------------------------
    Charge (ESU x 10^10)
                 0.0000
    Dipole Moment (Debye)
         X      -0.0409      Y      -0.2960      Z       0.7339
       Tot       0.7924
    Quadrupole Moments (Debye-Ang)
        XX    -470.9870     XY      38.8391     YY    -424.6108
        XZ      -8.2999     YZ      16.4264     ZZ    -415.5102

 Total job time:  79.97s(wall), 932.89s(cpu)
        *  Thank you very much for using Q-Chem.  Have a nice day.  *
