 Q-Chem 4.4, Q-Chem, Inc., Pleasanton, CA (2016)
 Q-Chem 4.4.2 for Intel X86 Linux

User input:
--------------------------------------------------------------
$comment
SP
$end

$rem
MEM_STATIC 5000
MEM_TOTAL 20000
JOBTYPE SP
EXCHANGE B3LYP
BASIS 6-31g(d,p)
$end

$molecule
0 1
C          16.387000     15.929000    -13.363000
C          16.984000     14.700000    -13.412000
N          16.950000     16.942000    -12.682000
C          18.176000     14.504000    -12.769000
C          18.111000     16.768000    -11.985000
C          18.867000     15.520000    -12.033000
C          20.054000     15.304000    -11.182000
C          20.096000     15.822000     -9.887000
C          21.143000     14.478000    -11.540000
N          21.065000     15.615000     -9.018000
N          21.227000     13.899000    -12.702000
C          22.241000     14.336000    -10.655000
C          22.153000     14.883000     -9.341000
S          22.707000     13.142000    -12.655000
N          23.228000     13.539000    -11.134000
C          23.152000     14.559000     -8.312000
S          24.425000     13.272000     -8.418000
C          23.152000     14.923000     -6.983000
C          24.868000     13.279000     -6.697000
S          22.350000     16.272000     -6.212000
C          24.059000     14.215000     -6.143000
C          25.960000     12.514000     -6.156000
C          23.176000     15.811000     -4.694000
C          24.108000     14.771000     -4.843000
N          26.699000     11.863000     -7.058000
S          26.393000     12.241000     -4.503000
C          27.760000     11.215000     -6.391000
C          27.758000     11.313000     -5.032000
C          15.061000     16.114000    -14.127000
H          16.538000     13.828000    -13.882000
H          18.623000     13.519000    -12.863000
H          18.423000     17.582000    -11.332000
H          19.277000     16.484000     -9.609000
H          22.891000     16.432000     -3.855000
H          24.810000     14.406000     -4.102000
H          28.426000     10.639000     -7.019000
H          28.380000     10.790000     -4.317000
H          14.563000     15.154000    -13.948000
C          15.143000     16.433000    -15.636000
H          14.437000     16.873000    -13.640000
H          15.600000     17.411000    -15.829000
H          14.094000     16.560000    -15.927000
C          15.849000     15.406000    -16.572000
H          16.914000     15.628000    -16.432000
C          15.624000     15.726000    -18.011000
H          15.703000     14.355000    -16.294000
H          16.415000     15.261000    -18.611000
H          15.815000     16.803000    -18.093000
C          14.258000     15.587000    -18.693000
H          13.427000     16.110000    -18.205000
C          13.765000     14.183000    -18.786000
H          14.310000     15.930000    -19.734000
H          13.794000     13.621000    -17.844000
H          14.415000     13.544000    -19.395000
H          12.769000     14.117000    -19.243000
C          26.813000     14.785000    -15.461000
C          27.307000     16.059000    -15.108000
N          26.090000     13.961000    -14.658000
C          27.016000     16.482000    -13.743000
C          25.964000     14.306000    -13.383000
C          26.329000     15.594000    -12.863000
C          26.149000     15.945000    -11.373000
C          26.746000     15.235000    -10.298000
C          25.759000     17.261000    -10.976000
N          26.779000     15.549000     -8.975000
N          25.460000     18.225000    -11.841000
C          25.783000     17.645000     -9.677000
C          26.276000     16.796000     -8.633000
S          25.207000     19.588000    -10.966000
N          25.481000     18.990000     -9.523000
C          26.255000     17.184000     -7.201000
S          25.209000     18.375000     -6.493000
C          26.964000     16.480000     -6.210000
C          25.784000     18.070000     -4.873000
S          27.916000     15.115000     -6.204000
C          26.731000     17.083000     -4.962000
C          25.387000     18.781000     -3.722000
C          28.054000     15.254000     -4.444000
C          27.354000     16.325000     -3.927000
N          24.486000     19.700000     -3.934000
S          25.657000     18.287000     -2.067000
C          24.004000     20.190000     -2.755000
C          24.643000     19.627000     -1.651000
C          27.042000     14.340000    -16.899000
H          27.971000     16.602000    -15.774000
H          27.337000     17.464000    -13.408000
H          25.491000     13.600000    -12.702000
H          27.223000     14.289000    -10.552000
H          28.665000     14.548000     -3.896000
H          27.308000     16.476000     -2.855000
H          23.256000     20.966000     -2.848000
H          24.583000     19.936000     -0.615000
H          26.328000     13.536000    -17.116000
C          28.423000     13.711000    -17.181000
H          26.833000     15.191000    -17.559000
H          29.246000     14.313000    -16.776000
H          28.673000     13.762000    -18.248000
C          28.538000     12.189000    -16.738000
H          29.587000     11.958000    -16.517000
C          28.092000     11.279000    -17.854000
H          27.946000     12.065000    -15.822000
H          28.913000     11.051000    -18.545000
H          27.147000     11.576000    -18.326000
C          27.596000      9.999000    -17.150000
H          28.481000      9.464000    -16.785000
C          26.738000      9.007000    -17.968000
H          27.031000     10.236000    -16.240000
H          26.933000      8.874000    -19.039000
H          25.680000      9.269000    -17.846000
H          26.884000      8.036000    -17.479000
$end

--------------------------------------------------------------

             Standard Nuclear Orientation (Angstroms)
    I     Atom           X                Y                Z
 ----------------------------------------------------------------
    1      C      -6.4854947432    -4.8534062723    -0.5275379294
    2      C      -6.3855826723    -3.8558124785    -1.4570943830
    3      N      -5.4855500966    -5.0907308929     0.3388838664
    4      C      -5.2574197925    -3.0822296370    -1.4964276248
    5      C      -4.3243638982    -4.3740534190     0.2938726334
    6      C      -4.1450897807    -3.2401475811    -0.6080488386
    7      C      -2.8452865463    -2.5509147765    -0.7317245963
    8      C      -1.6543541224    -3.2738693973    -0.6534329750
    9      C      -2.7040152033    -1.1838884523    -1.0598136642
   10      N      -0.4491496925    -2.7729278754    -0.8364927294
   11      N      -3.7257387561    -0.3906442020    -1.1990456329
   12      C      -1.4108665807    -0.6109900852    -1.1522641951
   13      C      -0.2661908390    -1.4591971868    -1.0905296085
   14      S      -3.0317620866     1.0943917626    -1.4796210523
   15      N      -1.4206069249     0.7129530953    -1.4453487911
   16      C       1.0748436014    -0.9549778297    -1.4209951433
   17      S       1.4631098661     0.6390391458    -2.1933248587
   18      C       2.2528962534    -1.6648325191    -1.5048716547
   19      C       3.1529326445     0.2654627689    -2.5971548578
   20      S       2.6782212030    -3.1834348028    -0.7496287857
   21      C       3.3355417803    -1.0013941921    -2.1508137956
   22      C       4.0681093673     1.2288879027    -3.1490910657
   23      C       4.3286955886    -2.9724564426    -1.4057868717
   24      C       4.5393216654    -1.7359968453    -2.0376328338
   25      N       3.5916894192     2.4725393767    -3.2484945083
   26      S       5.6579658045     0.9881336752    -3.7884821127
   27      C       4.6136752245     3.3104690749    -3.7423900789
   28      C       5.7810079672     2.6927293354    -4.0773839326
   29      C      -7.7862706535    -5.6800497963    -0.4985635344
   30      H      -7.1278563349    -3.6694743790    -2.2281377816
   31      H      -5.2399114949    -2.2850234709    -2.2333304597
   32      H      -3.5024720836    -4.7236854684     0.9172507492
   33      H      -1.7477526255    -4.3220110042    -0.3724260506
   34      H       4.9789431364    -3.8086420235    -1.1849729208
   35      H       5.4787290797    -1.3343190504    -2.3999568037
   36      H       4.3429274973     4.3485014694    -3.8798688636
   37      H       6.6366311408     3.1037162954    -4.5976114822
   38      H      -8.0149301127    -5.7762157841    -1.5663237858
   39      C      -8.9851697751    -5.1005803038     0.2840104260
   40      H      -7.5897731442    -6.6973692770    -0.1392923234
   41      H      -8.7869239969    -5.0389743992     1.3608044285
   42      H      -9.7503320998    -5.8798291186     0.1917667182
   43      C      -9.5570769592    -3.7187921239    -0.1551303242
   44      H      -8.8659456380    -3.0021474812     0.3051597505
   45      C     -10.8527793527    -3.4187664176     0.5193219596
   46      H      -9.5342340646    -3.5346822679    -1.2362328925
   47      H     -11.0213310248    -2.3355325088     0.5092903775
   48      H     -10.6826156566    -3.6599378756     1.5757379025
   49      C     -12.1471076170    -4.1830141139     0.2175922746
   50      H     -12.0864826027    -5.2744066292     0.3037374145
   51      C     -12.6632299742    -3.9819331884    -1.1666397052
   52      H     -12.9602386266    -3.8361791620     0.8676364865
   53      H     -11.9219733684    -4.1332983417    -1.9614203257
   54      H     -12.9343163035    -2.9397429852    -1.3717098945
   55      H     -13.5680557713    -4.5704184015    -1.3671301809
   56      C      -3.1074621853     4.9625383588     2.0508226032
   57      C      -2.3869918091     4.7039371894     3.2364738472
   58      N      -2.9022756887     4.3643169713     0.8480991632
   59      C      -1.3188181440     3.7188497167     3.1122052180
   60      C      -1.8368566723     3.5826598593     0.7280138654
   61      C      -1.0382934693     3.1427973327     1.8376925434
   62      C       0.1831878085     2.2236163164     1.6407388754
   63      C       1.3073822949     2.5363336459     0.8317094392
   64      C       0.4961371025     1.2115884396     2.5996066014
   65      N       2.4905331278     1.8758406739     0.7137385086
   66      N      -0.2640429145     0.9500760772     3.6582187240
   67      C       1.6635621272     0.5259545272     2.5500288873
   68      C       2.6900057960     0.8230066944     1.5950632310
   69      S       0.5313236923    -0.1724092748     4.5497463991
   70      N       1.8186031744    -0.3230603732     3.6358838375
   71      C       3.9481008257     0.0427673075     1.4949013851
   72      S       4.1746106521    -1.5840114892     2.0571691551
   73      C       5.0587504514     0.4797008874     0.7492979680
   74      C       5.8045395433    -1.6826237215     1.4393848583
   75      S       5.3683303173     1.7966972581    -0.2198490107
   76      C       6.0808345447    -0.4806663670     0.8411720282
   77      C       6.6748766287    -2.7782370561     1.6128085562
   78      C       6.9533519501     1.1060242368    -0.6027879106
   79      C       7.1779189208    -0.1106400845     0.0084629421
   80      N       6.1571220479    -3.7878438742     2.2561826830
   81      S       8.1541184806    -3.0637585571     0.7260831106
   82      C       6.9786978618    -4.8759139374     2.1963352137
   83      C       8.1684063776    -4.6002377493     1.5235036695
   84      C      -4.2722053076     5.9370669990     2.1602638594
   85      H      -2.5429625512     5.3085644486     4.1249557013
   86      H      -0.7404588102     3.4442694768     3.9895285181
   87      H      -1.5923730512     3.1920305020    -0.2586788245
   88      H       1.2093131394     3.4102124722     0.1885304301
   89      H       7.6371705365     1.6522191508    -1.2400667011
   90      H       8.0858450425    -0.6634990688    -0.2015801508
   91      H       6.6211560783    -5.7545374173     2.7164444845
   92      H       9.0595036790    -5.2124289776     1.4639679706
   93      H      -4.9269590111     5.7711338443     1.2959347693
   94      C      -3.8914440197     7.4301235631     2.0701032364
   95      H      -4.8271921747     5.7068578735     3.0781284114
   96      H      -3.0480470288     7.6856319270     2.7236741902
   97      H      -4.6644254197     8.0656816447     2.5197204960
   98      C      -3.6576552568     7.9446931432     0.5846676229
   99      H      -2.9657695297     8.7952855432     0.6044086888
  100      C      -4.9541683086     8.4204653338    -0.0196226459
  101      H      -3.1969948937     7.1247000723     0.0187176308
  102      H      -5.1534298539     9.4718266333     0.2221215461
  103      H      -5.7977129772     7.7344659020     0.1282123016
  104      C      -4.7778220397     8.2311530950    -1.5405088578
  105      H      -4.0873215954     9.0091109580    -1.8878785451
  106      C      -6.0417929346     8.2786444951    -2.4290324331
  107      H      -4.2607241479     7.2911344021    -1.7695691715
  108      H      -6.8705559715     8.9448837569    -2.1606445148
  109      H      -6.4425537397     7.2627324997    -2.5300551771
  110      H      -5.6801723745     8.5783104047    -3.4203491903
 ----------------------------------------------------------------

    9   -5663.5056027648      6.75E-06 Convergence criterion met
 Total energy in the final basis set = -5663.5056027648

                    Orbital Energies (a.u.)
 --------------------------------------------------------------

 Alpha MOs
 -- Occupied --
-88.985 -88.980 -88.933 -88.930 -88.919 -88.911 -88.910 -88.906
-14.391 -14.380 -14.379 -14.365 -14.350 -14.345 -14.342 -14.340
-14.329 -14.325 -10.270 -10.264 -10.264 -10.263 -10.253 -10.248
-10.247 -10.242 -10.238 -10.237 -10.236 -10.234 -10.234 -10.232
-10.232 -10.232 -10.231 -10.230 -10.230 -10.227 -10.227 -10.227
-10.225 -10.225 -10.223 -10.223 -10.220 -10.218 -10.216 -10.216
-10.215 -10.203 -10.203 -10.203 -10.202 -10.202 -10.202 -10.187
-10.185 -10.182 -10.180 -10.178 -10.177 -10.174 -10.174 -10.171
-10.170 -10.168 -10.165 -10.163  -8.041  -8.035  -7.994  -7.992
 -7.978  -7.972  -7.967  -7.965  -6.006  -6.001  -6.001  -5.999
 -5.995  -5.993  -5.958  -5.956  -5.955  -5.952  -5.951  -5.949
 -5.942  -5.938  -5.936  -5.935  -5.932  -5.932  -5.930  -5.928
 -5.928  -5.926  -5.924  -5.922  -1.038  -1.035  -0.980  -0.963
 -0.958  -0.943  -0.934  -0.928  -0.916  -0.913  -0.904  -0.894
 -0.851  -0.833  -0.825  -0.820  -0.815  -0.809  -0.809  -0.805
 -0.805  -0.802  -0.792  -0.791  -0.785  -0.781  -0.767  -0.759
 -0.750  -0.749  -0.741  -0.735  -0.722  -0.715  -0.708  -0.706
 -0.694  -0.692  -0.675  -0.669  -0.652  -0.646  -0.643  -0.638
 -0.635  -0.627  -0.622  -0.619  -0.616  -0.609  -0.601  -0.601
 -0.592  -0.592  -0.583  -0.579  -0.577  -0.571  -0.563  -0.551
 -0.547  -0.541  -0.539  -0.538  -0.523  -0.522  -0.518  -0.515
 -0.500  -0.500  -0.496  -0.494  -0.484  -0.483  -0.475  -0.473
 -0.473  -0.471  -0.467  -0.465  -0.462  -0.460  -0.453  -0.447
 -0.445  -0.443  -0.438  -0.436  -0.434  -0.433  -0.431  -0.429
 -0.426  -0.424  -0.423  -0.418  -0.417  -0.411  -0.410  -0.410
 -0.407  -0.406  -0.404  -0.402  -0.399  -0.396  -0.393  -0.392
 -0.391  -0.389  -0.388  -0.387  -0.385  -0.384  -0.382  -0.380
 -0.380  -0.378  -0.377  -0.376  -0.366  -0.359  -0.355  -0.353
 -0.352  -0.346  -0.345  -0.345  -0.342  -0.341  -0.339  -0.336
 -0.334  -0.333  -0.327  -0.326  -0.326  -0.322  -0.320  -0.315
 -0.310  -0.309  -0.308  -0.305  -0.302  -0.302  -0.298  -0.297
 -0.292  -0.291  -0.288  -0.287  -0.283  -0.281  -0.281  -0.279
 -0.274  -0.271  -0.266  -0.261  -0.259  -0.254  -0.249  -0.240
 -0.238  -0.232  -0.230  -0.226  -0.192  -0.191

          Ground-State Mulliken Net Atomic Charges

     Atom                 Charge (a.u.)
  ----------------------------------------
      1 C                     0.278239
      2 C                    -0.094691
      3 N                    -0.495232
      4 C                    -0.065588
      5 C                     0.061719
      6 C                     0.023702
      7 C                     0.042354
      8 C                     0.070124
      9 C                     0.235690
     10 N                    -0.525430
     11 N                    -0.555367
     12 C                     0.209994
     13 C                     0.307739
     14 S                     0.600665
     15 N                    -0.564069
     16 C                    -0.245291
     17 S                     0.352882
     18 C                    -0.108469
     19 C                    -0.223456
     20 S                     0.289809
     21 C                     0.146535
     22 C                     0.070728
     23 C                    -0.319597
     24 C                    -0.071984
     25 N                    -0.425609
     26 S                     0.275292
     27 C                     0.119662
     28 C                    -0.317048
     29 C                    -0.232737
     30 H                     0.089553
     31 H                     0.103448
     32 H                     0.105005
     33 H                     0.107846
     34 H                     0.135292
     35 H                     0.107953
     36 H                     0.117031
     37 H                     0.137953
     38 H                     0.099228
     39 C                    -0.174290
     40 H                     0.110862
     41 H                     0.107062
     42 H                     0.098368
     43 C                    -0.176731
     44 H                     0.106954
     45 C                    -0.175720
     46 H                     0.086372
     47 H                     0.088559
     48 H                     0.089012
     49 C                    -0.168533
     50 H                     0.094581
     51 C                    -0.314902
     52 H                     0.095041
     53 H                     0.096448
     54 H                     0.093552
     55 H                     0.095242
     56 C                     0.273310
     57 C                    -0.112235
     58 N                    -0.479491
     59 C                    -0.061226
     60 C                     0.076307
     61 C                     0.022404
     62 C                     0.023809
     63 C                     0.071095
     64 C                     0.227278
     65 N                    -0.502291
     66 N                    -0.572495
     67 C                     0.179631
     68 C                     0.287912
     69 S                     0.607244
     70 N                    -0.530944
     71 C                    -0.231761
     72 S                     0.377889
     73 C                    -0.093353
     74 C                    -0.197868
     75 S                     0.305819
     76 C                     0.109044
     77 C                     0.068500
     78 C                    -0.315450
     79 C                    -0.088337
     80 N                    -0.428257
     81 S                     0.277828
     82 C                     0.120624
     83 C                    -0.327522
     84 C                    -0.237029
     85 H                     0.101061
     86 H                     0.110193
     87 H                     0.109402
     88 H                     0.113415
     89 H                     0.124054
     90 H                     0.112543
     91 H                     0.119962
     92 H                     0.132804
     93 H                     0.114823
     94 C                    -0.184412
     95 H                     0.100737
     96 H                     0.080751
     97 H                     0.091120
     98 C                    -0.185427
     99 H                     0.090419
    100 C                    -0.165326
    101 H                     0.116283
    102 H                     0.096130
    103 H                     0.097550
    104 C                    -0.186723
    105 H                     0.086741
    106 C                    -0.329529
    107 H                     0.103459
    108 H                     0.100322
    109 H                     0.103214
    110 H                     0.100246
  ----------------------------------------
  Sum of atomic charges =     0.000000

                    Cartesian Multipole Moments
 -----------------------------------------------------------------
    Charge (ESU x 10^10)
                 0.0000
    Dipole Moment (Debye)
         X       4.4084      Y       0.6040      Z      -0.7843
       Tot       4.5182
    Quadrupole Moments (Debye-Ang)
        XX    -387.1839     XY      -9.1803     YY    -432.9947
        XZ     -13.9682     YZ       2.6904     ZZ    -434.5446

 Total job time:  96.75s(wall), 1140.88s(cpu)
        *  Thank you very much for using Q-Chem.  Have a nice day.  *
