 Q-Chem 4.4, Q-Chem, Inc., Pleasanton, CA (2016)
 Q-Chem 4.4.2 for Intel X86 Linux

User input:
--------------------------------------------------------------
$comment
SP
$end

$rem
MEM_STATIC 5000
MEM_TOTAL 20000
JOBTYPE SP
EXCHANGE B3LYP
BASIS 6-31g(d,p)
$end

$molecule
0 1
C         -23.938000     10.143000     -8.290000
C         -24.241000      8.801000     -8.661000
N         -23.958000     10.645000     -7.013000
C         -24.624000      7.938000     -7.600000
C         -24.299000      9.835000     -6.027000
C         -24.637000      8.392000     -6.227000
C         -24.915000      7.522000     -5.018000
C         -25.601000      8.003000     -3.884000
C         -24.479000      6.186000     -4.922000
N         -25.976000      7.235000     -2.875000
N         -23.737000      5.597000     -5.854000
C         -24.824000      5.419000     -3.823000
C         -25.613000      5.944000     -2.762000
S         -23.475000      4.085000     -5.362000
N         -24.249000      4.186000     -3.864000
C         -25.916000      5.210000     -1.511000
S         -25.356000      3.572000     -1.065000
C         -26.500000      5.804000     -0.408000
C         -26.004000      3.721000      0.619000
S         -27.376000      7.340000     -0.248000
C         -26.614000      4.916000      0.717000
C         -26.149000      2.703000      1.551000
C         -27.875000      6.778000      1.404000
C         -27.405000      5.511000      1.716000
N         -25.893000      1.507000      0.980000
S         -25.898000      2.968000      3.272000
C         -25.653000      0.678000      2.043000
C         -25.774000      1.245000      3.291000
C         -23.658000     11.111000     -9.364000
H         -24.237000      8.566000     -9.721000
H         -24.822000      6.914000     -7.905000
H         -24.269000     10.220000     -5.009000
H         -25.992000      9.018000     -3.825000
H         -28.339000      7.382000      2.173000
H         -27.612000      5.101000      2.698000
H         -25.559000     -0.392000      1.916000
H         -25.787000      0.825000      4.288000
H         -23.380000     12.044000     -8.859000
C         -24.848000     11.289000    -10.316000
H         -22.857000     10.769000    -10.031000
H         -25.808000     11.352000     -9.790000
H         -25.015000     10.409000    -10.949000
C         -24.590000     12.446000    -11.358000
H         -24.398000     13.296000    -10.691000
C         -25.777000     12.632000    -12.314000
H         -23.684000     12.248000    -11.945000
H         -26.743000     12.851000    -11.842000
H         -26.028000     11.765000    -12.937000
C         -25.436000     13.863000    -13.184000
H         -26.325000     14.130000    -13.769000
C         -24.355000     13.654000    -14.255000
H         -25.078000     14.680000    -12.546000
H         -23.349000     13.782000    -13.837000
H         -24.467000     14.458000    -14.993000
H         -24.417000     12.722000    -14.830000
C         -15.335000     -4.107000    -10.876000
C         -15.530000     -3.312000     -9.750000
N         -16.238000     -4.304000    -11.820000
C         -16.807000     -2.777000     -9.520000
C         -17.466000     -3.797000    -11.609000
C         -17.808000     -3.138000    -10.497000
C         -19.203000     -2.747000    -10.215000
C         -19.560000     -1.537000     -9.676000
C         -20.308000     -3.623000    -10.461000
N         -20.826000     -1.115000     -9.453000
N         -20.242000     -4.905000    -10.917000
C         -21.634000     -3.244000    -10.256000
C         -21.868000     -1.893000     -9.812000
S         -21.695000     -5.547000    -11.011000
N         -22.578000     -4.217000    -10.529000
C         -23.235000     -1.473000     -9.406000
S         -24.721000     -2.502000     -9.328000
C         -23.595000     -0.179000     -9.064000
C         -25.709000     -1.134000     -8.785000
S         -22.620000      1.208000     -8.924000
C         -24.938000      0.003000     -8.785000
C         -27.153000     -1.171000     -8.638000
C         -24.100000      2.074000     -8.386000
C         -25.232000      1.378000     -8.441000
N         -27.654000     -2.403000     -8.880000
S         -28.281000      0.115000     -8.431000
C         -28.997000     -2.396000     -8.765000
C         -29.497000     -1.119000     -8.673000
C         -13.904000     -4.663000    -11.065000
H         -14.731000     -3.160000     -9.030000
H         -17.065000     -2.160000     -8.665000
H         -18.230000     -3.970000    -12.365000
H         -18.783000     -0.836000     -9.374000
H         -23.929000      3.110000     -8.123000
H         -26.206000      1.721000     -8.113000
H         -29.597000     -3.293000     -8.846000
H         -30.540000     -0.847000     -8.576000
H         -13.163000     -3.880000    -10.859000
C         -13.734000     -5.272000    -12.492000
H         -13.693000     -5.474000    -10.357000
H         -13.873000     -4.530000    -13.288000
H         -14.549000     -5.989000    -12.653000
C         -12.317000     -5.900000    -12.595000
H         -11.602000     -5.099000    -12.371000
C         -12.058000     -6.658000    -13.966000
H         -12.233000     -6.671000    -11.818000
H         -12.809000     -7.442000    -14.122000
H         -11.094000     -7.173000    -13.881000
C         -11.955000     -5.653000    -15.154000
H         -12.982000     -5.410000    -15.453000
C         -11.004000     -6.250000    -16.263000
H         -11.500000     -4.703000    -14.848000
H         -10.022000     -6.448000    -15.816000
H         -10.943000     -5.550000    -17.106000
H         -11.426000     -7.162000    -16.704000
$end

--------------------------------------------------------------

             Standard Nuclear Orientation (Angstroms)
    I     Atom           X                Y                Z
 ----------------------------------------------------------------
    1      C       5.2972581846     6.1183459875    -1.3164938113
    2      C       4.3750235971     5.4435483119    -0.4652914485
    3      N       6.2970199977     5.5243966170    -2.0450769996
    4      C       4.5489734498     4.0381748493    -0.3564526708
    5      C       6.4452626548     4.2150991407    -1.9537466469
    6      C       5.5620503439     3.3431699442    -1.1193795274
    7      C       5.7503492993     1.8403402784    -1.1631002190
    8      C       7.0228144957     1.2420744444    -1.2671353844
    9      C       4.6718172354     0.9345464610    -1.1404253943
   10      N       7.2292505762    -0.0605326612    -1.1715902473
   11      N       3.4003907738     1.3213069886    -1.1406419742
   12      C       4.9087837691    -0.4285791026    -1.1112610351
   13      C       6.2289205611    -0.9587728150    -1.1105698656
   14      S       2.5011151060    -0.0152454740    -1.0984189004
   15      N       3.7537652983    -1.1459110444    -1.1742071832
   16      C       6.5430398945    -2.4042950659    -1.1963630264
   17      S       5.3750321924    -3.7499261322    -1.3398727516
   18      C       7.8199593836    -2.8896765513    -1.4070344104
   19      C       6.6868600029    -4.9657513948    -1.6206533180
   20      S       9.4008868520    -2.0978380047    -1.2460000799
   21      C       7.8646028610    -4.3203407938    -1.5425769694
   22      C       6.5626487447    -6.3478291407    -1.6005121250
   23      C      10.1410716087    -3.7470460210    -1.4078285220
   24      C       9.2008182541    -4.7587092033    -1.5342968371
   25      N       5.3333997248    -6.7000835756    -1.1682429264
   26      S       7.4850141955    -7.3854975474    -2.6810459064
   27      C       5.1943795402    -7.9959754881    -1.5879422702
   28      C       6.2772798180    -8.5394493133    -2.2403203734
   29      C       5.2424269660     7.5891555100    -1.3676102098
   30      H       3.6732791282     6.0568661887     0.0916976738
   31      H       3.8161099971     3.5439023045     0.2755368949
   32      H       7.2072848887     3.7379078412    -2.5677984190
   33      H       7.9420481902     1.8258645609    -1.2951624203
   34      H      11.1888217110    -3.9659142083    -1.5684194304
   35      H       9.5416736762    -5.7773939727    -1.6804882253
   36      H       4.3641208108    -8.6092773214    -1.2648381018
   37      H       6.5142917167    -9.5483270965    -2.5510758696
   38      H       5.9736855149     7.8881925441    -2.1282913433
   39      C       5.5170221943     8.2326166852    -0.0020908300
   40      H       4.2397045421     7.9575543384    -1.6171779239
   41      H       6.3472009809     7.7567879581     0.5332924016
   42      H       4.6956322473     8.0779444880     0.7081014442
   43      C       5.6166585533     9.8040384045    -0.1101804970
   44      H       6.4219129438     9.9173699015    -0.8470484217
   45      C       5.8929262282    10.4562070217     1.2521165582
   46      H       4.6942948917    10.2258746182    -0.5295949513
   47      H       6.8028632114    10.1236045991     1.7671809377
   48      H       5.1307331153    10.2911217075     2.0232374941
   49      C       6.0851720478    11.9640364923     0.9727711944
   50      H       6.4444071473    12.4430386842     1.8921960382
   51      C       4.8130995760    12.7551070069     0.6331801648
   52      H       6.7638321538    12.0997514058     0.1220662380
   53      H       4.5688774546    12.6794594573    -0.4334861390
   54      H       5.0326362831    13.8160172735     0.8060299275
   55      H       3.9299362117    12.5381757249     1.2464144518
   56      C     -10.1908088186    -0.3595905254    -2.7012768407
   57      C      -8.9781388672    -0.6716391016    -3.3095393457
   58      N     -10.3176123732     0.0666759162    -1.4572624600
   59      C      -7.8130244451    -0.6599580499    -2.5270906659
   60      C      -9.2074023935     0.0802859741    -0.6977872679
   61      C      -8.0132619275    -0.3337472686    -1.1341289016
   62      C      -6.8539023344    -0.4733091624    -0.2314452295
   63      C      -5.5771034043    -0.1026646497    -0.5697899314
   64      C      -6.9675593877    -1.0392844497     1.0783910383
   65      N      -4.4969676132    -0.1602629479     0.2429573287
   66      N      -8.0926715623    -1.5597953366     1.6431980948
   67      C      -5.8929233357    -1.1211715946     1.9629213381
   68      C      -4.6370889926    -0.5693307220     1.5208299965
   69      S      -7.7841955530    -2.1282622105     3.0971227713
   70      N      -6.1721813321    -1.7099256628     3.1826662370
   71      C      -3.4100159677    -0.7755997366     2.3342609309
   72      S      -3.2540487375    -1.7338037662     3.8609043932
   73      C      -2.1763642446    -0.2057163602     2.0616139739
   74      C      -1.5286861432    -1.3491306834     3.9934469797
   75      S      -1.7055224105     0.7622791798     0.7443111986
   76      C      -1.1861927808    -0.4761701004     2.9895305901
   77      C      -0.6977343998    -1.6850428606     5.1357237454
   78      C      -0.0520071069     0.7437290500     1.4481173036
   79      C       0.0668973217     0.1560148583     2.6352646262
   80      N      -1.3734720689    -2.4077155009     6.0568707789
   81      S       0.8765215959    -1.1309801856     5.5643979949
   82      C      -0.5841088285    -2.6765183213     7.1159145544
   83      C       0.5858649870    -1.9560965081     7.0792173868
   84      C     -11.4321829038    -0.3934140184    -3.6234830823
   85      H      -8.9398538932    -0.9799924327    -4.3503839470
   86      H      -6.8238972143    -0.9034877481    -2.9020554739
   87      H      -9.2970549657     0.4056514195     0.3372299992
   88      H      -5.3743591023     0.2586372299    -1.5771080042
   89      H       0.6819585450     1.2727816285     0.8538919329
   90      H       0.9902309636     0.0102876712     3.1831036287
   91      H      -0.9002383656    -3.3051563672     7.9381349160
   92      H       1.3808206727    -1.9913416782     7.8127330552
   93      H     -11.2043790560     0.0876872036    -4.5833023472
   94      C     -12.6612483652     0.2589064078    -2.9163860925
   95      H     -11.7252560037    -1.4232183208    -3.8624752514
   96      H     -12.4982105344     1.3165090336    -2.6747327216
   97      H     -12.7819532617    -0.2210295124    -1.9369337759
   98      C     -13.8991024276     0.1122028361    -3.8432503664
   99      H     -13.6360132706     0.5886353117    -4.7955098854
  100      C     -15.2470850116     0.6362822296    -3.1878346643
  101      H     -14.0615063701    -0.9588481161    -4.0212975999
  102      H     -15.4445543379     0.1167438496    -2.2422772959
  103      H     -16.0684207948     0.3647682550    -3.8612095175
  104      C     -15.2399159725     2.1898051866    -3.0518455958
  105      H     -14.6757051992     2.4252396349    -2.1411229027
  106      C     -16.7202527308     2.7294263800    -3.1418625366
  107      H     -14.6948440934     2.6699700250    -3.8737332856
  108      H     -17.1543276248     2.4102643975    -4.0973998804
  109      H     -16.7174087370     3.8212593935    -3.0311259911
  110      H     -17.3269006727     2.3776080829    -2.2977587750
 ----------------------------------------------------------------

   10   -5663.5137263477      3.30E-06 Convergence criterion met
 Total energy in the final basis set = -5663.5137263477

                    Orbital Energies (a.u.)
 --------------------------------------------------------------

 Alpha MOs
 -- Occupied --
-88.989 -88.988 -88.937 -88.934 -88.918 -88.918 -88.913 -88.908
-14.385 -14.382 -14.380 -14.375 -14.350 -14.349 -14.348 -14.340
-14.333 -14.328 -10.269 -10.265 -10.265 -10.263 -10.254 -10.252
-10.252 -10.251 -10.241 -10.238 -10.237 -10.236 -10.236 -10.235
-10.231 -10.231 -10.230 -10.229 -10.229 -10.229 -10.228 -10.228
-10.227 -10.227 -10.226 -10.225 -10.222 -10.220 -10.218 -10.217
-10.217 -10.208 -10.205 -10.205 -10.204 -10.203 -10.200 -10.199
-10.186 -10.183 -10.182 -10.180 -10.179 -10.177 -10.176 -10.174
-10.174 -10.171 -10.171 -10.169  -8.044  -8.043  -7.998  -7.996
 -7.976  -7.975  -7.971  -7.969  -6.009  -6.008  -6.004  -6.002
 -6.002  -6.001  -5.962  -5.960  -5.959  -5.957  -5.955  -5.953
 -5.940  -5.940  -5.936  -5.936  -5.936  -5.933  -5.933  -5.932
 -5.932  -5.930  -5.928  -5.925  -1.036  -1.029  -0.975  -0.971
 -0.962  -0.955  -0.947  -0.935  -0.914  -0.905  -0.898  -0.889
 -0.843  -0.837  -0.833  -0.829  -0.819  -0.813  -0.811  -0.807
 -0.805  -0.796  -0.796  -0.794  -0.788  -0.780  -0.768  -0.764
 -0.749  -0.745  -0.742  -0.738  -0.721  -0.715  -0.710  -0.706
 -0.692  -0.691  -0.677  -0.672  -0.657  -0.655  -0.642  -0.640
 -0.635  -0.633  -0.625  -0.623  -0.610  -0.608  -0.600  -0.599
 -0.594  -0.592  -0.585  -0.582  -0.578  -0.576  -0.568  -0.558
 -0.547  -0.544  -0.540  -0.539  -0.526  -0.525  -0.520  -0.518
 -0.514  -0.502  -0.497  -0.493  -0.490  -0.484  -0.476  -0.473
 -0.472  -0.469  -0.467  -0.464  -0.462  -0.460  -0.451  -0.449
 -0.446  -0.446  -0.440  -0.436  -0.436  -0.435  -0.433  -0.432
 -0.428  -0.426  -0.421  -0.418  -0.417  -0.415  -0.413  -0.412
 -0.409  -0.406  -0.406  -0.403  -0.401  -0.399  -0.398  -0.395
 -0.394  -0.392  -0.391  -0.389  -0.388  -0.387  -0.386  -0.385
 -0.380  -0.377  -0.373  -0.370  -0.362  -0.361  -0.356  -0.355
 -0.354  -0.349  -0.348  -0.345  -0.343  -0.342  -0.341  -0.341
 -0.335  -0.333  -0.332  -0.330  -0.329  -0.326  -0.325  -0.321
 -0.317  -0.309  -0.305  -0.303  -0.301  -0.301  -0.299  -0.298
 -0.297  -0.296  -0.296  -0.294  -0.289  -0.285  -0.285  -0.281
 -0.276  -0.270  -0.268  -0.265  -0.255  -0.254  -0.253  -0.252
 -0.243  -0.240  -0.238  -0.227  -0.194  -0.193

          Ground-State Mulliken Net Atomic Charges

     Atom                 Charge (a.u.)
  ----------------------------------------
      1 C                     0.274233
      2 C                    -0.102560
      3 N                    -0.481285
      4 C                    -0.072961
      5 C                     0.091366
      6 C                     0.012789
      7 C                     0.023863
      8 C                     0.058244
      9 C                     0.240721
     10 N                    -0.529498
     11 N                    -0.557953
     12 C                     0.204686
     13 C                     0.330109
     14 S                     0.599767
     15 N                    -0.579197
     16 C                    -0.219628
     17 S                     0.349438
     18 C                    -0.126989
     19 C                    -0.229085
     20 S                     0.284409
     21 C                     0.168682
     22 C                     0.037207
     23 C                    -0.308087
     24 C                    -0.083131
     25 N                    -0.415598
     26 S                     0.292952
     27 C                     0.122011
     28 C                    -0.303126
     29 C                    -0.235425
     30 H                     0.100177
     31 H                     0.104709
     32 H                     0.104647
     33 H                     0.116042
     34 H                     0.124470
     35 H                     0.105846
     36 H                     0.113577
     37 H                     0.134038
     38 H                     0.117170
     39 C                    -0.192773
     40 H                     0.106987
     41 H                     0.102104
     42 H                     0.087779
     43 C                    -0.174137
     44 H                     0.100462
     45 C                    -0.173373
     46 H                     0.100942
     47 H                     0.093167
     48 H                     0.090395
     49 C                    -0.175463
     50 H                     0.085298
     51 C                    -0.320077
     52 H                     0.098043
     53 H                     0.101726
     54 H                     0.099960
     55 H                     0.100038
     56 C                     0.295555
     57 C                    -0.116440
     58 N                    -0.496827
     59 C                    -0.071104
     60 C                     0.095289
     61 C                     0.047716
     62 C                     0.048982
     63 C                     0.046180
     64 C                     0.210740
     65 N                    -0.516111
     66 N                    -0.545477
     67 C                     0.200265
     68 C                     0.289883
     69 S                     0.615877
     70 N                    -0.577846
     71 C                    -0.227984
     72 S                     0.365563
     73 C                    -0.102582
     74 C                    -0.235069
     75 S                     0.274752
     76 C                     0.123896
     77 C                     0.056268
     78 C                    -0.319143
     79 C                    -0.048778
     80 N                    -0.428164
     81 S                     0.294039
     82 C                     0.139727
     83 C                    -0.319813
     84 C                    -0.249696
     85 H                     0.091375
     86 H                     0.105999
     87 H                     0.109211
     88 H                     0.107089
     89 H                     0.120852
     90 H                     0.113068
     91 H                     0.120906
     92 H                     0.125909
     93 H                     0.106573
     94 C                    -0.164306
     95 H                     0.114487
     96 H                     0.102117
     97 H                     0.112891
     98 C                    -0.187054
     99 H                     0.087287
    100 C                    -0.176283
    101 H                     0.081169
    102 H                     0.094938
    103 H                     0.084209
    104 C                    -0.175066
    105 H                     0.100510
    106 C                    -0.323347
    107 H                     0.093688
    108 H                     0.106331
    109 H                     0.096642
    110 H                     0.103395
  ----------------------------------------
  Sum of atomic charges =     0.000000

                    Cartesian Multipole Moments
 -----------------------------------------------------------------
    Charge (ESU x 10^10)
                 0.0000
    Dipole Moment (Debye)
         X       2.5021      Y      -2.0404      Z       0.2388
       Tot       3.2374
    Quadrupole Moments (Debye-Ang)
        XX    -448.7471     XY     -19.8035     YY    -405.9618
        XZ      15.2502     YZ      16.7090     ZZ    -421.9789

 Total job time:  86.61s(wall), 998.94s(cpu)
        *  Thank you very much for using Q-Chem.  Have a nice day.  *
