 Q-Chem 4.4, Q-Chem, Inc., Pleasanton, CA (2016)
 Q-Chem 4.4.2 for Intel X86 Linux

User input:
--------------------------------------------------------------
$comment
SP
$end

$rem
MEM_STATIC 5000
MEM_TOTAL 20000
JOBTYPE SP
EXCHANGE B3LYP
BASIS 6-31g(d,p)
$end

$molecule
0 1
C           1.513000     10.330000     -3.023000
C           2.559000     10.363000     -2.069000
N           0.825000      9.217000     -3.277000
C           2.940000      9.220000     -1.404000
C           1.122000      8.156000     -2.524000
C           2.208000      8.041000     -1.692000
C           2.591000      6.738000     -0.974000
C           3.985000      6.387000     -0.813000
C           1.703000      5.728000     -0.492000
N           4.413000      5.298000     -0.135000
N           0.385000      5.758000     -0.736000
C           2.113000      4.597000      0.200000
C           3.500000      4.417000      0.397000
S          -0.235000      4.437000      0.035000
N           1.092000      3.785000      0.699000
C           4.082000      3.364000      1.278000
S           3.186000      1.958000      1.939000
C           5.412000      3.328000      1.670000
C           4.749000      1.268000      2.545000
S           6.675000      4.501000      1.488000
C           5.741000      2.196000      2.372000
C           4.914000      0.020000      3.196000
C           7.706000      3.391000      2.402000
C           7.108000      2.194000      2.714000
N           3.923000     -0.796000      2.902000
S           5.804000     -0.325000      4.632000
C           3.978000     -1.878000      3.759000
C           4.855000     -1.800000      4.802000
C           1.075000     11.570000     -3.871000
H           3.022000     11.315000     -1.828000
H           3.774000      9.144000     -0.712000
H           0.563000      7.264000     -2.801000
H           4.725000      7.131000     -1.103000
H           8.750000      3.585000      2.612000
H           7.604000      1.379000      3.229000
H           3.240000     -2.636000      3.536000
H           4.973000     -2.571000      5.551000
H           0.071000     11.396000     -4.276000
C           2.190000     11.826000     -4.918000
H           1.208000     12.377000     -3.139000
H           3.131000     12.104000     -4.427000
H           1.996000     12.648000     -5.618000
C           2.504000     10.608000     -5.748000
H           2.765000      9.831000     -5.019000
C           3.518000     10.850000     -6.905000
H           1.626000     10.193000     -6.259000
H           3.450000      9.961000     -7.544000
H           4.504000     11.061000     -6.472000
C           3.224000     12.018000     -7.913000
H           2.280000     11.789000     -8.424000
C           4.204000     12.145000     -9.077000
H           3.153000     12.970000     -7.372000
H           3.741000     12.937000     -9.678000
H           4.319000     11.234000     -9.676000
H           5.207000     12.499000     -8.807000
C           7.371000      8.100000     13.104000
C           6.350000      8.134000     12.111000
N           7.655000      7.017000     13.873000
C           5.654000      6.928000     11.896000
C           6.965000      5.957000     13.633000
C           6.021000      5.747000     12.594000
C           5.386000      4.467000     12.232000
C           4.640000      4.343000     11.027000
C           5.223000      3.297000     13.033000
N           3.947000      3.281000     10.592000
N           5.698000      3.284000     14.257000
C           4.515000      2.174000     12.593000
C           3.853000      2.163000     11.344000
S           5.266000      1.846000     14.873000
N           4.475000      1.233000     13.582000
C           3.193000      0.999000     10.813000
S           2.340000     -0.308000     11.658000
C           3.155000      0.704000      9.475000
C           1.861000     -1.077000     10.159000
S           3.971000      1.480000      8.168000
C           2.429000     -0.410000      9.140000
C           0.805000     -2.078000     10.023000
C           3.334000      0.231000      7.140000
C           2.615000     -0.723000      7.765000
N           0.969000     -2.867000      8.959000
S          -0.671000     -2.204000     11.038000
C          -0.165000     -3.672000      8.896000
C          -1.100000     -3.485000      9.930000
C           8.135000      9.331000     13.312000
H           6.118000      9.026000     11.537000
H           4.818000      7.021000     11.208000
H           7.225000      5.142000     14.307000
H           4.560000      5.204000     10.364000
H           3.663000      0.198000      6.109000
H           2.203000     -1.586000      7.255000
H          -0.123000     -4.382000      8.080000
H          -2.075000     -3.949000      9.999000
H           8.834000      9.240000     14.153000
C           7.219000     10.502000     13.737000
H           8.623000      9.534000     12.350000
H           6.893000     10.389000     14.778000
H           6.301000     10.592000     13.143000
C           7.946000     11.854000     13.851000
H           8.901000     11.483000     14.242000
C           7.187000     12.820000     14.717000
H           8.072000     12.289000     12.851000
H           7.121000     12.384000     15.721000
H           6.195000     13.034000     14.300000
C           8.050000     14.068000     14.916000
H           9.043000     13.837000     15.320000
C           7.442000     15.135000     15.859000
H           8.115000     14.576000     13.946000
H           6.366000     15.128000     15.643000
H           8.066000     16.007000     15.628000
H           7.440000     15.008000     16.949000
$end

--------------------------------------------------------------

             Standard Nuclear Orientation (Angstroms)
    I     Atom           X                Y                Z
 ----------------------------------------------------------------
    1      C      10.2277857122     2.6095315831    -2.1486869201
    2      C       9.2085045226     3.1893010600    -1.3548014056
    3      N      10.2363289085     1.3104688323    -2.4470021619
    4      C       8.2108431568     2.4110051825    -0.8137262479
    5      C       9.1873570432     0.6019962680    -2.0243159293
    6      C       8.2383081057     1.0294876117    -1.1291051914
    7      C       7.1450532252     0.1168538299    -0.5529842433
    8      C       6.7342706523     0.2665493220     0.8258583646
    9      C       6.5037818474    -0.9779840474    -1.2095427269
   10      N       5.7339970491    -0.4443079860     1.3941220414
   11      N       6.8950260231    -1.4189175372    -2.4137294452
   12      C       5.4804437269    -1.7298697158    -0.6495676981
   13      C       5.0840812378    -1.4164895094     0.6693969047
   14      S       5.8605702427    -2.6489751044    -2.7888849062
   15      N       4.8936363209    -2.6799437716    -1.4884969901
   16      C       3.8828584876    -1.9987096801     1.3340604114
   17      S       2.9608870951    -3.4189122493     0.7428189937
   18      C       3.3475035873    -1.5250002698     2.5226959844
   19      C       2.0116735120    -3.4247152110     2.2872492767
   20      S       3.7057761261    -0.0929152648     3.4309885179
   21      C       2.3235894605    -2.3007672138     3.0046238934
   22      C       1.0225503782    -4.3704228581     2.6557631469
   23      C       2.4059287305    -0.5797033136     4.5282082515
   24      C       1.8412022573    -1.7958677706     4.2285667591
   25      N       1.1870192169    -5.4999537338     1.9988894894
   26      S      -0.5443035455    -4.0749194720     3.3121681519
   27      C       0.0606293217    -6.2790563800     2.1790085352
   28      C      -1.0115956615    -5.6898459313     2.7841751508
   29      C      11.4335562660     3.4166248095    -2.7345758987
   30      H       9.1928749202     4.2668072007    -1.2225507639
   31      H       7.4348947107     2.7630279788    -0.1397974979
   32      H       9.2650633333    -0.4586430627    -2.2564364641
   33      H       7.1348550858     1.1150484777     1.3779609767
   34      H       2.1411219570    -0.0260030809     5.4198165876
   35      H       1.0653392834    -2.2712317381     4.8180849896
   36      H       0.1448390313    -7.2595931815     1.7313554266
   37      H      -1.9550543298    -6.1881042529     2.9602160158
   38      H      11.8852655429     2.8483063325    -3.5563361057
   39      C      12.3760959532     3.7561179593    -1.5507966375
   40      H      10.9469285778     4.3721870505    -2.9687901099
   41      H      11.8787549777     4.4206095600    -0.8331972599
   42      H      13.2958135696     4.2890461069    -1.8217709825
   43      C      12.7899529461     2.5387968636    -0.7647484586
   44      H      11.8475701000     2.0750008483    -0.4483644711
   45      C      13.8449263488     2.8081755047     0.3487484059
   46      H      13.2607697883     1.7631530484    -1.3819503485
   47      H      14.2125175498     1.8191146565     0.6485839400
   48      H      13.3789539310     3.4114815552     1.1381136669
   49      C      15.1665935834     3.5565812099    -0.0510122992
   50      H      15.6970743320     2.9316051195    -0.7808705470
   51      C      16.1998790560     3.7078098116     1.0629338585
   52      H      14.9259157393     4.5373679880    -0.4801480251
   53      H      17.0474998391     4.1522211442     0.5273299232
   54      H      16.5023135823     2.7649772699     1.5336218184
   55      H      15.9274107991     4.4100509614     1.8609585551
   56      C      -6.4360758555     6.1505750732     0.8755355673
   57      C      -5.3636925702     5.6312045098     0.0945782655
   58      N      -7.5049822351     5.4215195671     1.2888432260
   59      C      -5.4174779810     4.2531095338    -0.1935855188
   60      C      -7.4946978378     4.1739060136     0.9715820524
   61      C      -6.4556478050     3.4431537844     0.3382312737
   62      C      -6.3970241586     1.9816449990     0.1559558281
   63      C      -5.1982258294     1.3531625422    -0.2820046351
   64      C      -7.4698517020     1.0403547509     0.1651062911
   65      N      -5.0023031160     0.0572437119    -0.5640093790
   66      N      -8.6942636377     1.4624869753     0.3809529888
   67      C      -7.2845524260    -0.3175877174    -0.1135501837
   68      C      -6.0217189560    -0.8260545513    -0.4944426961
   69      S      -9.6352192878     0.1472114377     0.2446565305
   70      N      -8.4863969342    -0.9656991978    -0.0866561877
   71      C      -5.7666522591    -2.2280080688    -0.6991969752
   72      S      -6.8411478070    -3.5006594201    -1.3121413900
   73      C      -4.5697485178    -2.8239097190    -0.3974758165
   74      C      -5.5733808811    -4.7083517987    -1.2668739575
   75      S      -3.1995441333    -2.1596489139     0.4134363413
   76      C      -4.4799508707    -4.1546712687    -0.7157635484
   77      C      -5.6039510569    -5.9916506359    -1.9653312280
   78      C      -2.4972298830    -3.7487270851     0.3490992619
   79      C      -3.2783676203    -4.7058347121    -0.1907811190
   80      N      -4.8297076588    -6.9154008857    -1.3919677862
   81      S      -6.4383897135    -6.3316390784    -3.5186492854
   82      C      -4.8660197545    -8.0255275646    -2.2311639424
   83      C      -5.6925122644    -7.9039067706    -3.3627418291
   84      C      -6.3763639661     7.5712924847     1.2224037368
   85      H      -4.5401123231     6.2461427465    -0.2554653626
   86      H      -4.6403485801     3.9170505406    -0.8747780373
   87      H      -8.3951974913     3.6619644486     1.3079110701
   88      H      -4.3158390669     1.9662428887    -0.4631567536
   89      H      -1.5613333609    -3.9170811999     0.8668304586
   90      H      -2.9872176099    -5.7482619375    -0.2472625423
   91      H      -4.2920930963    -8.8567286548    -1.8420200890
   92      H      -5.7771763039    -8.6195512599    -4.1698149145
   93      H      -7.2831384918     7.9021310290     1.7443891936
   94      C      -6.3487466834     8.4627821487    -0.0406898720
   95      H      -5.4582064734     7.6860224138     1.8128449803
   96      H      -7.3354424884     8.4999633556    -0.5179476074
   97      H      -5.6527013342     8.1202993975    -0.8165032755
   98      C      -6.1613053732     9.9614219397     0.2565869893
   99      H      -6.7468563242    10.0093052190     1.1825374606
  100      C      -6.6293761218    10.8161260800    -0.8877834083
  101      H      -5.1006219467    10.1678704256     0.4500571198
  102      H      -7.7009933741    10.6284277536    -1.0251653675
  103      H      -6.0588351783    10.6060441626    -1.8010728585
  104      C      -6.5676086037    12.2813130169    -0.4504208428
  105      H      -7.1306384739    12.4730176127     0.4709220430
  106      C      -7.0979737718    13.2941555897    -1.4945782597
  107      H      -5.5081004134    12.5429384306    -0.3400417796
  108      H      -6.7713807037    12.9012608198    -2.4658926618
  109      H      -6.7045164889    14.2380734983    -1.0979281011
  110      H      -8.1722382289    13.4310654133    -1.6719044460
 ----------------------------------------------------------------

   10   -5663.4945164517      3.89E-06 Convergence criterion met
 Total energy in the final basis set = -5663.4945164517

                    Orbital Energies (a.u.)
 --------------------------------------------------------------

 Alpha MOs
 -- Occupied --
-88.990 -88.985 -88.937 -88.936 -88.923 -88.921 -88.913 -88.903
-14.394 -14.383 -14.381 -14.374 -14.353 -14.349 -14.347 -14.342
-14.327 -14.326 -10.275 -10.265 -10.265 -10.259 -10.257 -10.256
-10.252 -10.249 -10.244 -10.240 -10.235 -10.235 -10.235 -10.235
-10.235 -10.235 -10.234 -10.231 -10.231 -10.230 -10.228 -10.225
-10.224 -10.223 -10.220 -10.217 -10.217 -10.216 -10.216 -10.215
-10.213 -10.210 -10.202 -10.201 -10.200 -10.200 -10.197 -10.191
-10.186 -10.183 -10.179 -10.179 -10.179 -10.178 -10.178 -10.175
-10.175 -10.172 -10.171 -10.168  -8.045  -8.041  -7.997  -7.996
 -7.981  -7.981  -7.973  -7.964  -6.010  -6.006  -6.004  -6.003
 -6.000  -5.999  -5.961  -5.961  -5.958  -5.957  -5.954  -5.953
 -5.945  -5.945  -5.942  -5.941  -5.938  -5.937  -5.937  -5.933
 -5.929  -5.928  -5.925  -5.920  -1.040  -1.036  -0.977  -0.965
 -0.957  -0.950  -0.949  -0.946  -0.920  -0.914  -0.904  -0.903
 -0.849  -0.842  -0.831  -0.828  -0.818  -0.812  -0.811  -0.810
 -0.807  -0.806  -0.800  -0.798  -0.792  -0.781  -0.768  -0.765
 -0.752  -0.748  -0.742  -0.739  -0.724  -0.723  -0.715  -0.709
 -0.695  -0.694  -0.673  -0.673  -0.658  -0.652  -0.643  -0.642
 -0.638  -0.637  -0.624  -0.621  -0.615  -0.607  -0.605  -0.597
 -0.596  -0.589  -0.585  -0.579  -0.578  -0.576  -0.574  -0.554
 -0.551  -0.543  -0.543  -0.538  -0.524  -0.524  -0.520  -0.513
 -0.506  -0.505  -0.501  -0.498  -0.493  -0.490  -0.482  -0.475
 -0.472  -0.471  -0.470  -0.467  -0.466  -0.460  -0.449  -0.448
 -0.446  -0.443  -0.441  -0.438  -0.438  -0.436  -0.435  -0.430
 -0.428  -0.425  -0.422  -0.421  -0.419  -0.418  -0.415  -0.414
 -0.413  -0.411  -0.409  -0.404  -0.399  -0.398  -0.397  -0.396
 -0.394  -0.394  -0.389  -0.389  -0.388  -0.387  -0.386  -0.385
 -0.381  -0.381  -0.377  -0.374  -0.369  -0.368  -0.360  -0.357
 -0.355  -0.354  -0.353  -0.349  -0.345  -0.343  -0.339  -0.338
 -0.335  -0.335  -0.333  -0.331  -0.328  -0.327  -0.323  -0.317
 -0.317  -0.314  -0.310  -0.308  -0.302  -0.300  -0.299  -0.297
 -0.296  -0.296  -0.295  -0.293  -0.293  -0.288  -0.288  -0.287
 -0.278  -0.273  -0.269  -0.267  -0.259  -0.254  -0.252  -0.247
 -0.246  -0.245  -0.234  -0.227  -0.194  -0.192

          Ground-State Mulliken Net Atomic Charges

     Atom                 Charge (a.u.)
  ----------------------------------------
      1 C                     0.233859
      2 C                    -0.112498
      3 N                    -0.457737
      4 C                    -0.071717
      5 C                     0.071861
      6 C                     0.050454
      7 C                     0.022496
      8 C                     0.060248
      9 C                     0.227573
     10 N                    -0.528547
     11 N                    -0.551880
     12 C                     0.197261
     13 C                     0.293106
     14 S                     0.615864
     15 N                    -0.543646
     16 C                    -0.236864
     17 S                     0.348763
     18 C                    -0.106993
     19 C                    -0.227698
     20 S                     0.294599
     21 C                     0.173563
     22 C                     0.034823
     23 C                    -0.310014
     24 C                    -0.081422
     25 N                    -0.413054
     26 S                     0.279162
     27 C                     0.119893
     28 C                    -0.316993
     29 C                    -0.208281
     30 H                     0.088898
     31 H                     0.104470
     32 H                     0.111103
     33 H                     0.109647
     34 H                     0.123446
     35 H                     0.107137
     36 H                     0.115183
     37 H                     0.146774
     38 H                     0.124168
     39 C                    -0.184483
     40 H                     0.099295
     41 H                     0.088612
     42 H                     0.095140
     43 C                    -0.166333
     44 H                     0.099866
     45 C                    -0.177372
     46 H                     0.093025
     47 H                     0.089924
     48 H                     0.084810
     49 C                    -0.179882
     50 H                     0.093332
     51 C                    -0.315544
     52 H                     0.093576
     53 H                     0.101517
     54 H                     0.103715
     55 H                     0.099975
     56 C                     0.265345
     57 C                    -0.107541
     58 N                    -0.470996
     59 C                    -0.096037
     60 C                     0.085628
     61 C                     0.044301
     62 C                     0.078631
     63 C                     0.040832
     64 C                     0.199269
     65 N                    -0.524065
     66 N                    -0.551670
     67 C                     0.227895
     68 C                     0.278645
     69 S                     0.596467
     70 N                    -0.560848
     71 C                    -0.213454
     72 S                     0.302086
     73 C                    -0.098160
     74 C                    -0.249075
     75 S                     0.274007
     76 C                     0.168856
     77 C                     0.041874
     78 C                    -0.303474
     79 C                    -0.047669
     80 N                    -0.411559
     81 S                     0.296053
     82 C                     0.117777
     83 C                    -0.312851
     84 C                    -0.238854
     85 H                     0.098096
     86 H                     0.103737
     87 H                     0.116587
     88 H                     0.099361
     89 H                     0.131635
     90 H                     0.117375
     91 H                     0.113576
     92 H                     0.133738
     93 H                     0.116960
     94 C                    -0.195964
     95 H                     0.112366
     96 H                     0.102258
     97 H                     0.087555
     98 C                    -0.165693
     99 H                     0.093974
    100 C                    -0.176114
    101 H                     0.087172
    102 H                     0.095061
    103 H                     0.094525
    104 C                    -0.174236
    105 H                     0.096773
    106 C                    -0.319862
    107 H                     0.093749
    108 H                     0.098312
    109 H                     0.101548
    110 H                     0.099920
  ----------------------------------------
  Sum of atomic charges =     0.000000

                    Cartesian Multipole Moments
 -----------------------------------------------------------------
    Charge (ESU x 10^10)
                 0.0000
    Dipole Moment (Debye)
         X      -0.9323      Y       0.5395      Z      -0.3268
       Tot       1.1257
    Quadrupole Moments (Debye-Ang)
        XX    -464.3978     XY      32.6265     YY    -400.0883
        XZ      12.3708     YZ       8.2524     ZZ    -437.0365

 Total job time:  87.56s(wall), 1012.98s(cpu)
        *  Thank you very much for using Q-Chem.  Have a nice day.  *
