 Q-Chem 4.4, Q-Chem, Inc., Pleasanton, CA (2016)
 Q-Chem 4.4.2 for Intel X86 Linux

User input:
--------------------------------------------------------------
$comment
SP
$end

$rem
MEM_STATIC 5000
MEM_TOTAL 20000
JOBTYPE SP
EXCHANGE B3LYP
BASIS 6-31g(d,p)
$end

$molecule
0 1
C          -2.378000      6.881000     14.589000
C          -3.306000      5.924000     15.007000
N          -1.465000      6.688000     13.667000
C          -3.439000      4.704000     14.208000
C          -1.652000      5.586000     12.950000
C          -2.622000      4.564000     13.094000
C          -2.664000      3.412000     12.222000
C          -1.452000      2.924000     11.613000
C          -3.882000      2.822000     11.718000
N          -1.421000      1.916000     10.790000
N          -5.066000      3.374000     12.109000
C          -3.861000      1.918000     10.651000
C          -2.586000      1.405000     10.300000
S          -6.105000      2.587000     11.034000
N          -5.107000      1.719000     10.109000
C          -2.320000      0.578000      9.082000
S          -0.771000      0.475000      8.292000
C          -3.156000     -0.310000      8.437000
C          -1.423000     -0.439000      6.943000
S          -4.735000     -0.905000      8.917000
C          -2.662000     -0.823000      7.248000
C          -0.775000     -0.505000      5.644000
C          -4.841000     -1.662000      7.202000
C          -3.630000     -1.599000      6.519000
N          -1.210000     -1.370000      4.723000
S           0.381000      0.653000      5.132000
C          -0.404000     -1.225000      3.545000
C           0.492000     -0.141000      3.587000
C          -2.228000      8.102000     15.345000
H          -3.861000      6.168000     15.908000
H          -4.141000      3.961000     14.575000
H          -1.034000      5.683000     12.058000
H          -0.528000      3.376000     11.969000
H          -5.786000     -2.105000      6.915000
H          -3.476000     -1.972000      5.513000
H          -0.661000     -1.887000      2.728000
H           1.194000      0.126000      2.809000
H          -1.752000      8.903000     14.766000
C          -1.367000      7.851000     16.607000
H          -3.213000      8.520000     15.585000
H          -1.587000      6.948000     17.190000
H          -1.528000      8.672000     17.317000
C           0.202000      7.812000     16.427000
H           0.484000      6.890000     15.903000
C           1.048000      7.949000     17.727000
H           0.441000      8.673000     15.791000
H           1.029000      8.958000     18.158000
H           2.102000      7.795000     17.465000
C           0.753000      6.789000     18.730000
H          -0.248000      6.969000     19.142000
C           1.806000      6.611000     19.878000
H           0.734000      5.907000     18.078000
H           2.739000      6.165000     19.511000
H           1.510000      5.940000     20.694000
H           2.008000      7.571000     20.369000
C           7.371000      8.100000     13.104000
C           6.350000      8.134000     12.111000
N           7.655000      7.017000     13.873000
C           5.654000      6.928000     11.896000
C           6.965000      5.957000     13.633000
C           6.021000      5.747000     12.594000
C           5.386000      4.467000     12.232000
C           4.640000      4.343000     11.027000
C           5.223000      3.297000     13.033000
N           3.947000      3.281000     10.592000
N           5.698000      3.284000     14.257000
C           4.515000      2.174000     12.593000
C           3.853000      2.163000     11.344000
S           5.266000      1.846000     14.873000
N           4.475000      1.233000     13.582000
C           3.193000      0.999000     10.813000
S           2.340000     -0.308000     11.658000
C           3.155000      0.704000      9.475000
C           1.861000     -1.077000     10.159000
S           3.971000      1.480000      8.168000
C           2.429000     -0.410000      9.140000
C           0.805000     -2.078000     10.023000
C           3.334000      0.231000      7.140000
C           2.615000     -0.723000      7.765000
N           0.969000     -2.867000      8.959000
S          -0.671000     -2.204000     11.038000
C          -0.165000     -3.672000      8.896000
C          -1.100000     -3.485000      9.930000
C           8.135000      9.331000     13.312000
H           6.118000      9.026000     11.537000
H           4.818000      7.021000     11.208000
H           7.225000      5.142000     14.307000
H           4.560000      5.204000     10.364000
H           3.663000      0.198000      6.109000
H           2.203000     -1.586000      7.255000
H          -0.123000     -4.382000      8.080000
H          -2.075000     -3.949000      9.999000
H           8.834000      9.240000     14.153000
C           7.219000     10.502000     13.737000
H           8.623000      9.534000     12.350000
H           6.893000     10.389000     14.778000
H           6.301000     10.592000     13.143000
C           7.946000     11.854000     13.851000
H           8.901000     11.483000     14.242000
C           7.187000     12.820000     14.717000
H           8.072000     12.289000     12.851000
H           7.121000     12.384000     15.721000
H           6.195000     13.034000     14.300000
C           8.050000     14.068000     14.916000
H           9.043000     13.837000     15.320000
C           7.442000     15.135000     15.859000
H           8.115000     14.576000     13.946000
H           6.366000     15.128000     15.643000
H           8.066000     16.007000     15.628000
H           7.440000     15.008000     16.949000
$end

--------------------------------------------------------------

             Standard Nuclear Orientation (Angstroms)
    I     Atom           X                Y                Z
 ----------------------------------------------------------------
    1      C       2.4850981213    -5.4823686569     0.7688246679
    2      C       1.5407118805    -6.1960875836     0.0268698701
    3      N       2.3607505143    -4.2283037168     1.1331882205
    4      C       0.2177936794    -5.5955441900    -0.1567739853
    5      C       1.1340980371    -3.7440533146     0.9773445546
    6      C      -0.0119892054    -4.3452785732     0.4019036619
    7      C      -1.2762875351    -3.6525157042     0.2975899964
    8      C      -1.3039414212    -2.2160263372     0.1805320572
    9      C      -2.5603993665    -4.2720495805     0.5275347301
   10      N      -2.4051653485    -1.5247006194     0.1194696790
   11      N      -2.5800833445    -5.5992173877     0.8400713720
   12      C      -3.7127189603    -3.5018043269     0.7146918914
   13      C      -3.5995421310    -2.1280742356     0.3799507353
   14      S      -4.1925539716    -5.7444180805     1.3231554596
   15      N      -4.7529361295    -4.2335036723     1.2328089716
   16      C      -4.6467980062    -1.1021767947     0.6782770207
   17      S      -4.3192976985     0.5971143282     0.8764265300
   18      C      -6.0167127286    -1.2537450205     0.7401294764
   19      C      -5.9591942043     0.9404378153     1.3990826633
   20      S      -7.0055212697    -2.6406198403     0.3200081804
   21      C      -6.7115447610    -0.1364664420     1.1758163189
   22      C      -6.3132389018     2.1167459746     2.1753638407
   23      C      -8.4360660599    -1.7095919532     1.1024650014
   24      C      -8.1104907866    -0.3892793981     1.3986988589
   25      N      -7.5982652089     2.4254189671     2.3731500225
   26      S      -5.1567171440     3.0110105054     3.0710157668
   27      C      -7.6632858978     3.6190143182     3.1665272645
   28      C      -6.4197545955     4.0531859397     3.6612604282
   29      C       3.7962877321    -6.0485681524     0.9811379640
   30      H       1.8729185418    -7.1544470937    -0.3611350056
   31      H      -0.4851907492    -6.1543273309    -0.7676064456
   32      H       1.0797133822    -2.8303186264     1.5682152924
   33      H      -0.3395793877    -1.7347497925     0.0282338109
   34      H      -9.3709083283    -2.2436175168     1.2144008335
   35      H      -8.7894083273     0.3184122754     1.8603529157
   36      H      -8.6631147547     3.9719598185     3.3845954438
   37      H      -6.2551998683     4.9367762118     4.2625648209
   38      H       4.3214613386    -5.5942867005     1.8303959021
   39      C       4.6751858971    -5.8576493303    -0.2790421894
   40      H       3.7089215882    -7.1009858557     1.2766597647
   41      H       4.2099587323    -6.0716903226    -1.2493246940
   42      H       5.5225349543    -6.5531690870    -0.2309397664
   43      C       5.3572214755    -4.4482948530    -0.4893501237
   44      H       4.5911033186    -3.7121002268    -0.7636937803
   45      C       6.5217620551    -4.3938727695    -1.5215170071
   46      H       5.7763975076    -4.1817556753     0.4884976768
   47      H       7.4376114026    -4.8895761811    -1.1755385387
   48      H       6.8202997679    -3.3453389887    -1.6428765741
   49      C       6.0423933934    -4.7996583664    -2.9512644448
   50      H       5.8627518024    -5.8820415352    -2.9333598495
   51      C       7.0147115441    -4.4139022389    -4.1192484447
   52      H       5.0887658087    -4.2656569909    -3.0452110288
   53      H       6.9935505785    -3.3371565610    -4.3296408370
   54      H       6.7892860114    -4.8653643328    -5.0934549459
   55      H       8.0376789226    -4.7396818881    -3.8936595206
   56      C       7.5775973682     3.0495206107     0.6821993492
   57      C       6.5956153975     2.6563762464     1.6365551100
   58      N       7.3324504715     3.2183206529    -0.6430612081
   59      C       5.2826186089     2.5049461670     1.1485127306
   60      C       6.1135922146     3.0439075207    -1.0189130526
   61      C       4.9755031200     2.8036391075    -0.2054136351
   62      C       3.5690777339     2.7931665079    -0.6464657385
   63      C       2.5111677866     2.7738624502     0.3045184343
   64      C       3.0507231432     2.5963744584    -1.9616278607
   65      N       1.1937661151     2.6899352069     0.0705802936
   66      N       3.8831620575     2.4172247928    -2.9610881406
   67      C       1.6800641511     2.5189147403    -2.2286239645
   68      C       0.7232847014     2.5599364452    -1.1887892159
   69      S       2.9476124733     2.1561344244    -4.2612815090
   70      N       1.4785238496     2.2734330423    -3.5569018883
   71      C      -0.6966002728     2.5769931486    -1.4256282517
   72      S      -1.6412448125     1.8191609747    -2.7230179734
   73      C      -1.5807138646     3.2600765851    -0.6316174359
   74      C      -3.1640689266     2.3388291739    -2.0310969661
   75      S      -1.2572493733     4.3509387744     0.6651753026
   76      C      -2.9026778644     3.1153111713    -0.9659094613
   77      C      -4.4763003841     1.7926328927    -2.3707309221
   78      C      -2.9692670054     4.6460850714     0.7317957996
   79      C      -3.7037608544     4.0083550467    -0.2017571991
   80      N      -5.4730277558     2.6497621413    -2.1396962974
   81      S      -4.8184619503     0.1102910754    -2.8973507780
   82      C      -6.6503995178     1.9501559786    -2.3892898693
   83      C      -6.4865767171     0.6262133124    -2.8350340861
   84      C       8.9394384664     3.2543653953     1.1779295554
   85      H       6.8276115644     2.4907961669     2.6842788407
   86      H       4.5860092274     2.1059502634     1.8809242533
   87      H       5.9993650799     3.1644937233    -2.0952550658
   88      H       2.7548843634     2.7861761810     1.3664697525
   89      H      -3.3307836976     5.4192968094     1.3979341408
   90      H      -4.7741753161     4.1408762365    -0.3078892599
   91      H      -7.5316626592     2.5660163399    -2.2635469138
   92      H      -7.2770043521    -0.0959739524    -2.9910844249
   93      H       9.6428053204     3.4655976998     0.3625652305
   94      C       9.5108609083     1.9664257008     1.8148045323
   95      H       8.8596563049     4.0635299926     1.9152791748
   96      H       9.7754618606     1.2308422985     1.0456300435
   97      H       8.8165133953     1.4550426199     2.4930588178
   98      C      10.8934492479     2.1518317848     2.4655756649
   99      H      11.3081863880     2.8671439297     1.7452502940
  100      C      11.6158130731     0.8421961381     2.6146996967
  101      H      10.7751656291     2.6126556607     3.4548942895
  102      H      11.7658619450     0.4299732261     1.6096993948
  103      H      11.0583830279     0.1511003100     3.2592206824
  104      C      13.0356198037     1.1295371263     3.1081143339
  105      H      13.5751516993     1.8322744578     2.4618237053
  106      C      13.9440142076    -0.1177799298     3.2362617825
  107      H      12.9526956613     1.5051471873     4.1353580580
  108      H      13.2859793885    -0.9141523669     3.6067508083
  109      H      14.7653201848     0.2760156018     3.8474103497
  110      H      14.3874934662    -0.6015608810     2.3567646885
 ----------------------------------------------------------------

   10   -5663.4730915725      8.42E-06 Convergence criterion met
 Total energy in the final basis set = -5663.4730915725

                    Orbital Energies (a.u.)
 --------------------------------------------------------------

 Alpha MOs
 -- Occupied --
-88.990 -88.982 -88.930 -88.926 -88.917 -88.914 -88.904 -88.901
-14.396 -14.392 -14.380 -14.371 -14.348 -14.343 -14.343 -14.343
-14.326 -14.323 -10.268 -10.266 -10.266 -10.263 -10.259 -10.256
-10.248 -10.246 -10.235 -10.235 -10.235 -10.233 -10.232 -10.231
-10.231 -10.231 -10.230 -10.228 -10.227 -10.225 -10.225 -10.224
-10.223 -10.220 -10.217 -10.216 -10.216 -10.215 -10.214 -10.213
-10.211 -10.210 -10.201 -10.200 -10.200 -10.197 -10.193 -10.184
-10.182 -10.181 -10.180 -10.180 -10.177 -10.177 -10.176 -10.176
-10.176 -10.174 -10.173 -10.170  -8.046  -8.038  -7.990  -7.987
 -7.976  -7.974  -7.963  -7.962  -6.011  -6.005  -6.004  -6.003
 -5.997  -5.996  -5.953  -5.951  -5.950  -5.947  -5.947  -5.944
 -5.941  -5.938  -5.937  -5.934  -5.933  -5.930  -5.928  -5.927
 -5.925  -5.923  -5.919  -5.918  -1.037  -1.036  -0.963  -0.959
 -0.955  -0.955  -0.953  -0.947  -0.916  -0.915  -0.907  -0.901
 -0.846  -0.836  -0.831  -0.828  -0.816  -0.812  -0.805  -0.804
 -0.803  -0.803  -0.795  -0.793  -0.789  -0.781  -0.763  -0.761
 -0.745  -0.742  -0.735  -0.735  -0.721  -0.717  -0.712  -0.708
 -0.691  -0.689  -0.673  -0.669  -0.655  -0.655  -0.648  -0.639
 -0.634  -0.633  -0.628  -0.618  -0.610  -0.604  -0.597  -0.592
 -0.590  -0.586  -0.584  -0.580  -0.575  -0.574  -0.573  -0.553
 -0.551  -0.550  -0.542  -0.539  -0.522  -0.520  -0.508  -0.508
 -0.507  -0.504  -0.500  -0.497  -0.490  -0.485  -0.479  -0.475
 -0.471  -0.469  -0.468  -0.464  -0.464  -0.459  -0.445  -0.445
 -0.441  -0.440  -0.438  -0.436  -0.433  -0.431  -0.430  -0.428
 -0.427  -0.421  -0.419  -0.418  -0.417  -0.417  -0.413  -0.411
 -0.410  -0.406  -0.405  -0.404  -0.397  -0.396  -0.393  -0.392
 -0.391  -0.389  -0.388  -0.385  -0.385  -0.383  -0.381  -0.380
 -0.378  -0.375  -0.374  -0.374  -0.366  -0.365  -0.356  -0.355
 -0.353  -0.351  -0.350  -0.347  -0.344  -0.337  -0.337  -0.336
 -0.335  -0.332  -0.331  -0.331  -0.331  -0.326  -0.322  -0.319
 -0.315  -0.315  -0.314  -0.305  -0.303  -0.301  -0.297  -0.295
 -0.293  -0.293  -0.292  -0.291  -0.289  -0.286  -0.282  -0.278
 -0.273  -0.270  -0.263  -0.261  -0.258  -0.250  -0.249  -0.243
 -0.242  -0.235  -0.230  -0.224  -0.194  -0.188

          Ground-State Mulliken Net Atomic Charges

     Atom                 Charge (a.u.)
  ----------------------------------------
      1 C                     0.285421
      2 C                    -0.114662
      3 N                    -0.459244
      4 C                    -0.075388
      5 C                     0.046904
      6 C                     0.065659
      7 C                     0.001437
      8 C                     0.086778
      9 C                     0.197755
     10 N                    -0.497327
     11 N                    -0.542520
     12 C                     0.240277
     13 C                     0.254616
     14 S                     0.602966
     15 N                    -0.522848
     16 C                    -0.231093
     17 S                     0.323816
     18 C                    -0.121616
     19 C                    -0.249221
     20 S                     0.228508
     21 C                     0.179323
     22 C                     0.057551
     23 C                    -0.303744
     24 C                    -0.035526
     25 N                    -0.446745
     26 S                     0.302664
     27 C                     0.103960
     28 C                    -0.316472
     29 C                    -0.242405
     30 H                     0.094825
     31 H                     0.110807
     32 H                     0.098800
     33 H                     0.118504
     34 H                     0.127353
     35 H                     0.135525
     36 H                     0.115526
     37 H                     0.135839
     38 H                     0.114470
     39 C                    -0.186671
     40 H                     0.096840
     41 H                     0.098750
     42 H                     0.089720
     43 C                    -0.176650
     44 H                     0.104017
     45 C                    -0.182602
     46 H                     0.090211
     47 H                     0.087827
     48 H                     0.095474
     49 C                    -0.173389
     50 H                     0.095428
     51 C                    -0.328206
     52 H                     0.095996
     53 H                     0.105699
     54 H                     0.100262
     55 H                     0.103919
     56 C                     0.264726
     57 C                    -0.107412
     58 N                    -0.471733
     59 C                    -0.095482
     60 C                     0.085803
     61 C                     0.044143
     62 C                     0.078178
     63 C                     0.040655
     64 C                     0.198933
     65 N                    -0.525188
     66 N                    -0.552302
     67 C                     0.228249
     68 C                     0.276358
     69 S                     0.593683
     70 N                    -0.560063
     71 C                    -0.207015
     72 S                     0.306193
     73 C                    -0.100156
     74 C                    -0.235425
     75 S                     0.272591
     76 C                     0.170244
     77 C                     0.041614
     78 C                    -0.296881
     79 C                    -0.050706
     80 N                    -0.414802
     81 S                     0.297626
     82 C                     0.121719
     83 C                    -0.312688
     84 C                    -0.238249
     85 H                     0.097561
     86 H                     0.104093
     87 H                     0.116103
     88 H                     0.098028
     89 H                     0.118602
     90 H                     0.126850
     91 H                     0.115308
     92 H                     0.137158
     93 H                     0.116476
     94 C                    -0.196313
     95 H                     0.111897
     96 H                     0.102170
     97 H                     0.088196
     98 C                    -0.165695
     99 H                     0.093748
    100 C                    -0.176028
    101 H                     0.086997
    102 H                     0.094915
    103 H                     0.094677
    104 C                    -0.173985
    105 H                     0.096595
    106 C                    -0.319968
    107 H                     0.093627
    108 H                     0.098321
    109 H                     0.101296
    110 H                     0.099656
  ----------------------------------------
  Sum of atomic charges =     0.000000

                    Cartesian Multipole Moments
 -----------------------------------------------------------------
    Charge (ESU x 10^10)
                 0.0000
    Dipole Moment (Debye)
         X      -2.1080      Y      -2.1966      Z       1.9743
       Tot       3.6286
    Quadrupole Moments (Debye-Ang)
        XX    -417.3758     XY      -5.0588     YY    -422.7423
        XZ       2.8269     YZ      22.4576     ZZ    -436.1359

 Total job time:  99.32s(wall), 1185.67s(cpu)
        *  Thank you very much for using Q-Chem.  Have a nice day.  *
