 Q-Chem 4.4, Q-Chem, Inc., Pleasanton, CA (2016)
 Q-Chem 4.4.2 for Intel X86 Linux

User input:
--------------------------------------------------------------
$comment
SP
$end

$rem
MEM_STATIC 5000
MEM_TOTAL 20000
JOBTYPE SP
EXCHANGE B3LYP
BASIS 6-31g(d,p)
$end

$molecule
0 1
C         -26.963000    -21.332000    -14.672000
C         -26.426000    -22.607000    -14.699000
N         -26.518000    -20.444000    -13.785000
C         -25.308000    -22.899000    -13.923000
C         -25.475000    -20.698000    -13.012000
C         -24.816000    -21.963000    -13.014000
C         -23.737000    -22.287000    -12.085000
C         -23.857000    -23.453000    -11.334000
C         -22.687000    -21.425000    -11.695000
N         -22.994000    -23.816000    -10.366000
N         -22.364000    -20.319000    -12.355000
C         -21.853000    -21.762000    -10.708000
C         -21.974000    -22.976000    -10.017000
S         -21.137000    -19.621000    -11.499000
N         -20.877000    -20.815000    -10.422000
C         -21.132000    -23.371000     -8.900000
S         -20.186000    -22.302000     -7.855000
C         -20.910000    -24.667000     -8.485000
C         -19.704000    -23.634000     -6.757000
S         -21.848000    -26.067000     -8.864000
C         -20.174000    -24.777000     -7.336000
C         -18.852000    -23.567000     -5.606000
C         -20.853000    -26.945000     -7.736000
C         -20.058000    -26.128000     -6.901000
N         -19.047000    -22.500000     -4.867000
S         -17.662000    -24.699000     -5.017000
C         -18.195000    -22.497000     -3.777000
C         -17.357000    -23.594000     -3.726000
C         -28.062000    -20.770000    -15.531000
H         -26.901000    -23.312000    -15.374000
H         -24.804000    -23.858000    -13.999000
H         -25.188000    -19.904000    -12.323000
H         -24.717000    -24.108000    -11.466000
H         -20.992000    -28.016000     -7.672000
H         -19.500000    -26.477000     -6.040000
H         -18.225000    -21.632000     -3.128000
H         -16.697000    -23.983000     -2.962000
H         -28.975000    -21.318000    -15.268000
C         -27.807000    -20.942000    -17.035000
H         -28.337000    -19.731000    -15.311000
H         -28.112000    -21.976000    -17.241000
H         -26.773000    -20.823000    -17.380000
C         -28.711000    -20.016000    -17.878000
H         -29.788000    -20.151000    -17.716000
C         -28.560000    -20.040000    -19.380000
H         -28.459000    -19.002000    -17.547000
H         -28.587000    -21.114000    -19.603000
H         -27.545000    -19.764000    -19.691000
C         -29.593000    -19.359000    -20.273000
H         -29.421000    -19.627000    -21.323000
C         -29.627000    -17.812000    -20.182000
H         -30.573000    -19.768000    -19.999000
H         -30.637000    -17.384000    -20.165000
H         -29.072000    -17.368000    -21.018000
H         -29.199000    -17.499000    -19.222000
C         -21.181000    -21.518000      0.903000
C         -21.131000    -22.166000     -0.302000
N         -20.788000    -20.263000      1.179000
C         -20.706000    -21.430000     -1.408000
C         -20.279000    -19.600000      0.140000
C         -20.159000    -20.121000     -1.186000
C         -19.574000    -19.326000     -2.310000
C         -20.160000    -19.454000     -3.622000
C         -18.494000    -18.409000     -2.176000
N         -19.665000    -18.745000     -4.655000
N         -17.822000    -18.108000     -1.044000
C         -18.111000    -17.590000     -3.230000
C         -18.686000    -17.805000     -4.482000
S         -16.775000    -16.992000     -1.305000
N         -17.134000    -16.735000     -2.902000
C         -18.174000    -17.125000     -5.679000
S         -17.076000    -15.720000     -5.719000
C         -18.493000    -17.493000     -6.961000
C         -16.948000    -15.847000     -7.485000
S         -19.182000    -19.082000     -7.533000
C         -17.812000    -16.810000     -7.923000
C         -15.850000    -15.247000     -8.222000
C         -18.697000    -18.597000     -9.152000
C         -17.896000    -17.430000     -9.222000
N         -14.891000    -14.659000     -7.481000
S         -15.670000    -15.258000     -9.923000
C         -13.881000    -14.346000     -8.309000
C         -14.120000    -14.503000     -9.662000
C         -21.860000    -22.269000      2.069000
H         -21.591000    -23.139000     -0.445000
H         -20.793000    -21.948000     -2.358000
H         -20.079000    -18.538000      0.276000
H         -21.001000    -20.141000     -3.694000
H         -18.987000    -19.269000     -9.949000
H         -17.359000    -17.109000    -10.107000
H         -12.993000    -13.826000     -7.977000
H         -13.388000    -14.171000    -10.387000
H         -22.956000    -22.329000      2.060000
C         -21.731000    -21.611000      3.451000
H         -21.399000    -23.263000      2.126000
H         -22.334000    -20.698000      3.371000
H         -20.723000    -21.236000      3.670000
C         -22.076000    -22.578000      4.603000
H         -21.605000    -23.561000      4.480000
C         -23.584000    -22.543000      4.974000
H         -21.505000    -22.262000      5.485000
H         -24.153000    -23.001000      4.156000
H         -23.665000    -21.458000      4.830000
C         -23.908000    -23.087000      6.378000
H         -23.710000    -24.165000      6.336000
C         -25.262000    -22.496000      6.925000
H         -23.123000    -22.542000      6.916000
H         -25.552000    -22.920000      7.894000
H         -26.091000    -22.653000      6.224000
H         -25.130000    -21.407000      6.900000
$end

--------------------------------------------------------------

             Standard Nuclear Orientation (Angstroms)
    I     Atom           X                Y                Z
 ----------------------------------------------------------------
    1      C      -9.2274226794    -2.7612353882     1.4532394470
    2      C      -9.0757732664    -3.2452421127     0.1658145186
    3      N      -8.2338123120    -2.0872939138     2.0293291335
    4      C      -7.9610602099    -2.8753818119    -0.5811675157
    5      C      -7.1477529856    -1.7426715766     1.3573138181
    6      C      -6.9300584092    -2.1423935183     0.0055218812
    7      C      -5.6858049814    -1.8611419879    -0.7051038881
    8      C      -5.0331757877    -2.9283254165    -1.3159653005
    9      C      -4.9472760250    -0.6574758776    -0.6467354429
   10      N      -3.8279909713    -2.8325135252    -1.9091867093
   11      N      -5.4443271339     0.4852334070    -0.1881281096
   12      C      -3.7341852210    -0.5690712985    -1.1979970247
   13      C      -3.1385244524    -1.6536342231    -1.8574130627
   14      S      -4.2086637890     1.5779383986    -0.2559580397
   15      N      -3.1182423750     0.6682731696    -1.0538648708
   16      C      -1.8012726302    -1.6329763675    -2.4266307864
   17      S      -0.4834551796    -0.5329044676    -1.9989615424
   18      C      -1.3453617847    -2.4641593309    -3.4278326553
   19      C       0.7029349387    -1.3882805046    -3.0348004886
   20      S      -2.0388651777    -3.9569083500    -3.9515104282
   21      C      -0.0127801039    -2.3324459492    -3.7122173404
   22      C       2.0792583943    -1.0575873415    -3.2618902895
   23      C      -0.6418507267    -4.1599256308    -4.9715239611
   24      C       0.4244765075    -3.2790798270    -4.6820487469
   25      N       2.7124713706    -0.6650382478    -2.1813434207
   26      S       3.0370499569    -1.1564511986    -4.7169869393
   27      C       4.0311089990    -0.3615803572    -2.4696507458
   28      C       4.3622355444    -0.5383522108    -3.7990720194
   29      C     -10.4111271656    -2.9138676185     2.3681564332
   30      H      -9.8796783781    -3.8718369021    -0.2075359083
   31      H      -7.8642956063    -3.1558437054    -1.6258927130
   32      H      -6.3955545519    -1.1892060444     1.9189181460
   33      H      -5.4619932086    -3.9288660378    -1.2830550487
   34      H      -0.6389523926    -4.9959134147    -5.6582364372
   35      H       1.4231560322    -3.3559700096    -5.0958278024
   36      H       4.6358712599     0.0318464466    -1.6635465604
   37      H       5.3052437731    -0.5465275502    -4.3294357100
   38      H     -10.4873583101    -3.9822281871     2.6044539324
   39      C     -11.7331907450    -2.4599626347     1.7335359499
   40      H     -10.2924490943    -2.4592932075     3.3595310446
   41      H     -12.0409187406    -3.3145787587     1.1174582264
   42      H     -11.6950803417    -1.5764745431     1.0852008597
   43      C     -12.8309841899    -2.2365282541     2.7966764062
   44      H     -13.0557265799    -3.1124796340     3.4184464909
   45      C     -14.1862403150    -1.7548601884     2.3377017774
   46      H     -12.4247423881    -1.4647233436     3.4604126329
   47      H     -14.4133011733    -2.4404335721     1.5116469959
   48      H     -14.1216244766    -0.7873361838     1.8250185477
   49      C     -15.3778420019    -1.7727109788     3.2906266271
   50      H     -16.3041168123    -1.5598878432     2.7423299113
   51      C     -15.2919532621    -0.7750838418     4.4738464798
   52      H     -15.4660034691    -2.7962460136     3.6745023731
   53      H     -15.6247011045    -1.1865622840     5.4348549944
   54      H     -15.8784008733     0.1265225580     4.2564940034
   55      H     -14.2404820391    -0.5203820931     4.6535358967
   56      C       7.3841509951    -2.9853703616     1.2249226241
   57      C       6.2670131859    -3.0726637339     0.4382765902
   58      N       7.7899441976    -1.9391816773     1.9641594694
   59      C       5.3845433614    -1.9926341863     0.4567206991
   60      C       6.9989662833    -0.8681319282     1.8908288890
   61      C       5.7938519236    -0.7896730232     1.1255442491
   62      C       4.9507695506     0.4452028067     1.0817287603
   63      C       3.5158004952     0.2988523752     1.0578674684
   64      C       5.4602716794     1.7738153937     1.1027329150
   65      N       2.7259353091     1.3897505576     1.0287274021
   66      N       6.7579166820     2.1434853957     1.1581453391
   67      C       4.6125627707     2.8673261467     1.2210115661
   68      C       3.2369616221     2.6540617942     1.1398093743
   69      S       6.8873131659     3.6873323296     1.2560186989
   70      N       5.2674768683     4.0322066203     1.3063286619
   71      C       2.2990854117     3.7800875521     1.0407780345
   72      S       2.6557154359     5.4963460055     1.3701728536
   73      C       0.9833876379     3.6477857675     0.6772610392
   74      C       1.0441846796     5.9618083667     0.7891544272
   75      S       0.1942900949     2.2495952501    -0.1883106475
   76      C       0.3247029552     4.8307020750     0.5271360971
   77      C       0.7410896540     7.3170753512     0.3647044227
   78      C      -1.1500771111     3.3359428108    -0.5110129759
   79      C      -0.9270260746     4.6946113058    -0.1753670976
   80      N       1.7746512603     8.1809212700     0.3595435604
   81      S      -0.7904584334     7.8796870914    -0.1488620147
   82      C       1.3532779812     9.3055420017    -0.2415602321
   83      C       0.0006274679     9.3895130300    -0.5166319593
   84      C       8.2341787760    -4.2663251261     1.3705442674
   85      H       5.9647820839    -4.0094246027    -0.0198865201
   86      H       4.4596801440    -2.1534004360    -0.0884171203
   87      H       7.2047069526    -0.0486182978     2.5781484557
   88      H       3.1495829215    -0.7259386961     1.0689105120
   89      H      -2.0035591960     2.8911307143    -1.0055870651
   90      H      -1.5666633950     5.5135786968    -0.4832493980
   91      H       1.9782148219    10.1817575804    -0.3458109144
   92      H      -0.4209809265    10.3083584188    -0.9034685052
   93      H       7.8431510924    -5.0598788719     2.0203648605
   94      C       9.5796919929    -4.0953139417     2.0915701741
   95      H       8.4403205951    -4.6349352615     0.3579050827
   96      H       9.3018350121    -3.8732542770     3.1293866336
   97      H      10.1393921251    -3.2047046851     1.7781999234
   98      C      10.5313054046    -5.2882951831     1.8625599730
   99      H      10.5723222155    -5.5953893187     0.8102910848
  100      C      10.3535472358    -6.4012718742     2.9314916446
  101      H      11.5595530015    -4.9125577810     1.9356987737
  102      H       9.3848358535    -6.8883246418     2.7670931674
  103      H      10.1990830193    -5.6864814349     3.7498665182
  104      C      11.5520677362    -7.3601358823     3.0589923279
  105      H      11.5730559034    -7.9407923160     2.1286968895
  106      C      11.5974277360    -8.0375678912     4.4805528591
  107      H      12.3343636700    -6.5920346009     3.0859644124
  108      H      12.4010765494    -8.7778926865     4.5749180119
  109      H      10.6501483250    -8.5311840030     4.7301442285
  110      H      11.6287855045    -7.2044719056     5.1939516040
 ----------------------------------------------------------------

    9   -5663.4885907540      7.13E-06 Convergence criterion met
 Total energy in the final basis set = -5663.4885907540

                    Orbital Energies (a.u.)
 --------------------------------------------------------------

 Alpha MOs
 -- Occupied --
-88.995 -88.990 -88.933 -88.932 -88.923 -88.916 -88.910 -88.904
-14.393 -14.382 -14.373 -14.372 -14.352 -14.348 -14.344 -14.338
-14.331 -14.321 -10.269 -10.265 -10.264 -10.257 -10.253 -10.251
-10.251 -10.244 -10.241 -10.239 -10.239 -10.238 -10.234 -10.233
-10.232 -10.232 -10.226 -10.226 -10.226 -10.226 -10.225 -10.224
-10.224 -10.223 -10.223 -10.222 -10.221 -10.219 -10.219 -10.214
-10.213 -10.212 -10.204 -10.203 -10.202 -10.200 -10.200 -10.195
-10.186 -10.185 -10.180 -10.180 -10.179 -10.177 -10.175 -10.173
-10.171 -10.171 -10.171 -10.167  -8.050  -8.046  -7.995  -7.993
 -7.981  -7.974  -7.970  -7.962  -6.015  -6.011  -6.009  -6.008
 -6.005  -6.004  -5.958  -5.957  -5.955  -5.954  -5.952  -5.951
 -5.945  -5.942  -5.938  -5.938  -5.935  -5.934  -5.931  -5.930
 -5.927  -5.926  -5.924  -5.918  -1.045  -1.044  -0.975  -0.970
 -0.959  -0.950  -0.946  -0.944  -0.919  -0.907  -0.905  -0.897
 -0.845  -0.838  -0.831  -0.831  -0.818  -0.814  -0.813  -0.811
 -0.808  -0.803  -0.802  -0.795  -0.789  -0.782  -0.772  -0.762
 -0.753  -0.745  -0.744  -0.734  -0.722  -0.717  -0.715  -0.705
 -0.697  -0.688  -0.678  -0.673  -0.661  -0.653  -0.648  -0.642
 -0.641  -0.633  -0.630  -0.623  -0.616  -0.609  -0.605  -0.597
 -0.596  -0.587  -0.586  -0.582  -0.579  -0.574  -0.562  -0.561
 -0.551  -0.545  -0.543  -0.538  -0.530  -0.525  -0.523  -0.514
 -0.510  -0.509  -0.504  -0.493  -0.491  -0.480  -0.478  -0.478
 -0.474  -0.472  -0.471  -0.469  -0.467  -0.462  -0.451  -0.448
 -0.448  -0.447  -0.441  -0.435  -0.435  -0.435  -0.432  -0.431
 -0.428  -0.426  -0.423  -0.422  -0.421  -0.420  -0.416  -0.415
 -0.410  -0.409  -0.407  -0.404  -0.402  -0.401  -0.397  -0.396
 -0.395  -0.393  -0.392  -0.390  -0.388  -0.387  -0.386  -0.382
 -0.381  -0.380  -0.374  -0.372  -0.365  -0.363  -0.359  -0.357
 -0.355  -0.351  -0.350  -0.349  -0.345  -0.345  -0.343  -0.334
 -0.332  -0.331  -0.327  -0.326  -0.322  -0.321  -0.320  -0.315
 -0.314  -0.311  -0.305  -0.304  -0.301  -0.301  -0.301  -0.297
 -0.296  -0.295  -0.294  -0.293  -0.289  -0.287  -0.286  -0.283
 -0.277  -0.271  -0.269  -0.268  -0.256  -0.254  -0.249  -0.246
 -0.244  -0.239  -0.233  -0.226  -0.197  -0.186

          Ground-State Mulliken Net Atomic Charges

     Atom                 Charge (a.u.)
  ----------------------------------------
      1 C                     0.283068
      2 C                    -0.118740
      3 N                    -0.482506
      4 C                    -0.084806
      5 C                     0.103195
      6 C                     0.030005
      7 C                     0.014187
      8 C                     0.071851
      9 C                     0.256649
     10 N                    -0.531705
     11 N                    -0.552871
     12 C                     0.191916
     13 C                     0.298762
     14 S                     0.617804
     15 N                    -0.582344
     16 C                    -0.229489
     17 S                     0.381037
     18 C                    -0.115765
     19 C                    -0.221500
     20 S                     0.299325
     21 C                     0.142513
     22 C                     0.022990
     23 C                    -0.317178
     24 C                    -0.072549
     25 N                    -0.419134
     26 S                     0.281342
     27 C                     0.121092
     28 C                    -0.312621
     29 C                    -0.229638
     30 H                     0.088518
     31 H                     0.101334
     32 H                     0.105564
     33 H                     0.117461
     34 H                     0.124998
     35 H                     0.108805
     36 H                     0.121941
     37 H                     0.141299
     38 H                     0.109356
     39 C                    -0.180660
     40 H                     0.124593
     41 H                     0.091689
     42 H                     0.105667
     43 C                    -0.173964
     44 H                     0.087542
     45 C                    -0.182890
     46 H                     0.096052
     47 H                     0.084000
     48 H                     0.086154
     49 C                    -0.176665
     50 H                     0.096774
     51 C                    -0.324743
     52 H                     0.091346
     53 H                     0.103225
     54 H                     0.105747
     55 H                     0.107180
     56 C                     0.273240
     57 C                    -0.101673
     58 N                    -0.478140
     59 C                    -0.097130
     60 C                     0.105130
     61 C                     0.016880
     62 C                    -0.016694
     63 C                     0.107029
     64 C                     0.211726
     65 N                    -0.540394
     66 N                    -0.528688
     67 C                     0.239037
     68 C                     0.307853
     69 S                     0.613676
     70 N                    -0.595434
     71 C                    -0.230144
     72 S                     0.355923
     73 C                    -0.138554
     74 C                    -0.229807
     75 S                     0.336550
     76 C                     0.146569
     77 C                     0.050283
     78 C                    -0.321205
     79 C                    -0.088572
     80 N                    -0.421039
     81 S                     0.290583
     82 C                     0.124718
     83 C                    -0.311787
     84 C                    -0.239510
     85 H                     0.097442
     86 H                     0.118625
     87 H                     0.108195
     88 H                     0.127600
     89 H                     0.127238
     90 H                     0.108616
     91 H                     0.109986
     92 H                     0.126033
     93 H                     0.116481
     94 C                    -0.182943
     95 H                     0.100476
     96 H                     0.103465
     97 H                     0.099505
     98 C                    -0.195472
     99 H                     0.081231
    100 C                    -0.175358
    101 H                     0.085572
    102 H                     0.086599
    103 H                     0.094012
    104 C                    -0.179109
    105 H                     0.097933
    106 C                    -0.315905
    107 H                     0.100596
    108 H                     0.103016
    109 H                     0.102201
    110 H                     0.108331
  ----------------------------------------
  Sum of atomic charges =     0.000000

                    Cartesian Multipole Moments
 -----------------------------------------------------------------
    Charge (ESU x 10^10)
                 0.0000
    Dipole Moment (Debye)
         X      -1.7987      Y      -0.8972      Z      -4.2996
       Tot       4.7462
    Quadrupole Moments (Debye-Ang)
        XX    -423.7339     XY       1.8884     YY    -412.5622
        XZ      -9.0028     YZ       2.0188     ZZ    -442.3203

 Total job time:  83.83s(wall), 994.58s(cpu)
        *  Thank you very much for using Q-Chem.  Have a nice day.  *
