 Q-Chem 4.4, Q-Chem, Inc., Pleasanton, CA (2016)
 Q-Chem 4.4.2 for Intel X86 Linux

User input:
--------------------------------------------------------------
$comment
SP
$end

$rem
MEM_STATIC 5000
MEM_TOTAL 20000
JOBTYPE SP
EXCHANGE B3LYP
BASIS 6-31g(d,p)
$end

$molecule
0 1
C           8.123000    -18.848000     -1.661000
C           9.357000    -18.541000     -1.086000
N           7.869000    -18.915000     -3.033000
C          10.421000    -18.072000     -1.890000
C           8.982000    -18.625000     -3.817000
C          10.205000    -18.045000     -3.297000
C          11.221000    -17.471000     -4.243000
C          12.615000    -17.696000     -3.926000
C          10.963000    -16.645000     -5.361000
N          13.567000    -17.242000     -4.726000
N           9.707000    -16.247000     -5.692000
C          12.015000    -15.994000     -6.045000
C          13.357000    -16.438000     -5.814000
S           9.904000    -14.979000     -6.747000
N          11.580000    -14.939000     -6.841000
C          14.552000    -15.929000     -6.439000
S          14.719000    -14.478000     -7.392000
C          15.797000    -16.529000     -6.294000
C          16.430000    -14.579000     -7.376000
S          16.322000    -18.068000     -5.595000
C          16.841000    -15.830000     -6.810000
C          17.335000    -13.448000     -7.732000
C          17.932000    -17.778000     -6.358000
C          18.040000    -16.538000     -6.921000
N          18.484000    -13.666000     -8.163000
S          16.746000    -11.763000     -7.688000
C          19.054000    -12.495000     -8.610000
C          18.269000    -11.368000     -8.423000
C           6.916000    -19.205000     -0.763000
H           9.458000    -18.673000     -0.013000
H          11.388000    -17.779000     -1.493000
H           8.924000    -18.681000     -4.903000
H          12.971000    -18.385000     -3.161000
H          18.715000    -18.524000     -6.321000
H          18.967000    -16.192000     -7.365000
H          20.111000    -12.515000     -8.838000
H          18.571000    -10.371000     -8.715000
H           6.918000    -18.311000     -0.127000
C           7.063000    -20.578000     -0.063000
H           5.981000    -19.189000     -1.336000
H           7.731000    -20.555000      0.807000
H           7.477000    -21.347000     -0.728000
C           5.825000    -21.035000      0.714000
H           5.003000    -21.168000      0.000000
C           5.294000    -20.095000      1.808000
H           6.046000    -22.005000      1.177000
H           4.465000    -20.666000      2.244000
H           5.007000    -19.156000      1.319000
C           6.349000    -19.725000      2.832000
H           6.744000    -20.670000      3.225000
C           5.563000    -18.999000      3.965000
H           7.199000    -19.171000      2.416000
H           4.712000    -19.623000      4.264000
H           5.089000    -18.058000      3.658000
H           6.098000    -18.825000      4.907000
C          13.413000    -20.486000     -6.767000
C          14.535000    -21.326000     -6.536000
N          13.421000    -19.481000     -7.652000
C          15.676000    -21.023000     -7.227000
C          14.526000    -19.296000     -8.434000
C          15.748000    -20.038000     -8.291000
C          16.993000    -19.629000     -9.030000
C          17.179000    -18.235000     -9.471000
C          18.094000    -20.424000     -9.319000
N          18.317000    -17.735000     -9.928000
N          18.158000    -21.719000     -8.844000
C          19.201000    -19.927000     -9.962000
C          19.375000    -18.547000    -10.226000
S          19.533000    -22.315000     -9.556000
N          20.154000    -20.915000    -10.185000
C          20.629000    -18.033000    -10.760000
S          22.087000    -18.930000    -11.410000
C          20.848000    -16.683000    -11.146000
C          22.927000    -17.475000    -11.765000
S          19.811000    -15.326000    -10.916000
C          22.135000    -16.387000    -11.617000
C          24.279000    -17.440000    -12.298000
C          21.148000    -14.260000    -11.596000
C          22.294000    -14.997000    -11.844000
N          24.660000    -16.525000    -13.122000
S          25.499000    -18.693000    -12.059000
C          25.908000    -16.713000    -13.576000
C          26.577000    -17.787000    -13.050000
C          12.175000    -20.627000     -5.897000
H          14.452000    -22.186000     -5.878000
H          16.617000    -21.426000     -6.864000
H          14.356000    -18.457000     -9.107000
H          16.453000    -17.534000     -9.062000
H          20.925000    -13.213000    -11.751000
H          23.177000    -14.615000    -12.345000
H          26.374000    -15.915000    -14.139000
H          27.580000    -18.072000    -13.339000
H          12.386000    -20.419000     -4.841000
C          11.487000    -22.060000     -5.983000
H          11.384000    -19.894000     -6.100000
H          12.284000    -22.800000     -5.847000
H          11.070000    -22.331000     -6.961000
C          10.353000    -22.233000     -4.860000
H           9.575000    -21.460000     -4.829000
C          11.105000    -22.366000     -3.428000
H           9.856000    -23.204000     -4.977000
H          11.490000    -21.370000     -3.178000
H          11.846000    -23.173000     -3.491000
C          10.080000    -22.811000     -2.378000
H           9.224000    -22.131000     -2.472000
C          10.603000    -23.018000     -0.912000
H           9.650000    -23.756000     -2.732000
H           9.787000    -23.243000     -0.214000
H          10.929000    -22.013000     -0.617000
H          11.404000    -23.767000     -0.875000
$end

--------------------------------------------------------------

             Standard Nuclear Orientation (Angstroms)
    I     Atom           X                Y                Z
 ----------------------------------------------------------------
    1      C      -8.9786993550    -0.3538659774     0.0028304189
    2      C      -8.2751936468    -0.4630721881    -1.1974960875
    3      N      -8.4001598659    -0.3124874095     1.2736446751
    4      C      -6.8895598818    -0.7430941026    -1.1885631886
    5      C      -7.0116516989    -0.4081791183     1.2533181643
    6      C      -6.2471175454    -0.7878568200     0.0811998379
    7      C      -4.8034414143    -1.1775628485     0.2246447396
    8      C      -3.8965379719    -0.7327569089    -0.8117064665
    9      C      -4.2500938879    -2.0209546181     1.2152308479
   10      N      -2.6054033963    -1.0162374964    -0.7407821102
   11      N      -5.0137474442    -2.6138398772     2.1696004385
   12      C      -2.9179906020    -2.4839419191     1.1177393361
   13      C      -2.0338381064    -1.8304818353     0.1997386371
   14      S      -4.0690494533    -3.8201020562     2.8115780560
   15      N      -2.6609786923    -3.5859368600     1.9273182566
   16      C      -0.6405978982    -2.1308318417    -0.0156739803
   17      S       0.2466232038    -3.5237551649     0.5447743510
   18      C       0.1934014520    -1.3381910815    -0.7949144498
   19      C       1.5996448193    -3.1461146252    -0.4374161249
   20      S      -0.0027841749     0.2571325266    -1.5359952721
   21      C       1.4287654133    -1.8518660663    -1.0290231705
   22      C       2.6911277988    -4.1105417001    -0.7590794932
   23      C       1.7733950553     0.2419925509    -1.8574406382
   24      C       2.3585003587    -0.9570571362    -1.5639025120
   25      N       3.8338343442    -3.7034409078    -1.0453952211
   26      S       2.4271950101    -5.8692918511    -0.6002733558
   27      C       4.7139668042    -4.7607000470    -1.1047245167
   28      C       4.1318831639    -6.0025101778    -0.9037040328
   29      C     -10.5180039013    -0.2087307801    -0.0105594378
   30      H      -8.8319478894    -0.3293774806    -2.1200493047
   31      H      -6.3000087938    -0.8797481655    -2.0898412710
   32      H      -6.4390514554    -0.3492409585     2.1777375791
   33      H      -4.1480944209    -0.0043349111    -1.5816433120
   34      H       2.2777273849     1.1048695190    -2.2722493162
   35      H       3.4088835572    -1.1423473804    -1.7602279095
   36      H       5.6930976482    -4.5663599991    -1.5208587932
   37      H       4.6826355477    -6.9335426853    -0.9217949621
   38      H     -10.7588033763    -1.0981262676    -0.6061492964
   39      C     -10.9956591483     1.1613441469    -0.5504466106
   40      H     -10.9370422094    -0.3696138145     0.9901071128
   41      H     -10.9574485880     1.2367510857    -1.6442961188
   42      H     -10.3860219572     1.9953982617    -0.1793964404
   43      C     -12.5039961794     1.4015627265    -0.4389278470
   44      H     -12.7715239898     1.4077614723     0.6248199832
   45      C     -13.4315860566     0.3745921842    -1.1077368817
   46      H     -12.7290052512     2.3889236613    -0.8615379534
   47      H     -14.4299335552     0.7979021028    -0.9419388569
   48      H     -13.2489843912    -0.5926001682    -0.6235813435
   49      C     -13.1225355218     0.1687026257    -2.5776342443
   50      H     -13.1636654624     1.1605335707    -3.0446232212
   51      C     -14.3076527413    -0.6890617229    -3.1145685961
   52      H     -12.1212172739    -0.2346620073    -2.7703276261
   53      H     -15.2519916300    -0.2153830455    -2.8198983160
   54      H     -14.3802884632    -1.6908292676    -2.6723109356
   55      H     -14.3969199823    -0.7851281035    -4.2039113384
   56      C      -2.0037348151     2.1839733193     1.2864274629
   57      C      -1.3518483735     3.1923660964     0.5274590352
   58      N      -1.3459560730     1.2044101241     1.9197497135
   59      C       0.0072988823     3.0872774234     0.4141183644
   60      C       0.0203007121     1.2109887092     1.9111987275
   61      C       0.8171257272     2.1400142383     1.1586839690
   62      C       2.3024495612     1.9478325527     1.0161837663
   63      C       2.9013577186     0.6080514588     1.1525972529
   64      C       3.2439838867     2.9146940021     0.6899337830
   65      N       4.1504830838     0.3052844030     0.8333623360
   66      N       2.8403719713     4.1970355744     0.3745871266
   67      C       4.5751530767     2.6120932629     0.5405069435
   68      C       5.0602503867     1.2820358967     0.5404596660
   69      S       4.2743516678     5.0172174802     0.2203507126
   70      N       5.3325749732     3.7445124867     0.2611849567
   71      C       6.4491045034     0.9852462214     0.2166261731
   72      S       7.8720224343     2.1151466513    -0.0103156266
   73      C       7.0366568049    -0.3064225538     0.2929876047
   74      C       8.9558809087     0.8204743808    -0.3229248389
   75      S       6.2591452763    -1.8166465023     0.5835344136
   76      C       8.3852400450    -0.3835245909    -0.0827842948
   77      C      10.3561078606     1.0121972525    -0.6632553012
   78      C       7.8761452336    -2.6427924901     0.2850064505
   79      C       8.8383028905    -1.7263338657    -0.1053078243
   80      N      11.2661461127     0.1813377801    -0.2852805442
   81      S      11.0245408132     2.4439010800    -1.4499900330
   82      C      12.5059597812     0.5752138122    -0.6119114350
   83      C      12.5904320740     1.7372609696    -1.3331768756
   84      C      -3.5216485339     2.1112965386     1.2954290054
   85      H      -1.9186383546     4.0194172180     0.1101000055
   86      H       0.4983845484     3.6334945867    -0.3859695551
   87      H       0.3893014147     0.3637034650     2.4871294495
   88      H       2.1790655621    -0.2065472544     1.1745284386
   89      H       7.9324522660    -3.7101685946     0.4508400110
   90      H       9.8912311160    -1.9536077573    -0.2329899688
   91      H      13.3173309125    -0.1295437691    -0.4857264958
   92      H      13.5243446864     2.1850125610    -1.6463553306
   93      H      -3.9326261377     1.9276301404     0.2952864839
   94      C      -4.2255219464     3.4143029642     1.8793514953
   95      H      -3.9383800366     1.2619500026     1.8514184985
   96      H      -3.7662543309     4.2723406308     1.3752189531
   97      H      -4.0340902164     3.6256915367     2.9388243662
   98      C      -5.8103308806     3.3870511097     1.6250839620
   99      H      -6.3461355122     2.4975269736     1.9792508834
  100      C      -6.0508402525     3.6232398727     0.0375742423
  101      H      -6.2781508664     4.2656673318     2.0862964891
  102      H      -5.7464211610     2.7001420149    -0.4703237413
  103      H      -5.5310692245     4.5406799266    -0.2664665872
  104      C      -7.5437953219     3.8829524132    -0.1964867689
  105      H      -8.0831531037     3.0740120757     0.3121198705
  106      C      -7.9984817753     4.1545081512    -1.6746788100
  107      H      -7.8172407072     4.7496724282     0.4177322774
  108      H      -9.0893432257     4.2353964263    -1.7593155807
  109      H      -7.7662506113     3.2123945793    -2.1863590853
  110      H      -7.4800887730     5.0232715336    -2.0995198162
 ----------------------------------------------------------------

   10   -5663.4911543224      5.54E-06 Convergence criterion met
 Total energy in the final basis set = -5663.4911543224

                    Orbital Energies (a.u.)
 --------------------------------------------------------------

 Alpha MOs
 -- Occupied --
-88.987 -88.983 -88.929 -88.928 -88.927 -88.925 -88.906 -88.904
-14.388 -14.387 -14.380 -14.380 -14.348 -14.343 -14.341 -14.340
-14.338 -14.323 -10.271 -10.268 -10.263 -10.260 -10.255 -10.253
-10.251 -10.248 -10.246 -10.242 -10.241 -10.238 -10.238 -10.236
-10.232 -10.232 -10.231 -10.231 -10.230 -10.229 -10.229 -10.228
-10.226 -10.224 -10.223 -10.223 -10.222 -10.219 -10.217 -10.217
-10.216 -10.205 -10.204 -10.203 -10.201 -10.199 -10.193 -10.188
-10.188 -10.185 -10.183 -10.182 -10.182 -10.181 -10.177 -10.176
-10.174 -10.174 -10.174 -10.173  -8.042  -8.038  -7.990  -7.989
 -7.986  -7.986  -7.965  -7.962  -6.007  -6.003  -6.001  -6.000
 -5.998  -5.996  -5.954  -5.953  -5.950  -5.950  -5.950  -5.949
 -5.947  -5.947  -5.946  -5.946  -5.944  -5.942  -5.929  -5.927
 -5.926  -5.923  -5.921  -5.918  -1.021  -1.014  -0.988  -0.988
 -0.953  -0.949  -0.927  -0.917  -0.915  -0.913  -0.889  -0.887
 -0.846  -0.841  -0.823  -0.821  -0.813  -0.811  -0.811  -0.804
 -0.801  -0.793  -0.791  -0.791  -0.780  -0.777  -0.762  -0.761
 -0.748  -0.745  -0.735  -0.733  -0.727  -0.721  -0.707  -0.705
 -0.688  -0.687  -0.671  -0.668  -0.653  -0.650  -0.639  -0.638
 -0.635  -0.632  -0.619  -0.618  -0.611  -0.607  -0.602  -0.595
 -0.594  -0.592  -0.584  -0.583  -0.578  -0.569  -0.564  -0.553
 -0.548  -0.547  -0.534  -0.532  -0.519  -0.517  -0.511  -0.510
 -0.501  -0.499  -0.498  -0.496  -0.482  -0.481  -0.476  -0.473
 -0.472  -0.469  -0.463  -0.461  -0.460  -0.456  -0.452  -0.448
 -0.447  -0.442  -0.441  -0.437  -0.436  -0.433  -0.432  -0.431
 -0.429  -0.426  -0.421  -0.420  -0.417  -0.416  -0.412  -0.411
 -0.409  -0.408  -0.402  -0.402  -0.400  -0.395  -0.394  -0.391
 -0.391  -0.389  -0.387  -0.386  -0.385  -0.383  -0.382  -0.378
 -0.376  -0.375  -0.371  -0.368  -0.367  -0.367  -0.357  -0.353
 -0.352  -0.350  -0.347  -0.345  -0.344  -0.343  -0.341  -0.340
 -0.336  -0.332  -0.330  -0.329  -0.328  -0.323  -0.319  -0.318
 -0.313  -0.311  -0.308  -0.307  -0.302  -0.301  -0.297  -0.297
 -0.293  -0.292  -0.289  -0.287  -0.286  -0.284  -0.280  -0.276
 -0.267  -0.265  -0.264  -0.261  -0.256  -0.252  -0.250  -0.246
 -0.244  -0.242  -0.232  -0.223  -0.192  -0.188

          Ground-State Mulliken Net Atomic Charges

     Atom                 Charge (a.u.)
  ----------------------------------------
      1 C                     0.235474
      2 C                    -0.104741
      3 N                    -0.479636
      4 C                    -0.077820
      5 C                     0.083190
      6 C                     0.035539
      7 C                    -0.008376
      8 C                     0.069479
      9 C                     0.237745
     10 N                    -0.510539
     11 N                    -0.551914
     12 C                     0.189928
     13 C                     0.318400
     14 S                     0.603362
     15 N                    -0.570015
     16 C                    -0.221299
     17 S                     0.337836
     18 C                    -0.105074
     19 C                    -0.231227
     20 S                     0.269501
     21 C                     0.129744
     22 C                     0.075425
     23 C                    -0.320624
     24 C                    -0.038217
     25 N                    -0.387389
     26 S                     0.258416
     27 C                     0.097457
     28 C                    -0.303760
     29 C                    -0.220871
     30 H                     0.094304
     31 H                     0.104322
     32 H                     0.119125
     33 H                     0.119144
     34 H                     0.122513
     35 H                     0.138505
     36 H                     0.117954
     37 H                     0.133314
     38 H                     0.106506
     39 C                    -0.182166
     40 H                     0.120589
     41 H                     0.093035
     42 H                     0.113750
     43 C                    -0.198743
     44 H                     0.086735
     45 C                    -0.161052
     46 H                     0.085512
     47 H                     0.097333
     48 H                     0.098296
     49 C                    -0.174875
     50 H                     0.092639
     51 C                    -0.322175
     52 H                     0.098737
     53 H                     0.102265
     54 H                     0.103934
     55 H                     0.093629
     56 C                     0.282741
     57 C                    -0.098711
     58 N                    -0.490966
     59 C                    -0.067706
     60 C                     0.054929
     61 C                     0.044893
     62 C                     0.011261
     63 C                     0.078187
     64 C                     0.210421
     65 N                    -0.525210
     66 N                    -0.556959
     67 C                     0.206555
     68 C                     0.313661
     69 S                     0.603316
     70 N                    -0.567824
     71 C                    -0.209497
     72 S                     0.329803
     73 C                    -0.153100
     74 C                    -0.236875
     75 S                     0.300030
     76 C                     0.190955
     77 C                     0.047958
     78 C                    -0.331438
     79 C                    -0.044634
     80 N                    -0.405050
     81 S                     0.264125
     82 C                     0.111282
     83 C                    -0.300366
     84 C                    -0.231533
     85 H                     0.097763
     86 H                     0.106453
     87 H                     0.104886
     88 H                     0.120647
     89 H                     0.128712
     90 H                     0.124342
     91 H                     0.111921
     92 H                     0.138056
     93 H                     0.112270
     94 C                    -0.193482
     95 H                     0.112225
     96 H                     0.091212
     97 H                     0.098943
     98 C                    -0.198350
     99 H                     0.108586
    100 C                    -0.168303
    101 H                     0.092653
    102 H                     0.095037
    103 H                     0.089716
    104 C                    -0.195188
    105 H                     0.103975
    106 C                    -0.320545
    107 H                     0.086245
    108 H                     0.102342
    109 H                     0.102553
    110 H                     0.103956
  ----------------------------------------
  Sum of atomic charges =     0.000000

                    Cartesian Multipole Moments
 -----------------------------------------------------------------
    Charge (ESU x 10^10)
                 0.0000
    Dipole Moment (Debye)
         X       3.5422      Y      -0.0528      Z      -3.4181
       Tot       4.9227
    Quadrupole Moments (Debye-Ang)
        XX    -383.3937     XY      -7.8130     YY    -415.3091
        XZ       1.7253     YZ      -4.6394     ZZ    -452.2592

 Total job time:  104.73s(wall), 1274.19s(cpu)
        *  Thank you very much for using Q-Chem.  Have a nice day.  *
