 Q-Chem 4.4, Q-Chem, Inc., Pleasanton, CA (2016)
 Q-Chem 4.4.2 for Intel X86 Linux

User input:
--------------------------------------------------------------
$comment
SP
$end

$rem
MEM_STATIC 5000
MEM_TOTAL 20000
JOBTYPE SP
EXCHANGE B3LYP
BASIS 6-31g(d,p)
$end

$molecule
0 1
C          10.313000    -16.226000    -10.555000
C          10.917000    -17.277000     -9.808000
N           9.021000    -15.929000    -10.488000
C          10.159000    -18.043000     -8.929000
C           8.259000    -16.655000     -9.616000
C           8.749000    -17.764000     -8.829000
C           7.922000    -18.560000     -7.823000
C           8.229000    -19.900000     -7.589000
C           6.742000    -18.066000     -7.148000
N           7.641000    -20.686000     -6.677000
N           6.136000    -16.873000     -7.445000
C           6.044000    -18.918000     -6.255000
C           6.552000    -20.231000     -6.033000
S           4.865000    -16.838000     -6.429000
N           4.927000    -18.299000     -5.732000
C           5.975000    -21.204000     -5.100000
S           6.900000    -22.462000     -4.146000
C           4.636000    -21.394000     -4.891000
C           5.400000    -23.028000     -3.421000
S           3.363000    -20.785000     -5.860000
C           4.303000    -22.466000     -4.150000
C           5.284000    -24.072000     -2.454000
C           2.244000    -22.064000     -5.142000
C           2.938000    -22.864000     -4.143000
N           4.077000    -24.484000     -1.960000
S           6.704000    -24.774000     -1.699000
C           4.276000    -25.647000     -1.223000
C           5.619000    -26.025000     -1.110000
C          11.225000    -15.459000    -11.577000
H          11.978000    -17.498000     -9.880000
H          10.646000    -18.775000     -8.292000
H           7.218000    -16.346000     -9.536000
H           9.048000    -20.363000     -8.138000
H           1.211000    -22.079000     -5.465000
H           2.460000    -23.669000     -3.595000
H           3.441000    -26.221000     -0.842000
H           6.039000    -26.788000     -0.468000
H          11.849000    -16.150000    -12.157000
C          12.207000    -14.535000    -10.786000
H          10.518000    -14.937000    -12.235000
H          12.641000    -15.050000     -9.920000
H          11.722000    -13.621000    -10.422000
C          13.311000    -13.861000    -11.640000
H          13.581000    -14.607000    -12.398000
C          14.562000    -13.520000    -10.796000
H          12.883000    -12.960000    -12.097000
H          14.784000    -14.507000    -10.374000
H          14.360000    -12.876000     -9.932000
C          15.823000    -13.036000    -11.559000
H          16.773000    -13.195000    -11.034000
C          15.776000    -11.559000    -11.987000
H          15.925000    -13.647000    -12.464000
H          15.538000    -10.918000    -11.129000
H          14.903000    -11.418000    -12.637000
H          16.691000    -11.242000    -12.502000
C          13.413000    -20.486000     -6.767000
C          14.535000    -21.326000     -6.536000
N          13.421000    -19.481000     -7.652000
C          15.676000    -21.023000     -7.227000
C          14.526000    -19.296000     -8.434000
C          15.748000    -20.038000     -8.291000
C          16.993000    -19.629000     -9.030000
C          17.179000    -18.235000     -9.471000
C          18.094000    -20.424000     -9.319000
N          18.317000    -17.735000     -9.928000
N          18.158000    -21.719000     -8.844000
C          19.201000    -19.927000     -9.962000
C          19.375000    -18.547000    -10.226000
S          19.533000    -22.315000     -9.556000
N          20.154000    -20.915000    -10.185000
C          20.629000    -18.033000    -10.760000
S          22.087000    -18.930000    -11.410000
C          20.848000    -16.683000    -11.146000
C          22.927000    -17.475000    -11.765000
S          19.811000    -15.326000    -10.916000
C          22.135000    -16.387000    -11.617000
C          24.279000    -17.440000    -12.298000
C          21.148000    -14.260000    -11.596000
C          22.294000    -14.997000    -11.844000
N          24.660000    -16.525000    -13.122000
S          25.499000    -18.693000    -12.059000
C          25.908000    -16.713000    -13.576000
C          26.577000    -17.787000    -13.050000
C          12.175000    -20.627000     -5.897000
H          14.452000    -22.186000     -5.878000
H          16.617000    -21.426000     -6.864000
H          14.356000    -18.457000     -9.107000
H          16.453000    -17.534000     -9.062000
H          20.925000    -13.213000    -11.751000
H          23.177000    -14.615000    -12.345000
H          26.374000    -15.915000    -14.139000
H          27.580000    -18.072000    -13.339000
H          12.386000    -20.419000     -4.841000
C          11.487000    -22.060000     -5.983000
H          11.384000    -19.894000     -6.100000
H          12.284000    -22.800000     -5.847000
H          11.070000    -22.331000     -6.961000
C          10.353000    -22.233000     -4.860000
H           9.575000    -21.460000     -4.829000
C          11.105000    -22.366000     -3.428000
H           9.856000    -23.204000     -4.977000
H          11.490000    -21.370000     -3.178000
H          11.846000    -23.173000     -3.491000
C          10.080000    -22.811000     -2.378000
H           9.224000    -22.131000     -2.472000
C          10.603000    -23.018000     -0.912000
H           9.650000    -23.756000     -2.732000
H           9.787000    -23.243000     -0.214000
H          10.929000    -22.013000     -0.617000
H          11.404000    -23.767000     -0.875000
$end

--------------------------------------------------------------

             Standard Nuclear Orientation (Angstroms)
    I     Atom           X                Y                Z
 ----------------------------------------------------------------
    1      C      -0.5895074172    -4.7109559894     0.9885990723
    2      C      -0.6135642262    -3.2950628035     0.8399593870
    3      N      -1.6838818445    -5.4603692622     1.0404291752
    4      C      -1.8226731427    -2.6200604481     0.7119420128
    5      C      -2.8838340189    -4.8219404932     0.8968064542
    6      C      -3.0388712071    -3.3902736617     0.7717322599
    7      C      -4.3669117679    -2.6649623989     0.5722007066
    8      C      -4.5206509720    -1.3673638789     1.0592400664
    9      C      -5.5556113046    -3.2590522516     0.0011388375
   10      N      -5.5976854380    -0.5907068697     0.8801181831
   11      N      -5.6772981456    -4.5925829816    -0.2914053554
   12      C      -6.7385871063    -2.4843039876    -0.1032181471
   13      C      -6.7033192724    -1.1290801908     0.3366018620
   14      S      -7.1957649310    -4.7107639995    -0.8651769726
   15      N      -7.7801822635    -3.2177484804    -0.6338005670
   16      C      -7.8252955511    -0.1897862494     0.2415065327
   17      S      -7.6994619847     1.6158733647    -0.0269413613
   18      C      -9.1382868479    -0.5093185151     0.4575041847
   19      C      -9.4531658977     1.7531171829     0.0138963664
   20      S      -9.7262245829    -1.9509205500     1.1691809321
   21      C      -9.9928159159     0.5274525914     0.5210631705
   22      C     -10.1990495091     2.9572222542    -0.1657410890
   23      C     -11.3171298518    -1.0892495920     1.5298325441
   24      C     -11.2998598193     0.2744982220     1.0203910402
   25      N     -11.5638597414     2.9940965358    -0.0847329586
   26      S      -9.4191024338     4.4412239074    -0.6840562953
   27      C     -11.9694059671     4.3248243368    -0.0788356512
   28      C     -10.9216909261     5.2386177377    -0.2418596171
   29      C       0.8128037061    -5.3844878645     1.1993010580
   30      H       0.2975725403    -2.7052721266     0.7984533614
   31      H      -1.8273088325    -1.5551801432     0.5003517323
   32      H      -3.7587016090    -5.4699022332     0.8790784165
   33      H      -3.6933087441    -0.8945018288     1.5869116683
   34      H     -12.1047242035    -1.6516770277     2.0146144712
   35      H     -12.1395346080     0.9537051752     1.1225534795
   36      H     -13.0007512660     4.5974954033     0.1051191370
   37      H     -10.9951739348     6.3022389690    -0.4263674049
   38      H       1.4237912009    -4.8254776246     1.9186471727
   39      C       1.5941054789    -5.3629875972    -0.1545402467
   40      H       0.5794777048    -6.3836796132     1.5897774676
   41      H       1.5052211308    -4.3932284392    -0.6597171941
   42      H       1.2470942418    -6.1353817795    -0.8517542945
   43      C       3.0761097955    -5.8086475189    -0.0681779885
   44      H       3.4316458897    -5.4320388392     0.8991585549
   45      C       3.9295811385    -5.1870440395    -1.1990244771
   46      H       3.1030491327    -6.9048047110    -0.1075185822
   47      H       3.7133202065    -4.1241394315    -1.0409042581
   48      H       3.5666602523    -5.4076920366    -2.2097860176
   49      C       5.4669988023    -5.3758817760    -1.1139760420
   50      H       6.0577870432    -4.6216814677    -1.6483515181
   51      C       5.9615446757    -6.7580302401    -1.5744236526
   52      H       5.7660801632    -5.2413496242    -0.0674573180
   53      H       5.5684703303    -6.9940144344    -2.5711648522
   54      H       5.4840742678    -7.5200992315    -0.9453108948
   55      H       7.0532673169    -6.8509781666    -1.5250135559
   56      C      -0.4138764180     1.6331188469    -0.3635888671
   57      C       0.2772693088     2.8734045073    -0.3205300133
   58      N       0.1943116131     0.4504962132    -0.2060292747
   59      C       1.6352151919     2.8096924667    -0.1685604292
   60      C       1.5274680958     0.4259266412     0.0920715955
   61      C       2.3662389672     1.5917886377     0.1311385919
   62      C       3.8614008780     1.4664068459     0.2415798296
   63      C       4.5463832994     0.2424430247    -0.2112166444
   64      C       4.7521380802     2.4352886187     0.6838493706
   65      N       5.8573039155     0.1226945169    -0.3562698518
   66      N       4.2989595876     3.7001852881     1.0023013600
   67      C       6.1089754960     2.2238054588     0.6970440735
   68      C       6.7094325105     1.0831389847     0.1116353543
   69      S       5.6493795847     4.4411715033     1.6188159667
   70      N       6.7949256618     3.3129985366     1.2235541013
   71      C       8.1569351502     0.9673472265    -0.0032401298
   72      S       9.4814656982     2.0098163357     0.7121268977
   73      C       8.8382788168    -0.1837561291    -0.4830201549
   74      C      10.7250010238     1.0492555812     0.0196004137
   75      S       8.1667033978    -1.5988932282    -1.2014152047
   76      C      10.2358780907    -0.0846847195    -0.5352420421
   77      C      12.1400761625     1.3563381437     0.1479774038
   78      C       9.8823074733    -2.1829462755    -1.5206481824
   79      C      10.8108325004    -1.2234712412    -1.1529010781
   80      N      13.0311733925     0.4284960392     0.2280820599
   81      S      12.8123485455     2.9700109996     0.3921899280
   82      C      14.2677245551     0.9039059351     0.4375830217
   83      C      14.3833632405     2.2690098477     0.4664274725
   84      C      -1.8886500302     1.6052231309    -0.7292247812
   85      H      -0.2709036769     3.8101311004    -0.3592942710
   86      H       2.2221309446     3.6837066999    -0.4355585929
   87      H       1.8529355008    -0.6067984786     0.2073963339
   88      H       3.9158450774    -0.4419051730    -0.7767669029
   89      H      10.0062539332    -3.1775971149    -1.9271822925
   90      H      11.8848092616    -1.3754867482    -1.1440015317
   91      H      15.1010376635     0.2186940490     0.3538994840
   92      H      15.3138050403     2.7907756190     0.6475173317
   93      H      -2.0711421287     1.9887061176    -1.7404410948
   94      C      -2.8169237621     2.4197420910     0.2753127952
   95      H      -2.3250580276     0.6012341211    -0.8049422038
   96      H      -2.3502779058     3.4026032305     0.4077160624
   97      H      -2.8630413817     2.0339757266     1.3014080526
   98      C      -4.3084691694     2.5712965505    -0.2985665856
   99      H      -4.8166405109     1.6429666402    -0.5879443065
  100      C      -4.2471941322     3.6172428770    -1.5379449184
  101      H      -4.9413055111     3.0846735109     0.4359409101
  102      H      -3.7600429769     3.0949627954    -2.3701998483
  103      H      -3.7673847523     4.5431562816    -1.1962340375
  104      C      -5.6807426483     3.9992331956    -1.9254653030
  105      H      -6.2310781623     3.0576913787    -2.0463033310
  106      C      -5.8536015548     5.0228124647    -3.1035736504
  107      H      -6.1536159325     4.4166759114    -1.0280392971
  108      H      -6.9079465185     5.1638746452    -3.3721684358
  109      H      -5.4342508369     4.4882320365    -3.9647906621
  110      H      -5.3462411947     5.9713435458    -2.8871360077
 ----------------------------------------------------------------

   10   -5663.4967698051      3.89E-06 Convergence criterion met
 Total energy in the final basis set = -5663.4967698051

                    Orbital Energies (a.u.)
 --------------------------------------------------------------

 Alpha MOs
 -- Occupied --
-88.991 -88.991 -88.931 -88.930 -88.927 -88.923 -88.911 -88.906
-14.391 -14.391 -14.387 -14.384 -14.354 -14.350 -14.345 -14.343
-14.334 -14.327 -10.274 -10.269 -10.268 -10.264 -10.262 -10.262
-10.255 -10.253 -10.249 -10.246 -10.245 -10.243 -10.240 -10.237
-10.236 -10.235 -10.235 -10.235 -10.234 -10.233 -10.231 -10.231
-10.230 -10.229 -10.228 -10.227 -10.226 -10.224 -10.223 -10.218
-10.213 -10.209 -10.209 -10.207 -10.204 -10.202 -10.202 -10.191
-10.190 -10.189 -10.187 -10.183 -10.179 -10.178 -10.176 -10.176
-10.175 -10.175 -10.174 -10.168  -8.047  -8.046  -7.992  -7.989
 -7.986  -7.984  -7.970  -7.967  -6.012  -6.011  -6.006  -6.006
 -6.005  -6.004  -5.956  -5.954  -5.953  -5.950  -5.950  -5.950
 -5.947  -5.946  -5.946  -5.945  -5.942  -5.941  -5.934  -5.932
 -5.931  -5.928  -5.926  -5.923  -1.037  -1.025  -0.990  -0.961
 -0.959  -0.952  -0.938  -0.930  -0.916  -0.914  -0.902  -0.893
 -0.844  -0.835  -0.829  -0.824  -0.816  -0.809  -0.808  -0.800
 -0.800  -0.798  -0.797  -0.791  -0.782  -0.774  -0.766  -0.762
 -0.752  -0.742  -0.739  -0.737  -0.725  -0.721  -0.709  -0.705
 -0.692  -0.688  -0.676  -0.669  -0.655  -0.649  -0.644  -0.644
 -0.640  -0.633  -0.625  -0.620  -0.612  -0.603  -0.600  -0.596
 -0.593  -0.588  -0.585  -0.582  -0.580  -0.573  -0.567  -0.562
 -0.557  -0.546  -0.542  -0.538  -0.524  -0.522  -0.515  -0.506
 -0.506  -0.500  -0.499  -0.498  -0.487  -0.480  -0.479  -0.475
 -0.475  -0.470  -0.466  -0.464  -0.461  -0.460  -0.453  -0.445
 -0.445  -0.444  -0.439  -0.438  -0.438  -0.436  -0.434  -0.431
 -0.427  -0.424  -0.422  -0.417  -0.416  -0.415  -0.414  -0.413
 -0.411  -0.407  -0.406  -0.400  -0.399  -0.397  -0.395  -0.394
 -0.393  -0.392  -0.391  -0.389  -0.389  -0.385  -0.384  -0.377
 -0.377  -0.375  -0.373  -0.372  -0.371  -0.364  -0.358  -0.356
 -0.355  -0.352  -0.350  -0.349  -0.348  -0.347  -0.343  -0.338
 -0.336  -0.334  -0.334  -0.330  -0.326  -0.326  -0.321  -0.318
 -0.315  -0.314  -0.311  -0.305  -0.304  -0.301  -0.301  -0.300
 -0.298  -0.295  -0.291  -0.290  -0.286  -0.283  -0.282  -0.277
 -0.275  -0.272  -0.271  -0.263  -0.260  -0.257  -0.249  -0.248
 -0.246  -0.245  -0.235  -0.228  -0.197  -0.187

          Ground-State Mulliken Net Atomic Charges

     Atom                 Charge (a.u.)
  ----------------------------------------
      1 C                     0.269535
      2 C                    -0.112948
      3 N                    -0.485020
      4 C                    -0.089361
      5 C                     0.072323
      6 C                     0.019499
      7 C                     0.049721
      8 C                     0.048003
      9 C                     0.194828
     10 N                    -0.510049
     11 N                    -0.536248
     12 C                     0.228018
     13 C                     0.247772
     14 S                     0.623533
     15 N                    -0.543800
     16 C                    -0.201427
     17 S                     0.328671
     18 C                    -0.097199
     19 C                    -0.222022
     20 S                     0.260106
     21 C                     0.116038
     22 C                     0.054676
     23 C                    -0.315472
     24 C                    -0.038938
     25 N                    -0.451544
     26 S                     0.269931
     27 C                     0.120709
     28 C                    -0.310904
     29 C                    -0.227744
     30 H                     0.094480
     31 H                     0.130054
     32 H                     0.124464
     33 H                     0.116195
     34 H                     0.134110
     35 H                     0.139626
     36 H                     0.118052
     37 H                     0.125476
     38 H                     0.105004
     39 C                    -0.184673
     40 H                     0.118597
     41 H                     0.096169
     42 H                     0.107821
     43 C                    -0.182732
     44 H                     0.088160
     45 C                    -0.177663
     46 H                     0.097480
     47 H                     0.088288
     48 H                     0.090852
     49 C                    -0.180383
     50 H                     0.096577
     51 C                    -0.315089
     52 H                     0.093979
     53 H                     0.099452
     54 H                     0.102713
     55 H                     0.098097
     56 C                     0.279978
     57 C                    -0.103445
     58 N                    -0.498005
     59 C                    -0.067148
     60 C                     0.053104
     61 C                     0.039795
     62 C                     0.000383
     63 C                     0.069919
     64 C                     0.218022
     65 N                    -0.527049
     66 N                    -0.556295
     67 C                     0.206420
     68 C                     0.320419
     69 S                     0.608706
     70 N                    -0.566840
     71 C                    -0.206943
     72 S                     0.332265
     73 C                    -0.149315
     74 C                    -0.235142
     75 S                     0.282144
     76 C                     0.192158
     77 C                     0.048079
     78 C                    -0.322280
     79 C                    -0.042796
     80 N                    -0.404044
     81 S                     0.266080
     82 C                     0.111647
     83 C                    -0.299911
     84 C                    -0.240065
     85 H                     0.103541
     86 H                     0.114885
     87 H                     0.101162
     88 H                     0.116392
     89 H                     0.133616
     90 H                     0.126362
     91 H                     0.113351
     92 H                     0.139373
     93 H                     0.116695
     94 C                    -0.194033
     95 H                     0.115532
     96 H                     0.091535
     97 H                     0.100771
     98 C                    -0.192299
     99 H                     0.115085
    100 C                    -0.173259
    101 H                     0.101571
    102 H                     0.093769
    103 H                     0.089338
    104 C                    -0.195597
    105 H                     0.102039
    106 C                    -0.323008
    107 H                     0.093647
    108 H                     0.106400
    109 H                     0.103868
    110 H                     0.103631
  ----------------------------------------
  Sum of atomic charges =     0.000000

                    Cartesian Multipole Moments
 -----------------------------------------------------------------
    Charge (ESU x 10^10)
                 0.0000
    Dipole Moment (Debye)
         X       3.1245      Y       4.1869      Z      -0.1850
       Tot       5.2276
    Quadrupole Moments (Debye-Ang)
        XX    -358.0027     XY       0.5035     YY    -429.4357
        XZ      -1.4101     YZ       6.4367     ZZ    -452.6932

 Total job time:  93.02s(wall), 1113.49s(cpu)
        *  Thank you very much for using Q-Chem.  Have a nice day.  *
