 Q-Chem 4.4, Q-Chem, Inc., Pleasanton, CA (2016)
 Q-Chem 4.4.2 for Intel X86 Linux

User input:
--------------------------------------------------------------
$comment
SP
$end

$rem
MEM_STATIC 5000
MEM_TOTAL 20000
JOBTYPE SP
EXCHANGE B3LYP
BASIS 6-31g(d,p)
$end

$molecule
0 1
C          21.908000    -21.346000    -16.379000
C          21.630000    -22.679000    -16.033000
N          22.717000    -20.558000    -15.603000
C          22.195000    -23.205000    -14.871000
C          23.166000    -21.070000    -14.397000
C          22.976000    -22.435000    -13.965000
C          23.535000    -22.951000    -12.597000
C          22.637000    -23.716000    -11.823000
C          24.870000    -22.817000    -12.124000
N          22.948000    -24.243000    -10.673000
N          25.886000    -22.261000    -12.862000
C          25.202000    -23.400000    -10.924000
C          24.207000    -24.154000    -10.225000
S          27.173000    -22.424000    -11.824000
N          26.518000    -23.312000    -10.650000
C          24.580000    -24.774000     -8.913000
S          26.058000    -24.360000     -7.921000
C          23.764000    -25.593000     -8.195000
C          25.550000    -25.417000     -6.611000
S          22.199000    -26.328000     -8.537000
C          24.284000    -25.856000     -6.868000
C          26.284000    -25.566000     -5.400000
C          22.282000    -27.007000     -6.879000
C          23.385000    -26.660000     -6.088000
N          27.039000    -24.530000     -5.070000
S          26.278000    -26.850000     -4.268000
C          27.851000    -24.793000     -3.913000
C          27.632000    -26.039000     -3.432000
C          21.512000    -20.754000    -17.770000
H          21.135000    -23.376000    -16.704000
H          22.041000    -24.230000    -14.546000
H          23.847000    -20.466000    -13.800000
H          21.602000    -23.846000    -12.138000
H          21.464000    -27.662000     -6.609000
H          23.530000    -26.926000     -5.047000
H          28.597000    -24.059000     -3.636000
H          28.263000    -26.561000     -2.725000
H          22.273000    -19.997000    -17.995000
C          20.137000    -20.000000    -17.671000
H          21.494000    -21.476000    -18.594000
H          20.005000    -19.361000    -18.553000
H          20.202000    -19.277000    -16.848000
C          18.915000    -20.938000    -17.506000
H          18.946000    -21.675000    -18.317000
C          17.658000    -20.104000    -17.588000
H          18.974000    -21.603000    -16.635000
H          17.768000    -19.580000    -18.546000
H          17.651000    -19.402000    -16.745000
C          16.342000    -20.960000    -17.709000
H          15.563000    -20.509000    -18.336000
C          15.813000    -21.158000    -16.339000
H          16.572000    -21.948000    -18.126000
H          14.832000    -21.647000    -16.304000
H          15.808000    -20.255000    -15.715000
H          16.572000    -21.727000    -15.787000
C          13.413000    -20.486000     -6.767000
C          14.535000    -21.326000     -6.536000
N          13.421000    -19.481000     -7.652000
C          15.676000    -21.023000     -7.227000
C          14.526000    -19.296000     -8.434000
C          15.748000    -20.038000     -8.291000
C          16.993000    -19.629000     -9.030000
C          17.179000    -18.235000     -9.471000
C          18.094000    -20.424000     -9.319000
N          18.317000    -17.735000     -9.928000
N          18.158000    -21.719000     -8.844000
C          19.201000    -19.927000     -9.962000
C          19.375000    -18.547000    -10.226000
S          19.533000    -22.315000     -9.556000
N          20.154000    -20.915000    -10.185000
C          20.629000    -18.033000    -10.760000
S          22.087000    -18.930000    -11.410000
C          20.848000    -16.683000    -11.146000
C          22.927000    -17.475000    -11.765000
S          19.811000    -15.326000    -10.916000
C          22.135000    -16.387000    -11.617000
C          24.279000    -17.440000    -12.298000
C          21.148000    -14.260000    -11.596000
C          22.294000    -14.997000    -11.844000
N          24.660000    -16.525000    -13.122000
S          25.499000    -18.693000    -12.059000
C          25.908000    -16.713000    -13.576000
C          26.577000    -17.787000    -13.050000
C          12.175000    -20.627000     -5.897000
H          14.452000    -22.186000     -5.878000
H          16.617000    -21.426000     -6.864000
H          14.356000    -18.457000     -9.107000
H          16.453000    -17.534000     -9.062000
H          20.925000    -13.213000    -11.751000
H          23.177000    -14.615000    -12.345000
H          26.374000    -15.915000    -14.139000
H          27.580000    -18.072000    -13.339000
H          12.386000    -20.419000     -4.841000
C          11.487000    -22.060000     -5.983000
H          11.384000    -19.894000     -6.100000
H          12.284000    -22.800000     -5.847000
H          11.070000    -22.331000     -6.961000
C          10.353000    -22.233000     -4.860000
H           9.575000    -21.460000     -4.829000
C          11.105000    -22.366000     -3.428000
H           9.856000    -23.204000     -4.977000
H          11.490000    -21.370000     -3.178000
H          11.846000    -23.173000     -3.491000
C          10.080000    -22.811000     -2.378000
H           9.224000    -22.131000     -2.472000
C          10.603000    -23.018000     -0.912000
H           9.650000    -23.756000     -2.732000
H           9.787000    -23.243000     -0.214000
H          10.929000    -22.013000     -0.617000
H          11.404000    -23.767000     -0.875000
$end

--------------------------------------------------------------

             Standard Nuclear Orientation (Angstroms)
    I     Atom           X                Y                Z
 ----------------------------------------------------------------
    1      C      -3.3546622897     4.5352033928     2.9294793786
    2      C      -3.0399923824     3.5756899808     3.9063139918
    3      N      -3.7427465059     4.1715843660     1.6666362195
    4      C      -3.1276065663     2.2234353355     3.5748383078
    5      C      -3.7058230179     2.8279040469     1.3329584466
    6      C      -3.4395537613     1.7589161214     2.2669362291
    7      C      -3.4394462646     0.2580965562     1.8222997246
    8      C      -2.3541625838    -0.5138630856     2.2880707453
    9      C      -4.4674520794    -0.4106765701     1.1012889411
   10      N      -2.2138560227    -1.7836960596     2.0335353113
   11      N      -5.6586906677     0.1776555423     0.7536512687
   12      C      -4.3298132984    -1.7572102010     0.8604243588
   13      C      -3.1847387840    -2.4376732447     1.3828383732
   14      S      -6.4359837475    -1.0787948422    -0.0063026110
   15      N      -5.4219440725    -2.2964648465     0.2849847011
   16      C      -3.0424203981    -3.9026320247     1.1026344297
   17      S      -3.9795428743    -4.8429685158    -0.1533563140
   18      C      -2.0575931442    -4.6875265640     1.6185771031
   19      C      -3.0560805013    -6.3051546989     0.1638846220
   20      S      -0.8017243455    -4.4019591468     2.8217640423
   21      C      -2.0233505761    -5.9982311916     1.0010183402
   22      C      -3.2572951432    -7.5236538572    -0.5448116946
   23      C      -0.2599698377    -6.0792428982     2.4899278320
   24      C      -0.9370309007    -6.7972140847     1.4955412410
   25      N      -3.7583052203    -7.3887213657    -1.7625978521
   26      S      -2.8774964422    -9.1294997915    -0.0896987611
   27      C      -4.0589928022    -8.6555324570    -2.3724655729
   28      C      -3.7398403874    -9.6837578085    -1.5522629377
   29      C      -3.5088380611     6.0503918919     3.2796145579
   30      H      -2.8927350275     3.8214717252     4.9546372270
   31      H      -2.9170434707     1.4235529951     4.2789813503
   32      H      -4.0582220522     2.5298030898     0.3470899259
   33      H      -1.5381877212    -0.0498137660     2.8414180616
   34      H       0.5586284047    -6.4282359194     3.1056792338
   35      H      -0.6727094595    -7.7837633244     1.1317875147
   36      H      -4.5902494058    -8.6540993503    -3.3157393229
   37      H      -4.0680296333   -10.7079915888    -1.6694422107
   38      H      -4.2514670781     6.4414032475     2.5736349101
   39      C      -2.1660580560     6.8155968612     2.9961622466
   40      H      -3.8607322585     6.2587557622     4.2961473765
   41      H      -2.3576753485     7.8955796044     2.9718911192
   42      H      -1.8575673647     6.5948985923     1.9664007366
   43      C      -1.0352856586     6.4985496205     4.0067006341
   44      H      -1.4277937106     6.6740451184     5.0151597356
   45      C       0.1322693180     7.4133169404     3.7197422276
   46      H      -0.7826452668     5.4329690896     4.0778200020
   47      H      -0.3178678119     8.4133590019     3.7613648104
   48      H       0.5134427329     7.1861506026     2.7164455203
   49      C       1.2405683282     7.3882778672     4.8379011379
   50      H       1.7319622819     8.3534906476     5.0118760525
   51      C       2.2567929615     6.3881628974     4.4341654051
   52      H       0.8073426730     7.0606942999     5.7907587023
   53      H       3.1412181006     6.3616326640     5.0820815417
   54      H       2.5609753960     6.4437505370     3.3809830558
   55      H       1.7471666833     5.4167374440     4.4001118436
   56      C       8.2884891893     0.2232088574    -0.4080190502
   57      C       7.3033382228    -0.7687206222    -0.1562285009
   58      N       7.9885971451     1.4783803969    -0.7656825348
   59      C       6.0015426451    -0.4000758997    -0.3577237673
   60      C       6.6768883380     1.8575961805    -0.8145639731
   61      C       5.5709067730     0.9604800761    -0.6240791358
   62      C       4.1609321140     1.3971241818    -0.9151811557
   63      C       3.8964402003     2.4910267790    -1.8668818100
   64      C       2.9915346326     0.8317348116    -0.4246799931
   65      N       2.7015430633     2.7981707209    -2.3483134573
   66      N       3.0461649619    -0.3028941266     0.3604178986
   67      C       1.7511501388     1.2871362195    -0.7987961051
   68      C       1.5669941485     2.2421918469    -1.8275464731
   69      S       1.4695807225    -0.5112117936     0.8334621733
   70      N       0.7323442774     0.6021204506    -0.1454432041
   71      C       0.2361016302     2.5821204929    -2.3123573851
   72      S      -1.4093903284     2.1269466853    -1.6505069344
   73      C      -0.0393768693     3.5990456350    -3.2659987493
   74      C      -2.2355112058     3.0009677016    -2.8761747357
   75      S       1.0805376235     4.5186013794    -4.1986973941
   76      C      -1.3881607523     3.7543604292    -3.6159778224
   77      C      -3.6835391143     3.0320061864    -3.0005523408
   78      C      -0.3523073437     5.2672763786    -5.0777685207
   79      C      -1.5433291337     4.6915722238    -4.6678650908
   80      N      -4.3062379561     4.0798659460    -3.4195965826
   81      S      -4.7792294024     1.7644079916    -2.4454058654
   82      C      -5.6405752819     3.9511083290    -3.3756719081
   83      C      -6.1072832123     2.7307858690    -2.9625014816
   84      C       9.7594882756    -0.1583254926    -0.4037496193
   85      H       7.5903793554    -1.7453585292     0.2222405029
   86      H       5.2598586780    -1.1842953893    -0.4784038614
   87      H       6.6145045694     2.9069637945    -1.0986165667
   88      H       4.7643504593     2.8014653209    -2.4466383917
   89      H      -0.1487827324     6.0608411297    -5.7840232329
   90      H      -2.5288468363     5.0373861935    -4.9607499762
   91      H      -6.2444892742     4.7080975683    -3.8585633882
   92      H      -7.1573539160     2.4916248880    -2.8580575146
   93      H       9.9967273110    -0.8987523732    -1.1773171176
   94      C      10.2728251398    -0.7294546200     0.9907129236
   95      H      10.4462526986     0.6536037570    -0.6744976960
   96      H       9.5536032836    -1.4964299073     1.3001863963
   97      H      10.2516055186    -0.0249857914     1.8315978130
   98      C      11.7469510300    -1.3517054408     0.8612108935
   99      H      12.5168623688    -0.6975813284     0.4332714398
  100      C      11.6177598427    -2.7336206107     0.0201180924
  101      H      12.0997444528    -1.6852218709     1.8450008059
  102      H      11.4217497275    -2.4537346709    -1.0219878981
  103      H      10.8670993179    -3.3725698229     0.5023542179
  104      C      12.9473288293    -3.4910341710     0.1187132685
  105      H      13.7337828650    -2.7737519740    -0.1476854922
  106      C      13.0371557713    -4.8752839869    -0.6170295993
  107      H      13.1463057997    -3.6492225551     1.1857772780
  108      H      14.0484518560    -5.2982713893    -0.5717870695
  109      H      12.9135622798    -4.6070864375    -1.6734957479
  110      H      12.2745105159    -5.5736347994    -0.2500836126
 ----------------------------------------------------------------

   10   -5663.5052372949      5.30E-06 Convergence criterion met
 Total energy in the final basis set = -5663.5052372949

                    Orbital Energies (a.u.)
 --------------------------------------------------------------

 Alpha MOs
 -- Occupied --
-88.994 -88.984 -88.931 -88.927 -88.925 -88.920 -88.919 -88.905
-14.392 -14.389 -14.385 -14.377 -14.352 -14.348 -14.341 -14.340
-14.332 -14.324 -10.269 -10.269 -10.268 -10.262 -10.259 -10.256
-10.249 -10.246 -10.243 -10.241 -10.240 -10.239 -10.239 -10.236
-10.235 -10.235 -10.234 -10.234 -10.233 -10.231 -10.230 -10.229
-10.228 -10.228 -10.226 -10.226 -10.225 -10.223 -10.221 -10.221
-10.213 -10.211 -10.210 -10.206 -10.203 -10.200 -10.196 -10.195
-10.189 -10.188 -10.187 -10.184 -10.181 -10.180 -10.177 -10.176
-10.174 -10.174 -10.173 -10.162  -8.049  -8.039  -7.993  -7.988
 -7.983  -7.978  -7.978  -7.964  -6.014  -6.009  -6.007  -6.004
 -5.998  -5.997  -5.957  -5.953  -5.951  -5.949  -5.948  -5.948
 -5.945  -5.944  -5.942  -5.942  -5.940  -5.939  -5.939  -5.934
 -5.934  -5.929  -5.925  -5.920  -1.043  -1.019  -0.985  -0.972
 -0.962  -0.952  -0.929  -0.920  -0.910  -0.909  -0.903  -0.887
 -0.839  -0.838  -0.828  -0.822  -0.813  -0.811  -0.804  -0.803
 -0.800  -0.796  -0.796  -0.791  -0.779  -0.779  -0.768  -0.762
 -0.753  -0.747  -0.742  -0.735  -0.719  -0.719  -0.710  -0.705
 -0.696  -0.688  -0.681  -0.670  -0.651  -0.647  -0.644  -0.638
 -0.634  -0.631  -0.623  -0.618  -0.612  -0.607  -0.598  -0.595
 -0.594  -0.590  -0.583  -0.582  -0.580  -0.572  -0.570  -0.568
 -0.551  -0.548  -0.545  -0.531  -0.523  -0.517  -0.517  -0.509
 -0.501  -0.499  -0.499  -0.494  -0.483  -0.480  -0.478  -0.473
 -0.472  -0.471  -0.470  -0.462  -0.460  -0.459  -0.452  -0.446
 -0.443  -0.442  -0.439  -0.438  -0.434  -0.433  -0.432  -0.431
 -0.428  -0.426  -0.423  -0.418  -0.417  -0.416  -0.414  -0.411
 -0.410  -0.409  -0.404  -0.401  -0.400  -0.397  -0.396  -0.396
 -0.394  -0.392  -0.389  -0.387  -0.385  -0.383  -0.382  -0.378
 -0.376  -0.372  -0.369  -0.368  -0.367  -0.365  -0.362  -0.352
 -0.350  -0.350  -0.349  -0.348  -0.344  -0.342  -0.342  -0.340
 -0.339  -0.334  -0.333  -0.331  -0.328  -0.327  -0.322  -0.321
 -0.316  -0.316  -0.306  -0.305  -0.304  -0.303  -0.299  -0.297
 -0.295  -0.292  -0.289  -0.285  -0.281  -0.280  -0.278  -0.275
 -0.275  -0.266  -0.265  -0.264  -0.262  -0.254  -0.251  -0.246
 -0.244  -0.242  -0.234  -0.228  -0.200  -0.191

          Ground-State Mulliken Net Atomic Charges

     Atom                 Charge (a.u.)
  ----------------------------------------
      1 C                     0.266779
      2 C                    -0.108399
      3 N                    -0.480993
      4 C                    -0.088785
      5 C                     0.076033
      6 C                     0.041126
      7 C                    -0.002589
      8 C                     0.073905
      9 C                     0.225889
     10 N                    -0.512702
     11 N                    -0.548911
     12 C                     0.216259
     13 C                     0.302202
     14 S                     0.609817
     15 N                    -0.540491
     16 C                    -0.236545
     17 S                     0.352945
     18 C                    -0.087310
     19 C                    -0.197137
     20 S                     0.283552
     21 C                     0.106108
     22 C                     0.051050
     23 C                    -0.309383
     24 C                    -0.069578
     25 N                    -0.432719
     26 S                     0.262924
     27 C                     0.122021
     28 C                    -0.307012
     29 C                    -0.235191
     30 H                     0.095892
     31 H                     0.090536
     32 H                     0.118555
     33 H                     0.114302
     34 H                     0.125801
     35 H                     0.118533
     36 H                     0.126713
     37 H                     0.135104
     38 H                     0.121103
     39 C                    -0.184884
     40 H                     0.099701
     41 H                     0.092219
     42 H                     0.113096
     43 C                    -0.174344
     44 H                     0.084557
     45 C                    -0.172871
     46 H                     0.095102
     47 H                     0.089435
     48 H                     0.099386
     49 C                    -0.175951
     50 H                     0.090405
     51 C                    -0.310056
     52 H                     0.092802
     53 H                     0.093503
     54 H                     0.101877
     55 H                     0.097497
     56 C                     0.273765
     57 C                    -0.105298
     58 N                    -0.484591
     59 C                    -0.067855
     60 C                     0.049918
     61 C                     0.039560
     62 C                     0.002005
     63 C                     0.070190
     64 C                     0.215250
     65 N                    -0.527431
     66 N                    -0.556063
     67 C                     0.205204
     68 C                     0.319879
     69 S                     0.614798
     70 N                    -0.571308
     71 C                    -0.209103
     72 S                     0.333513
     73 C                    -0.147535
     74 C                    -0.235600
     75 S                     0.276573
     76 C                     0.192810
     77 C                     0.043480
     78 C                    -0.321638
     79 C                    -0.042717
     80 N                    -0.403074
     81 S                     0.262761
     82 C                     0.116715
     83 C                    -0.300504
     84 C                    -0.231273
     85 H                     0.098324
     86 H                     0.112964
     87 H                     0.104878
     88 H                     0.115657
     89 H                     0.131645
     90 H                     0.125415
     91 H                     0.112225
     92 H                     0.136872
     93 H                     0.112545
     94 C                    -0.189067
     95 H                     0.116223
     96 H                     0.092207
     97 H                     0.099798
     98 C                    -0.194115
     99 H                     0.099484
    100 C                    -0.166966
    101 H                     0.093619
    102 H                     0.097196
    103 H                     0.092169
    104 C                    -0.185937
    105 H                     0.088861
    106 C                    -0.318964
    107 H                     0.087325
    108 H                     0.104440
    109 H                     0.104380
    110 H                     0.105514
  ----------------------------------------
  Sum of atomic charges =     0.000000

                    Cartesian Multipole Moments
 -----------------------------------------------------------------
    Charge (ESU x 10^10)
                 0.0000
    Dipole Moment (Debye)
         X      -2.5141      Y      -4.3513      Z       1.3766
       Tot       5.2105
    Quadrupole Moments (Debye-Ang)
        XX    -426.7784     XY     -10.6378     YY    -404.7104
        XZ      16.1671     YZ       2.9361     ZZ    -431.4039

 Total job time:  90.71s(wall), 1057.64s(cpu)
        *  Thank you very much for using Q-Chem.  Have a nice day.  *
