 Q-Chem 4.4, Q-Chem, Inc., Pleasanton, CA (2016)
 Q-Chem 4.4.2 for Intel X86 Linux

User input:
--------------------------------------------------------------
$comment
SP
$end

$rem
MEM_STATIC 5000
MEM_TOTAL 20000
JOBTYPE SP
EXCHANGE B3LYP
BASIS 6-31g(d,p)
$end

$molecule
0 1
C          15.735000    -25.005000    -11.389000
C          16.081000    -24.130000    -10.345000
N          15.000000    -26.137000    -11.161000
C          15.477000    -24.256000     -9.058000
C          14.419000    -26.257000     -9.939000
C          14.592000    -25.350000     -8.876000
C          13.787000    -25.529000     -7.614000
C          12.540000    -26.143000     -7.647000
C          14.233000    -25.148000     -6.320000
N          11.851000    -26.448000     -6.552000
N          15.482000    -24.784000     -5.979000
C          13.471000    -25.390000     -5.160000
C          12.238000    -25.993000     -5.304000
S          15.490000    -24.511000     -4.354000
N          14.075000    -25.087000     -4.011000
C          11.306000    -26.312000     -4.210000
S          11.653000    -26.041000     -2.513000
C          10.104000    -27.004000     -4.399000
C          10.151000    -26.786000     -2.027000
S           9.274000    -27.475000     -5.814000
C           9.492000    -27.238000     -3.163000
C           9.706000    -27.087000     -0.649000
C           7.892000    -27.844000     -4.779000
C           8.198000    -27.738000     -3.409000
N           8.672000    -27.871000     -0.493000
S          10.474000    -26.428000      0.791000
C           8.512000    -28.163000      0.876000
C           9.415000    -27.563000      1.706000
C          16.178000    -24.944000    -12.826000
H          16.724000    -23.260000    -10.441000
H          15.849000    -23.646000     -8.241000
H          13.881000    -27.175000     -9.708000
H          12.103000    -26.529000     -8.567000
H           6.986000    -28.224000     -5.232000
H           7.426000    -27.894000     -2.664000
H           7.796000    -28.921000      1.164000
H           9.604000    -27.690000      2.763000
H          17.274000    -24.910000    -12.787000
C          15.530000    -23.699000    -13.581000
H          15.928000    -25.816000    -13.442000
H          15.814000    -23.694000    -14.640000
H          15.842000    -22.738000    -13.154000
C          13.917000    -23.667000    -13.537000
H          13.686000    -23.592000    -12.468000
C          13.230000    -24.918000    -14.101000
H          13.553000    -22.724000    -13.963000
H          12.137000    -24.879000    -14.007000
H          13.652000    -25.799000    -13.601000
C          13.639000    -25.059000    -15.595000
H          13.486000    -24.101000    -16.107000
C          12.742000    -26.101000    -16.303000
H          14.659000    -25.451000    -15.685000
H          12.864000    -27.127000    -15.934000
H          12.987000    -26.067000    -17.372000
H          11.676000    -25.844000    -16.332000
C          13.413000    -20.486000     -6.767000
C          14.535000    -21.326000     -6.536000
N          13.421000    -19.481000     -7.652000
C          15.676000    -21.023000     -7.227000
C          14.526000    -19.296000     -8.434000
C          15.748000    -20.038000     -8.291000
C          16.993000    -19.629000     -9.030000
C          17.179000    -18.235000     -9.471000
C          18.094000    -20.424000     -9.319000
N          18.317000    -17.735000     -9.928000
N          18.158000    -21.719000     -8.844000
C          19.201000    -19.927000     -9.962000
C          19.375000    -18.547000    -10.226000
S          19.533000    -22.315000     -9.556000
N          20.154000    -20.915000    -10.185000
C          20.629000    -18.033000    -10.760000
S          22.087000    -18.930000    -11.410000
C          20.848000    -16.683000    -11.146000
C          22.927000    -17.475000    -11.765000
S          19.811000    -15.326000    -10.916000
C          22.135000    -16.387000    -11.617000
C          24.279000    -17.440000    -12.298000
C          21.148000    -14.260000    -11.596000
C          22.294000    -14.997000    -11.844000
N          24.660000    -16.525000    -13.122000
S          25.499000    -18.693000    -12.059000
C          25.908000    -16.713000    -13.576000
C          26.577000    -17.787000    -13.050000
C          12.175000    -20.627000     -5.897000
H          14.452000    -22.186000     -5.878000
H          16.617000    -21.426000     -6.864000
H          14.356000    -18.457000     -9.107000
H          16.453000    -17.534000     -9.062000
H          20.925000    -13.213000    -11.751000
H          23.177000    -14.615000    -12.345000
H          26.374000    -15.915000    -14.139000
H          27.580000    -18.072000    -13.339000
H          12.386000    -20.419000     -4.841000
C          11.487000    -22.060000     -5.983000
H          11.384000    -19.894000     -6.100000
H          12.284000    -22.800000     -5.847000
H          11.070000    -22.331000     -6.961000
C          10.353000    -22.233000     -4.860000
H           9.575000    -21.460000     -4.829000
C          11.105000    -22.366000     -3.428000
H           9.856000    -23.204000     -4.977000
H          11.490000    -21.370000     -3.178000
H          11.846000    -23.173000     -3.491000
C          10.080000    -22.811000     -2.378000
H           9.224000    -22.131000     -2.472000
C          10.603000    -23.018000     -0.912000
H           9.650000    -23.756000     -2.732000
H           9.787000    -23.243000     -0.214000
H          10.929000    -22.013000     -0.617000
H          11.404000    -23.767000     -0.875000
$end

--------------------------------------------------------------

             Standard Nuclear Orientation (Angstroms)
    I     Atom           X                Y                Z
 ----------------------------------------------------------------
    1      C      -0.9486186717    -4.0901901841    -0.9891977496
    2      C      -1.0538018906    -2.6931507187    -0.8774201914
    3      N       0.2324572263    -4.6950400505    -1.3251283413
    4      C       0.1140230901    -1.8726844903    -0.8684211627
    5      C       1.3466412729    -3.9180849889    -1.3117215296
    6      C       1.3550205826    -2.5319240914    -1.0646694031
    7      C       2.6735843066    -1.8102894615    -0.9491567771
    8      C       3.8136500407    -2.4772557509    -0.5149908057
    9      C       2.8751796406    -0.4503492821    -1.3075351105
   10      N       5.0243516819    -1.9287278645    -0.5244614844
   11      N       2.0212106210     0.3321863546    -1.9910209485
   12      C       4.1402005007     0.1660406386    -1.2397583507
   13      C       5.2056827347    -0.5811555368    -0.7803244767
   14      S       2.7545232250     1.7919718461    -2.2066524483
   15      N       4.1933980698     1.4068003646    -1.7240220403
   16      C       6.5898389915    -0.1017599978    -0.6336535054
   17      S       7.1295889141     1.4999655358    -1.0992760307
   18      C       7.6533312744    -0.9250810858    -0.2456901692
   19      C       8.7876391880     1.1181526128    -0.7090028172
   20      S       7.6949051317    -2.5269480089     0.3418981009
   21      C       8.8520562904    -0.2055015007    -0.2932249623
   22      C       9.9804463815     1.9583856149    -0.9513445207
   23      C       9.3813628122    -2.2345765229     0.7751294548
   24      C       9.8544222905    -0.9952803666     0.3038208860
   25      N      11.1585075470     1.4064967016    -0.8258912713
   26      S       9.9030778527     3.6653696940    -1.3731554552
   27      C      12.1460455518     2.3156333016    -1.2539851063
   28      C      11.6772303227     3.5324241671    -1.6588817234
   29      C      -2.0544489736    -5.1068004672    -0.8965593362
   30      H      -1.9727254674    -2.1447694733    -0.6918872572
   31      H      -0.0014008675    -0.7940009863    -0.9014697384
   32      H       2.2892535125    -4.3568354365    -1.6350003728
   33      H       3.8090493183    -3.5356743287    -0.2579033740
   34      H       9.9470974910    -3.0301994433     1.2413627030
   35      H      10.8615515868    -0.6704803503     0.5394912699
   36      H      13.1635124067     1.9638276823    -1.3596165662
   37      H      12.1766175821     4.3652281965    -2.1344327865
   38      H      -2.8040267194    -4.7827223777    -1.6293618983
   39      C      -2.6222888918    -5.2133152332     0.5887576104
   40      H      -1.7870399986    -6.1326642333    -1.1766235673
   41      H      -3.3884969768    -5.9944915813     0.6584044611
   42      H      -3.0772772633    -4.2769547905     0.9343132543
   43      C      -1.5047853077    -5.5645683144     1.6989539950
   44      H      -0.8087561997    -4.7193000893     1.6459246795
   45      C      -0.7236821946    -6.8603894633     1.4424555018
   46      H      -1.9438259033    -5.4957369425     2.7018132062
   47      H       0.0595495798    -7.0373344160     2.1909503056
   48      H      -0.3151130915    -6.8218264877     0.4246985638
   49      C      -1.7380181086    -8.0394694236     1.4329108395
   50      H      -2.3756870624    -7.9792210955     2.3234530589
   51      C      -0.9918767564    -9.3924474274     1.4989457078
   52      H      -2.2964056724    -8.0661994004     0.4896967403
   53      H      -0.3764122184    -9.6122412383     0.6176880365
   54      H      -1.7507956439   -10.1759659534     1.6176168566
   55      H      -0.3997561953    -9.5454444500     2.4095670078
   56      C       0.9213509872     1.4746036536     2.5762211625
   57      C       0.6839985070     1.4931754551     1.1758055498
   58      N      -0.0502345991     1.2991462900     3.4809587831
   59      C      -0.6197952920     1.3829135575     0.7768882105
   60      C      -1.3204517545     1.0433503595     3.0474950360
   61      C      -1.7217088599     1.0682826263     1.6681226724
   62      C      -3.1745979424     1.0019505867     1.2832325917
   63      C      -4.2203823640     1.4373774433     2.2261278118
   64      C      -3.6986001546     0.6195006107     0.0556737550
   65      N      -5.4927728259     1.6205458157     1.9077493266
   66      N      -2.8549056286     0.3270204151    -0.9975977589
   67      C      -5.0480353976     0.6431413143    -0.1980438875
   68      C      -5.9837210747     1.2109792847     0.6999674449
   69      S      -3.8916605809    -0.2219864072    -2.1708478080
   70      N      -5.3405049337     0.1737877543    -1.4740731999
   71      C      -7.3840736098     1.3685094048     0.3310974967
   72      S      -8.2975680937     0.7294992268    -1.1215094082
   73      C      -8.4015372536     1.8330905120     1.2076755757
   74      C      -9.7768606963     1.4307047993    -0.6031908374
   75      S      -8.2278312191     2.4842384043     2.7937243252
   76      C      -9.6842549868     1.9332563861     0.6505149036
   77      C     -11.0100375357     1.3576259869    -1.3694495210
   78      C     -10.0333598461     2.8396429372     2.7848363924
   79      C     -10.5946494031     2.5325531161     1.5565697784
   80      N     -12.1614786665     1.2767183450    -0.7958649363
   81      S     -11.1087061045     1.1865073143    -3.1234486411
   82      C     -13.1717524880     1.1222176895    -1.6644501958
   83      C     -12.8248262828     1.1404870159    -2.9899770494
   84      C       2.3087880442     1.7916542052     3.1090648173
   85      H       1.5144828473     1.5440717231     0.4778382652
   86      H      -0.8753218106     1.6962437390    -0.2311739879
   87      H      -1.9746969199     0.9057748514     3.9070217913
   88      H      -3.8439890392     1.9603727367     3.1039444145
   89      H     -10.4747480580     3.2181367433     3.6969119841
   90      H     -11.6575942949     2.5532969604     1.3413214334
   91      H     -14.1844030945     1.2107859279    -1.2934738941
   92      H     -13.5306147009     1.0060181844    -3.7990109438
   93      H       2.6288175087     2.8081670703     2.8498279818
   94      C       3.4360717124     0.7842325178     2.6105048157
   95      H       2.3857692235     1.8213901369     4.2033082420
   96      H       3.3224218532     0.6981676188     1.5237750688
   97      H       3.3303911526    -0.2545528302     2.9475072193
   98      C       4.9034031544     1.3144775503     2.9883839565
   99      H       5.0774953787     1.5577568147     4.0439790952
  100      C       5.2197343908     2.5877907001     2.0331744656
  101      H       5.6569230106     0.5767229689     2.6859521394
  102      H       4.6024265999     3.4182350267     2.3965397251
  103      H       5.0705303988     2.2912447396     0.9871832314
  104      C       6.7058114104     2.9410496383     2.1670894169
  105      H       6.9119056916     3.0141883048     3.2423325906
  106      C       7.2340704906     4.1449311975     1.3085176168
  107      H       7.2733319715     2.0426279050     1.8950603710
  108      H       8.2799536368     4.3838996281     1.5380988301
  109      H       6.6771024977     5.0017414998     1.7072515643
  110      H       7.0689291099     3.9751334267     0.2371315793
 ----------------------------------------------------------------

   10   -5663.5178577915      5.20E-06 Convergence criterion met
 Total energy in the final basis set = -5663.5178577915

                    Orbital Energies (a.u.)
 --------------------------------------------------------------

 Alpha MOs
 -- Occupied --
-88.994 -88.994 -88.931 -88.931 -88.929 -88.925 -88.911 -88.911
-14.394 -14.387 -14.386 -14.379 -14.354 -14.348 -14.346 -14.344
-14.329 -14.328 -10.275 -10.274 -10.269 -10.260 -10.257 -10.257
-10.255 -10.253 -10.250 -10.246 -10.246 -10.243 -10.242 -10.237
-10.236 -10.235 -10.234 -10.234 -10.232 -10.231 -10.231 -10.231
-10.230 -10.230 -10.227 -10.226 -10.224 -10.223 -10.220 -10.213
-10.212 -10.209 -10.208 -10.206 -10.202 -10.200 -10.198 -10.193
-10.189 -10.186 -10.185 -10.184 -10.184 -10.177 -10.172 -10.172
-10.172 -10.171 -10.166 -10.163  -8.050  -8.048  -7.993  -7.990
 -7.988  -7.986  -7.971  -7.970  -6.015  -6.013  -6.010  -6.008
 -6.008  -6.006  -5.956  -5.954  -5.953  -5.952  -5.950  -5.950
 -5.950  -5.948  -5.947  -5.946  -5.945  -5.943  -5.935  -5.935
 -5.931  -5.931  -5.927  -5.927  -1.054  -1.028  -0.991  -0.966
 -0.959  -0.956  -0.934  -0.929  -0.917  -0.916  -0.909  -0.896
 -0.848  -0.845  -0.829  -0.827  -0.816  -0.816  -0.810  -0.800
 -0.798  -0.796  -0.795  -0.790  -0.781  -0.776  -0.766  -0.763
 -0.751  -0.747  -0.738  -0.734  -0.725  -0.724  -0.709  -0.707
 -0.691  -0.690  -0.678  -0.676  -0.654  -0.649  -0.649  -0.644
 -0.640  -0.633  -0.624  -0.622  -0.612  -0.608  -0.599  -0.596
 -0.595  -0.591  -0.588  -0.581  -0.580  -0.576  -0.565  -0.558
 -0.551  -0.544  -0.542  -0.538  -0.524  -0.523  -0.515  -0.514
 -0.506  -0.504  -0.501  -0.498  -0.489  -0.487  -0.481  -0.477
 -0.474  -0.473  -0.469  -0.465  -0.463  -0.462  -0.453  -0.448
 -0.445  -0.444  -0.439  -0.439  -0.438  -0.435  -0.434  -0.433
 -0.432  -0.429  -0.424  -0.417  -0.416  -0.415  -0.412  -0.411
 -0.411  -0.406  -0.406  -0.404  -0.402  -0.399  -0.397  -0.395
 -0.394  -0.393  -0.390  -0.389  -0.385  -0.384  -0.383  -0.379
 -0.377  -0.376  -0.371  -0.370  -0.369  -0.359  -0.357  -0.357
 -0.354  -0.353  -0.352  -0.349  -0.349  -0.348  -0.345  -0.340
 -0.338  -0.335  -0.334  -0.333  -0.332  -0.326  -0.319  -0.316
 -0.314  -0.312  -0.308  -0.306  -0.303  -0.303  -0.301  -0.298
 -0.296  -0.291  -0.289  -0.287  -0.287  -0.285  -0.282  -0.279
 -0.272  -0.271  -0.268  -0.264  -0.260  -0.256  -0.255  -0.251
 -0.249  -0.246  -0.235  -0.229  -0.197  -0.194

          Ground-State Mulliken Net Atomic Charges

     Atom                 Charge (a.u.)
  ----------------------------------------
      1 C                     0.278235
      2 C                    -0.131256
      3 N                    -0.483562
      4 C                    -0.076016
      5 C                     0.063397
      6 C                     0.052148
      7 C                     0.037082
      8 C                     0.058687
      9 C                     0.228401
     10 N                    -0.530626
     11 N                    -0.570444
     12 C                     0.191912
     13 C                     0.311610
     14 S                     0.610659
     15 N                    -0.549911
     16 C                    -0.234986
     17 S                     0.334679
     18 C                    -0.106397
     19 C                    -0.229451
     20 S                     0.300038
     21 C                     0.156548
     22 C                     0.085722
     23 C                    -0.313599
     24 C                    -0.067672
     25 N                    -0.443954
     26 S                     0.247359
     27 C                     0.126893
     28 C                    -0.306786
     29 C                    -0.229386
     30 H                     0.094526
     31 H                     0.139275
     32 H                     0.102752
     33 H                     0.119072
     34 H                     0.126441
     35 H                     0.120804
     36 H                     0.118965
     37 H                     0.135914
     38 H                     0.101978
     39 C                    -0.197541
     40 H                     0.125254
     41 H                     0.098905
     42 H                     0.091145
     43 C                    -0.188155
     44 H                     0.092494
     45 C                    -0.170362
     46 H                     0.087902
     47 H                     0.088031
     48 H                     0.118142
     49 C                    -0.170944
     50 H                     0.090946
     51 C                    -0.325496
     52 H                     0.097517
     53 H                     0.103232
     54 H                     0.090989
     55 H                     0.097591
     56 C                     0.277761
     57 C                    -0.093521
     58 N                    -0.485129
     59 C                    -0.083840
     60 C                     0.052013
     61 C                     0.038673
     62 C                     0.001576
     63 C                     0.072721
     64 C                     0.218262
     65 N                    -0.526742
     66 N                    -0.566294
     67 C                     0.205498
     68 C                     0.320831
     69 S                     0.612161
     70 N                    -0.563095
     71 C                    -0.206445
     72 S                     0.332162
     73 C                    -0.147104
     74 C                    -0.235432
     75 S                     0.281123
     76 C                     0.191728
     77 C                     0.047890
     78 C                    -0.321143
     79 C                    -0.043042
     80 N                    -0.404381
     81 S                     0.267092
     82 C                     0.111690
     83 C                    -0.299732
     84 C                    -0.232021
     85 H                     0.088008
     86 H                     0.114540
     87 H                     0.106752
     88 H                     0.118122
     89 H                     0.133769
     90 H                     0.126470
     91 H                     0.113507
     92 H                     0.139614
     93 H                     0.113258
     94 C                    -0.191449
     95 H                     0.117974
     96 H                     0.084882
     97 H                     0.103598
     98 C                    -0.197465
     99 H                     0.098377
    100 C                    -0.176978
    101 H                     0.103442
    102 H                     0.092212
    103 H                     0.098872
    104 C                    -0.183823
    105 H                     0.084023
    106 C                    -0.324231
    107 H                     0.098659
    108 H                     0.108974
    109 H                     0.099183
    110 H                     0.107752
  ----------------------------------------
  Sum of atomic charges =     0.000000

                    Cartesian Multipole Moments
 -----------------------------------------------------------------
    Charge (ESU x 10^10)
                 0.0000
    Dipole Moment (Debye)
         X      -1.6666      Y       3.1278      Z      -2.5553
       Tot       4.3692
    Quadrupole Moments (Debye-Ang)
        XX    -354.2219     XY      10.8492     YY    -448.5636
        XZ      14.0606     YZ      -9.3584     ZZ    -443.8931

 Total job time:  101.47s(wall), 1237.90s(cpu)
        *  Thank you very much for using Q-Chem.  Have a nice day.  *
