 Q-Chem 4.4, Q-Chem, Inc., Pleasanton, CA (2016)
 Q-Chem 4.4.2 for Intel X86 Linux

User input:
--------------------------------------------------------------
$comment
SP
$end

$rem
MEM_STATIC 5000
MEM_TOTAL 20000
JOBTYPE SP
EXCHANGE B3LYP
BASIS 6-31g(d,p)
$end

$molecule
0 1
C           7.345000     20.227000     -2.659000
C           7.792000     20.765000     -1.496000
N           6.259000     19.424000     -2.718000
C           7.084000     20.518000     -0.311000
C           5.601000     19.176000     -1.655000
C           5.989000     19.602000     -0.398000
C           5.204000     19.332000      0.869000
C           3.799000     19.478000      0.810000
C           5.755000     18.983000      2.095000
N           3.038000     19.098000      1.825000
N           7.040000     18.929000      2.324000
C           4.906000     18.589000      3.108000
C           3.482000     18.603000      3.011000
S           7.157000     18.345000      3.875000
N           5.567000     18.300000      4.311000
C           2.470000     18.169000      4.036000
S           2.770000     17.127000      5.470000
C           1.103000     18.337000      3.890000
C           1.068000     16.903000      5.775000
S           0.242000     19.226000      2.734000
C           0.301000     17.630000      4.856000
C           0.557000     15.992000      6.784000
C          -1.238000     18.603000      3.436000
C          -1.055000     17.773000      4.515000
N          -0.727000     16.055000      7.020000
S           1.546000     15.155000      7.943000
C          -1.044000     15.362000      8.142000
C           0.057000     14.726000      8.727000
C           7.988000     20.594000     -3.973000
H           8.647000     21.433000     -1.507000
H           7.430000     20.886000      0.650000
H           4.679000     18.609000     -1.778000
H           3.265000     19.791000     -0.086000
H          -2.168000     18.959000      3.012000
H          -1.915000     17.301000      4.976000
H          -2.079000     15.166000      8.391000
H           0.075000     13.965000      9.496000
H           7.219000     21.133000     -4.541000
C           8.523000     19.317000     -4.711000
H           8.813000     21.318000     -3.966000
H           7.688000     18.656000     -4.976000
H           9.214000     18.739000     -4.086000
C           9.268000     19.776000     -5.984000
H           8.618000     20.415000     -6.593000
C           9.564000     18.482000     -6.834000
H          10.195000     20.335000     -5.808000
H           8.605000     18.030000     -7.116000
H          10.159000     17.749000     -6.276000
C          10.311000     18.910000     -8.126000
H           9.737000     19.667000     -8.674000
C          10.641000     17.738000     -9.017000
H          11.292000     19.310000     -7.841000
H          11.201000     16.930000     -8.531000
H          11.198000     18.012000     -9.921000
H           9.737000     17.353000     -9.506000
C           2.736000      8.303000      2.132000
C           1.451000      8.173000      1.656000
N           3.454000      9.462000      1.987000
C           0.857000      9.255000      1.035000
C           2.837000     10.579000      1.516000
C           1.513000     10.560000      1.092000
C           0.836000     11.827000      0.754000
C           1.453000     12.767000     -0.026000
C          -0.377000     12.176000      1.300000
N           0.913000     14.017000     -0.215000
N          -1.077000     11.427000      2.103000
C          -0.924000     13.416000      1.023000
C          -0.231000     14.373000      0.327000
S          -2.498000     12.175000      2.323000
N          -2.158000     13.578000      1.578000
C          -0.678000     15.804000      0.043000
S          -2.172000     16.565000      0.723000
C           0.102000     16.799000     -0.566000
C          -1.778000     18.104000     -0.019000
S           1.768000     16.794000     -1.229000
C          -0.570000     17.988000     -0.711000
C          -2.593000     19.318000      0.053000
C           1.530000     18.491000     -1.636000
C           0.253000     18.989000     -1.402000
N          -2.002000     20.477000     -0.148000
S          -4.237000     19.311000      0.586000
C          -2.959000     21.461000     -0.151000
C          -4.225000     21.059000      0.014000
C           3.599000      7.111000      2.646000
H           0.882000      7.248000      1.656000
H          -0.186000      9.150000      0.751000
H           3.469000     11.461000      1.421000
H           2.398000     12.600000     -0.540000
H           2.364000     18.929000     -2.169000
H           0.043000     20.045000     -1.532000
H          -2.564000     22.443000     -0.379000
H          -5.178000     21.571000      0.031000
H           2.881000      6.283000      2.680000
C           4.228000      7.304000      4.033000
H           4.308000      6.881000      1.841000
H           3.591000      7.746000      4.810000
H           5.009000      8.073000      3.990000
C           4.669000      5.903000      4.672000
H           3.769000      5.287000      4.785000
C           5.160000      6.114000      6.129000
H           5.410000      5.347000      4.084000
H           4.313000      6.571000      6.656000
H           6.074000      6.718000      6.196000
C           5.453000      4.848000      6.896000
H           5.968000      5.041000      7.846000
C           6.305000      3.797000      6.120000
H           4.518000      4.524000      7.370000
H           6.593000      2.958000      6.765000
H           7.207000      4.214000      5.655000
H           5.723000      3.367000      5.296000
$end

--------------------------------------------------------------

             Standard Nuclear Orientation (Angstroms)
    I     Atom           X                Y                Z
 ----------------------------------------------------------------
    1      C      -7.2636726745    -2.7208306522    -1.0160822640
    2      C      -7.1336030025    -2.4896440435    -2.3470430570
    3      N      -6.3556878932    -2.2903235674    -0.1116966788
    4      C      -6.0407257375    -1.7416487644    -2.8081507950
    5      C      -5.3483070749    -1.6150025467    -0.5035670732
    6      C      -5.0610502321    -1.3714473448    -1.8340682456
    7      C      -3.8793992343    -0.5523029771    -2.3106366293
    8      C      -3.5872664482     0.6406911451    -1.6104613230
    9      C      -3.0768958390    -0.8610717379    -3.4011081571
   10      N      -2.4762836784     1.3159919146    -1.8623187350
   11      N      -3.3025222581    -1.8640090096    -4.2072046451
   12      C      -1.9291973849    -0.1229415017    -3.6015027997
   13      C      -1.5537518810     1.0050523784    -2.8115335092
   14      S      -1.9998065326    -1.8637874713    -5.2383582174
   15      N      -1.2193875601    -0.4942648643    -4.7529974688
   16      C      -0.3183440923     1.8561691686    -2.9233047278
   17      S       1.2047457919     1.4344321722    -3.7803082927
   18      C      -0.1050187327     3.0075571146    -2.1836919313
   19      C       2.0788541569     2.7644208457    -3.0682200296
   20      S      -1.1774756734     3.8718936344    -1.1984323255
   21      C       1.2366330400     3.5287557395    -2.2510084533
   22      C       3.5087436276     2.9539704659    -3.2373650659
   23      C       0.1584097534     4.9144091104    -0.7513253935
   24      C       1.3523360242     4.6069704003    -1.3568429404
   25      N       3.9968358320     4.0825087863    -2.7940951040
   26      S       4.5040157783     2.0151305565    -4.3097381217
   27      C       5.2677562633     4.2616847931    -3.2325916443
   28      C       5.7440833567     3.1897290929    -3.9961003063
   29      C      -8.5015448803    -3.3863007061    -0.4687651626
   30      H      -7.9087287085    -2.8245215589    -3.0285173335
   31      H      -5.8683208226    -1.5726194031    -3.8666245171
   32      H      -4.7061402552    -1.2074244004     0.2763071669
   33      H      -4.1766309640     1.0028962852    -0.7693918229
   34      H      -0.0667565224     5.7416348406    -0.0907122393
   35      H       2.2422213425     5.1680192285    -1.0956278323
   36      H       5.8811720640     5.0552127760    -2.8255579900
   37      H       6.7575657377     2.9707687984    -4.3054800936
   38      H      -8.9980458748    -2.6287590581     0.1510117440
   39      C      -8.1334889095    -4.6904227090     0.3220563114
   40      H      -9.2991065627    -3.6624834429    -1.1705261323
   41      H      -7.5298423022    -4.4400893802     1.2037110046
   42      H      -7.5503425117    -5.3910761626    -0.2872178606
   43      C      -9.4485768575    -5.3782171766     0.7506790586
   44      H     -10.0811343046    -4.6738612282     1.3033595938
   45      C      -9.0584182623    -6.5283658571     1.7554110046
   46      H     -10.0555460949    -5.7802217721    -0.0695444780
   47      H      -8.5835658116    -6.0713048141     2.6324055046
   48      H      -8.3675311285    -7.2518997208     1.3061318970
   49      C     -10.3617879795    -7.2392606966     2.2096278114
   50      H     -11.0714798371    -6.5172191767     2.6313178763
   51      C     -10.0978625665    -8.3624698494     3.1817952741
   52      H     -10.8025598953    -7.7409549854     1.3392204591
   53      H      -9.3813436580    -9.1166413735     2.8346843899
   54      H     -11.0012937861    -8.9010760410     3.4920474324
   55      H      -9.8105600009    -7.9680944180     4.1648961106
   56      C       5.9277451266    -4.1140821438     2.2124909004
   57      C       6.1488019285    -3.2738075088     3.2800926183
   58      N       4.7475973845    -4.1120723736     1.5145816888
   59      C       5.1581689361    -2.3815487897     3.6430273956
   60      C       3.8246938847    -3.1434228501     1.7599105103
   61      C       4.0043855929    -2.1990060377     2.7643510384
   62      C       3.0642133562    -1.0673462866     2.8796088930
   63      C       1.7123081360    -1.2668494194     2.8072225975
   64      C       3.4945062955     0.2375593393     2.9375337907
   65      N       0.8287713528    -0.2155275305     2.7447242896
   66      N       4.7416325549     0.6116648520     2.9605806667
   67      C       2.5696639134     1.2661703055     2.9503419334
   68      C       1.2300442607     1.0365381072     2.7681271159
   69      S       4.7469588112     2.2113460654     3.2216106391
   70      N       3.1525697114     2.4906635596     3.0839911060
   71      C       0.1262016541     2.0846446515     2.6621546116
   72      S       0.4110625419     3.8702993460     2.6001176343
   73      C      -1.2186294869     1.8280085203     2.3541398419
   74      C      -1.3008110417     4.1794308997     2.3804644623
   75      S      -2.1165732221     0.3113138085     2.0247704447
   76      C      -1.9897137631     2.9645475802     2.3479750713
   77      C      -1.9205272242     5.5011178812     2.2695574015
   78      C      -3.5570104104     1.3008387360     1.8054917988
   79      C      -3.3999532226     2.6550618923     2.0791735164
   80      N      -3.0936979024     5.5906798248     1.6791234778
   81      S      -1.0957353712     6.9597152408     2.6927431075
   82      C      -3.5395252995     6.8844380826     1.7865548624
   83      C      -2.7478791406     7.7320936014     2.4546577589
   84      C       6.8556805143    -5.3094161412     1.8384032757
   85      H       7.0223416432    -3.3089250855     3.9243605150
   86      H       5.3965400559    -1.6724758669     4.4303804290
   87      H       2.9089124149    -3.2067641604     1.1736467660
   88      H       1.2466851219    -2.2507251814     2.7900851028
   89      H      -4.4549457334     0.7237615639     1.6260953293
   90      H      -4.2056220489     3.3528653440     1.8789134728
   91      H      -4.5341392384     7.0303258493     1.3843200155
   92      H      -2.8277796382     8.7763029187     2.7264753671
   93      H       7.7221278472    -5.1640429561     2.4944517925
   94      C       7.3189824357    -5.3499780770     0.3754046226
   95      H       6.3421172881    -6.2130621423     2.1895196629
   96      H       7.6342472192    -4.3986044573    -0.0722094434
   97      H       6.4722001833    -5.5798464920    -0.2828440604
   98      C       8.6078785634    -6.2844260520     0.1988918635
   99      H       9.4169339372    -5.8589469632     0.8043850073
  100      C       9.1410545989    -6.1860385146    -1.2552381883
  101      H       8.4557587390    -7.3308191064     0.4919484019
  102      H       9.3653119026    -5.1230634941    -1.4094450868
  103      H       8.4410359856    -6.5821046156    -2.0021026905
  104      C      10.4484119381    -6.8959643372    -1.5076586990
  105      H      10.6937914644    -6.9590762289    -2.5757316259
  106      C      10.5257412411    -8.3446652071    -0.9349746951
  107      H      11.2576304998    -6.1922836178    -1.2755471645
  108      H      11.4422539207    -8.8548964503    -1.2552223909
  109      H       9.6619276454    -8.9698709616    -1.1931642308
  110      H      10.5527505769    -8.3209992117     0.1610683773
 ----------------------------------------------------------------

   10   -5663.5162797787      4.73E-06 Convergence criterion met
 Total energy in the final basis set = -5663.5162797787

                    Orbital Energies (a.u.)
 --------------------------------------------------------------

 Alpha MOs
 -- Occupied --
-88.989 -88.980 -88.926 -88.926 -88.924 -88.919 -88.905 -88.899
-14.388 -14.385 -14.375 -14.375 -14.344 -14.340 -14.337 -14.335
-14.326 -14.320 -10.271 -10.263 -10.262 -10.259 -10.250 -10.248
-10.246 -10.245 -10.244 -10.239 -10.238 -10.236 -10.236 -10.233
-10.230 -10.230 -10.229 -10.229 -10.229 -10.228 -10.224 -10.221
-10.220 -10.219 -10.217 -10.214 -10.214 -10.212 -10.212 -10.211
-10.207 -10.207 -10.206 -10.205 -10.197 -10.196 -10.189 -10.187
-10.187 -10.182 -10.181 -10.180 -10.177 -10.175 -10.175 -10.174
-10.173 -10.173 -10.173 -10.165  -8.045  -8.036  -7.987  -7.987
 -7.982  -7.978  -7.964  -7.959  -6.010  -6.004  -6.002  -6.001
 -5.995  -5.993  -5.951  -5.950  -5.948  -5.948  -5.946  -5.944
 -5.943  -5.943  -5.942  -5.939  -5.939  -5.935  -5.928  -5.925
 -5.924  -5.920  -5.920  -5.916  -1.049  -1.029  -0.974  -0.974
 -0.962  -0.954  -0.948  -0.929  -0.911  -0.905  -0.901  -0.899
 -0.841  -0.835  -0.835  -0.821  -0.808  -0.806  -0.804  -0.799
 -0.798  -0.798  -0.792  -0.792  -0.784  -0.784  -0.769  -0.762
 -0.746  -0.746  -0.738  -0.734  -0.724  -0.715  -0.704  -0.704
 -0.689  -0.686  -0.674  -0.667  -0.657  -0.651  -0.647  -0.642
 -0.635  -0.625  -0.624  -0.620  -0.615  -0.606  -0.597  -0.594
 -0.589  -0.588  -0.583  -0.578  -0.577  -0.575  -0.570  -0.556
 -0.548  -0.543  -0.540  -0.530  -0.524  -0.519  -0.514  -0.505
 -0.503  -0.502  -0.498  -0.496  -0.489  -0.489  -0.477  -0.473
 -0.473  -0.471  -0.469  -0.467  -0.464  -0.457  -0.449  -0.445
 -0.440  -0.440  -0.435  -0.435  -0.434  -0.431  -0.429  -0.426
 -0.424  -0.422  -0.420  -0.418  -0.415  -0.411  -0.411  -0.410
 -0.406  -0.405  -0.404  -0.401  -0.397  -0.396  -0.394  -0.394
 -0.392  -0.389  -0.387  -0.386  -0.385  -0.383  -0.381  -0.378
 -0.375  -0.375  -0.372  -0.369  -0.364  -0.362  -0.355  -0.351
 -0.350  -0.348  -0.345  -0.345  -0.345  -0.342  -0.340  -0.338
 -0.338  -0.335  -0.333  -0.329  -0.326  -0.326  -0.323  -0.318
 -0.313  -0.313  -0.310  -0.307  -0.299  -0.297  -0.297  -0.294
 -0.291  -0.290  -0.289  -0.287  -0.283  -0.282  -0.282  -0.278
 -0.272  -0.266  -0.262  -0.253  -0.251  -0.249  -0.248  -0.247
 -0.244  -0.237  -0.233  -0.226  -0.194  -0.185

          Ground-State Mulliken Net Atomic Charges

     Atom                 Charge (a.u.)
  ----------------------------------------
      1 C                     0.272837
      2 C                    -0.116248
      3 N                    -0.476158
      4 C                    -0.060516
      5 C                     0.086143
      6 C                     0.021437
      7 C                    -0.025242
      8 C                     0.087175
      9 C                     0.303931
     10 N                    -0.527735
     11 N                    -0.572955
     12 C                     0.123131
     13 C                     0.320212
     14 S                     0.587770
     15 N                    -0.532464
     16 C                    -0.210004
     17 S                     0.305702
     18 C                    -0.119294
     19 C                    -0.246816
     20 S                     0.315357
     21 C                     0.171684
     22 C                     0.076190
     23 C                    -0.309720
     24 C                    -0.064521
     25 N                    -0.424447
     26 S                     0.274525
     27 C                     0.121697
     28 C                    -0.316392
     29 C                    -0.227824
     30 H                     0.087177
     31 H                     0.115475
     32 H                     0.088891
     33 H                     0.111839
     34 H                     0.125605
     35 H                     0.118762
     36 H                     0.114269
     37 H                     0.133395
     38 H                     0.115329
     39 C                    -0.170707
     40 H                     0.093866
     41 H                     0.119833
     42 H                     0.095798
     43 C                    -0.183006
     44 H                     0.093184
     45 C                    -0.172181
     46 H                     0.091089
     47 H                     0.095007
     48 H                     0.090953
     49 C                    -0.171328
     50 H                     0.091711
     51 C                    -0.319954
     52 H                     0.091437
     53 H                     0.101104
     54 H                     0.092679
     55 H                     0.096781
     56 C                     0.254251
     57 C                    -0.112426
     58 N                    -0.480278
     59 C                    -0.058897
     60 C                     0.079856
     61 C                     0.018410
     62 C                     0.025605
     63 C                     0.045385
     64 C                     0.284502
     65 N                    -0.544213
     66 N                    -0.561815
     67 C                     0.175079
     68 C                     0.349832
     69 S                     0.597091
     70 N                    -0.559404
     71 C                    -0.229450
     72 S                     0.321889
     73 C                    -0.101573
     74 C                    -0.230808
     75 S                     0.283246
     76 C                     0.147444
     77 C                     0.061170
     78 C                    -0.314467
     79 C                    -0.054258
     80 N                    -0.427154
     81 S                     0.233858
     82 C                     0.142007
     83 C                    -0.304772
     84 C                    -0.212826
     85 H                     0.092855
     86 H                     0.104954
     87 H                     0.106491
     88 H                     0.123468
     89 H                     0.134278
     90 H                     0.128056
     91 H                     0.116880
     92 H                     0.132543
     93 H                     0.087461
     94 C                    -0.174504
     95 H                     0.124486
     96 H                     0.094300
     97 H                     0.117081
     98 C                    -0.180758
     99 H                     0.092461
    100 C                    -0.172768
    101 H                     0.096908
    102 H                     0.087014
    103 H                     0.094448
    104 C                    -0.182747
    105 H                     0.088932
    106 C                    -0.320842
    107 H                     0.087318
    108 H                     0.098025
    109 H                     0.105905
    110 H                     0.106008
  ----------------------------------------
  Sum of atomic charges =     0.000000

                    Cartesian Multipole Moments
 -----------------------------------------------------------------
    Charge (ESU x 10^10)
                 0.0000
    Dipole Moment (Debye)
         X       2.0961      Y       1.9719      Z       0.5952
       Tot       2.9387
    Quadrupole Moments (Debye-Ang)
        XX    -393.4241     XY       2.0900     YY    -421.6500
        XZ      11.9757     YZ      13.2929     ZZ    -437.3865

 Total job time:  93.34s(wall), 1107.88s(cpu)
        *  Thank you very much for using Q-Chem.  Have a nice day.  *
