 Q-Chem 4.4, Q-Chem, Inc., Pleasanton, CA (2016)
 Q-Chem 4.4.2 for Intel X86 Linux

User input:
--------------------------------------------------------------
$comment
SP
$end

$rem
MEM_STATIC 5000
MEM_TOTAL 20000
JOBTYPE SP
EXCHANGE B3LYP
BASIS 6-31g(d,p)
$end

$molecule
0 1
C          -4.803000      1.180000      1.744000
C          -3.775000      1.712000      0.936000
N          -6.022000      1.747000      1.821000
C          -4.044000      2.948000      0.252000
C          -6.281000      2.876000      1.258000
C          -5.322000      3.611000      0.474000
C          -5.618000      5.021000     -0.078000
C          -6.932000      5.388000     -0.231000
C          -4.617000      6.013000     -0.500000
N          -7.426000      6.578000     -0.678000
N          -3.254000      5.942000     -0.500000
C          -5.098000      7.274000     -0.844000
C          -6.475000      7.533000     -0.973000
S          -2.703000      7.408000     -0.890000
N          -4.096000      8.177000     -1.188000
C          -7.011000      8.852000     -1.463000
S          -8.579000      8.993000     -2.320000
C          -6.561000     10.118000     -1.040000
C          -8.563000     10.714000     -2.143000
S          -5.352000     10.665000      0.056000
C          -7.456000     11.115000     -1.505000
C          -9.649000     11.537000     -2.615000
C          -5.965000     12.319000     -0.139000
C          -7.083000     12.402000     -0.969000
N         -10.607000     10.894000     -3.199000
S          -9.874000     13.245000     -2.497000
C         -11.743000     11.700000     -3.364000
C         -11.461000     13.063000     -3.155000
C          -4.597000      0.042000      2.631000
H          -2.809000      1.231000      0.809000
H          -3.246000      3.400000     -0.329000
H          -7.329000      3.164000      1.313000
H          -7.706000      4.661000      0.013000
H          -5.450000     13.155000      0.315000
H          -7.667000     13.315000     -1.003000
H         -12.740000     11.371000     -3.624000
H         -12.236000     13.816000     -3.214000
H          -4.024000      0.253000      3.542000
C          -3.882000     -1.172000      1.985000
H          -5.556000     -0.231000      3.087000
H          -2.826000     -1.129000      2.278000
H          -3.961000     -1.195000      0.892000
C          -4.513000     -2.432000      2.508000
H          -4.204000     -2.493000      3.559000
C          -3.990000     -3.674000      1.754000
H          -5.602000     -2.542000      2.590000
H          -4.046000     -3.621000      0.660000
H          -4.504000     -4.536000      2.197000
C          -2.460000     -4.055000      1.939000
H          -1.889000     -3.411000      1.259000
C          -2.126000     -5.525000      1.691000
H          -2.033000     -3.949000      2.944000
H          -2.291000     -5.816000      0.646000
H          -2.817000     -6.206000      2.204000
H          -1.131000     -5.913000      1.941000
C           2.736000      8.303000      2.132000
C           1.451000      8.173000      1.656000
N           3.454000      9.462000      1.987000
C           0.857000      9.255000      1.035000
C           2.837000     10.579000      1.516000
C           1.513000     10.560000      1.092000
C           0.836000     11.827000      0.754000
C           1.453000     12.767000     -0.026000
C          -0.377000     12.176000      1.300000
N           0.913000     14.017000     -0.215000
N          -1.077000     11.427000      2.103000
C          -0.924000     13.416000      1.023000
C          -0.231000     14.373000      0.327000
S          -2.498000     12.175000      2.323000
N          -2.158000     13.578000      1.578000
C          -0.678000     15.804000      0.043000
S          -2.172000     16.565000      0.723000
C           0.102000     16.799000     -0.566000
C          -1.778000     18.104000     -0.019000
S           1.768000     16.794000     -1.229000
C          -0.570000     17.988000     -0.711000
C          -2.593000     19.318000      0.053000
C           1.530000     18.491000     -1.636000
C           0.253000     18.989000     -1.402000
N          -2.002000     20.477000     -0.148000
S          -4.237000     19.311000      0.586000
C          -2.959000     21.461000     -0.151000
C          -4.225000     21.059000      0.014000
C           3.599000      7.111000      2.646000
H           0.882000      7.248000      1.656000
H          -0.186000      9.150000      0.751000
H           3.469000     11.461000      1.421000
H           2.398000     12.600000     -0.540000
H           2.364000     18.929000     -2.169000
H           0.043000     20.045000     -1.532000
H          -2.564000     22.443000     -0.379000
H          -5.178000     21.571000      0.031000
H           2.881000      6.283000      2.680000
C           4.228000      7.304000      4.033000
H           4.308000      6.881000      1.841000
H           3.591000      7.746000      4.810000
H           5.009000      8.073000      3.990000
C           4.669000      5.903000      4.672000
H           3.769000      5.287000      4.785000
C           5.160000      6.114000      6.129000
H           5.410000      5.347000      4.084000
H           4.313000      6.571000      6.656000
H           6.074000      6.718000      6.196000
C           5.453000      4.848000      6.896000
H           5.968000      5.041000      7.846000
C           6.305000      3.797000      6.120000
H           4.518000      4.524000      7.370000
H           6.593000      2.958000      6.765000
H           7.207000      4.214000      5.655000
H           5.723000      3.367000      5.296000
$end

--------------------------------------------------------------

             Standard Nuclear Orientation (Angstroms)
    I     Atom           X                Y                Z
 ----------------------------------------------------------------
    1      C      -8.6716003414     1.9029560416     0.6947468253
    2      C      -8.0319737761     1.1942356180    -0.3450922094
    3      N      -8.1145079832     2.9818871625     1.2769278460
    4      C      -6.7062698010     1.6127994900    -0.7128234368
    5      C      -6.9126746188     3.3549645427     1.0028825347
    6      C      -6.0754354805     2.6903677816     0.0375309042
    7      C      -4.5971316886     3.0776293451    -0.1747575318
    8      C      -4.2029846236     4.3377887405     0.2011951107
    9      C      -3.5598755629     2.2316886234    -0.7851942813
   10      N      -2.9565697410     4.8862286143     0.1263042220
   11      N      -3.6388793696     0.9619719551    -1.2795504089
   12      C      -2.2586571747     2.7276745623    -0.7597648805
   13      C      -1.9744697891     4.0446545789    -0.3539913405
   14      S      -2.1347627640     0.4974912619    -1.6355671536
   15      N      -1.3210179748     1.8586808183    -1.3106111418
   16      C      -0.5938255055     4.6398373936    -0.4360631350
   17      S      -0.3168005347     6.3976056348    -0.6516135370
   18      C       0.5922384923     3.9963842421    -0.0318290014
   19      C       1.3585849174     6.2192789538    -0.2582826564
   20      S       0.9623103045     2.4498289795     0.6264412117
   21      C       1.6530696641     4.9372818445    -0.0071728281
   22      C       2.2496292620     7.3513864814    -0.1959807953
   23      C       2.6308362935     2.9937961858     0.8903175132
   24      C       2.8435877324     4.3249267276     0.5317909366
   25      N       1.7068479348     8.4894285529    -0.4832396931
   26      S       3.9224909804     7.4197627779     0.2267145477
   27      C       2.5357382196     9.5615947152    -0.1216354672
   28      C       3.8506375652     9.1445052082     0.1577389307
   29      C      -9.9301863230     1.4663079512     1.2859733234
   30      H      -8.4949546548     0.3642395412    -0.8717811294
   31      H      -6.1780335958     1.0441366302    -1.4719400703
   32      H      -6.6293034100     4.2982118488     1.4657629484
   33      H      -4.9531818153     5.0184014859     0.6025820367
   34      H       3.3866624759     2.3040285567     1.2412938654
   35      H       3.7552371990     4.8289361782     0.8328735228
   36      H       2.2555137170    10.6039703017    -0.0525169842
   37      H       4.6090216542     9.8452136675     0.4817392833
   38      H      -9.8607466904     0.5988356660     1.9533869671
   39      C     -11.0391762482     1.0960731132     0.2684250392
   40      H     -10.2617850690     2.2187510255     2.0112440946
   41      H     -11.0470533949     0.0038138564     0.1697251581
   42      H     -10.8988265926     1.5546071619    -0.7172054698
   43      C     -12.3588564655     1.5765525177     0.8040309259
   44      H     -12.5775064974     0.9227290172     1.6575588948
   45      C     -13.4782303797     1.4252924696    -0.2489322445
   46      H     -12.4728007527     2.5720751926     1.2520223356
   47      H     -13.2627274994     1.8582076639    -1.2332715879
   48      H     -14.3932017760     1.8010534542     0.2255359066
   49      C     -13.8923751992    -0.0471454571    -0.6740164955
   50      H     -13.1580880440    -0.3802268275    -1.4176939622
   51      C     -15.3112555945    -0.1858095854    -1.2231163803
   52      H     -13.9398055862    -0.8049506218     0.1178620878
   53      H     -15.4425038084     0.3520412520    -2.1704396531
   54      H     -16.0565147880     0.3201761104    -0.5962366390
   55      H     -15.7385388714    -1.1806077423    -1.3988281564
   56      C      -1.7343573265    -5.6985160479    -0.6530200035
   57      C      -1.7838115553    -4.3229236902    -0.6539919203
   58      N      -0.5713401598    -6.3869382056    -0.8838792741
   59      C      -0.6176651394    -3.6136380350    -0.8689742357
   60      C       0.6072520857    -5.7108252462    -0.9472084538
   61      C       0.6600773007    -4.3235534752    -0.8710538078
   62      C       1.9676010647    -3.6468383031    -0.7695639932
   63      C       3.0091670977    -4.0052616103    -1.5815750347
   64      C       2.2393209233    -2.7251750471     0.2143014249
   65      N       4.2768325926    -3.5078480089    -1.3933599922
   66      N       1.3837403066    -2.3084862916     1.1032121569
   67      C       3.5102330313    -2.1897664906     0.3222740665
   68      C       4.5556241829    -2.6496830575    -0.4367701296
   69      S       2.0998474532    -1.1015678906     1.9141890543
   70      N       3.5958339880    -1.2406262559     1.2963532682
   71      C       6.0158033360    -2.2165238370    -0.3447053127
   72      S       6.6768117340    -1.1034773909     0.9193170394
   73      C       7.0852683058    -2.7905027436    -1.0490481931
   74      C       8.3064876859    -1.3020623892     0.3036537465
   75      S       7.1681947590    -4.1147636165    -2.2551188145
   76      C       8.2869204989    -2.1815601627    -0.7815581184
   77      C       9.5015052722    -0.6370475036     0.8260455250
   78      C       8.9083566121    -3.8494579550    -2.3147143765
   79      C       9.3742386034    -2.7673215110    -1.5761863224
   80      N      10.6736719346    -1.1871314051     0.5885670694
   81      S       9.4259080841     0.7129524221     1.9024558863
   82      C      11.6533256781    -0.3495578027     1.0606507520
   83      C      11.2394319934     0.7994697781     1.6083848447
   84      C      -2.9950972412    -6.6152140110    -0.6476616479
   85      H      -2.6948296798    -3.7366780750    -0.5781759885
   86      H      -0.6725195638    -2.5330362925    -0.7750547684
   87      H       1.4894741991    -6.3201023511    -1.1391421716
   88      H       2.9143879939    -4.6983803910    -2.4156693204
   89      H       9.4153765728    -4.4677782592    -3.0441660616
   90      H      10.4391607924    -2.5876090971    -1.4772915314
   91      H      12.6557462118    -0.6965675305     0.8436937922
   92      H      11.7493459307     1.6540711221     2.0329862100
   93      H      -3.8142925695    -5.9073430002    -0.4741633879
   94      C      -3.0146232351    -7.7009120850     0.4374823185
   95      H      -3.1073650821    -6.9819913500    -1.6755119850
   96      H      -2.6890179947    -7.4040852857     1.4428365240
   97      H      -2.2528380609    -8.4610354047     0.2251926880
   98      C      -4.4979042326    -8.2547374392     0.6798827299
   99      H      -5.1180393740    -7.4169497169     1.0201313725
  100      C      -4.5091528548    -9.2370674351     1.8812786878
  101      H      -4.9650236106    -8.7083430442    -0.2032947391
  102      H      -4.1301722685    -8.6571701856     2.7322075305
  103      H      -3.9277492608   -10.1503645329     1.7008368081
  104      C      -5.8770235443    -9.7054069677     2.3131141413
  105      H      -5.8308102589   -10.5312898559     3.0347482503
  106      C      -6.8063768610   -10.1676848515     1.1489481003
  107      H      -6.2618861985    -8.9787062750     3.0395188774
  108      H      -7.7338272344   -10.6136947308     1.5281591133
  109      H      -6.3306766075   -10.8721731809     0.4553174619
  110      H      -7.1052586348    -9.3094243822     0.5352228751
 ----------------------------------------------------------------

    9   -5663.4888422628      7.65E-06 Convergence criterion met
 Total energy in the final basis set = -5663.4888422628

                    Orbital Energies (a.u.)
 --------------------------------------------------------------

 Alpha MOs
 -- Occupied --
-88.999 -88.994 -88.930 -88.928 -88.926 -88.921 -88.917 -88.908
-14.392 -14.390 -14.388 -14.380 -14.354 -14.348 -14.341 -14.340
-14.330 -14.324 -10.272 -10.268 -10.267 -10.265 -10.264 -10.260
-10.252 -10.251 -10.249 -10.242 -10.242 -10.240 -10.235 -10.234
-10.234 -10.234 -10.233 -10.232 -10.232 -10.232 -10.232 -10.230
-10.230 -10.228 -10.228 -10.228 -10.226 -10.222 -10.218 -10.218
-10.217 -10.216 -10.211 -10.208 -10.207 -10.204 -10.200 -10.199
-10.190 -10.183 -10.183 -10.182 -10.181 -10.180 -10.180 -10.179
-10.176 -10.174 -10.174 -10.171  -8.055  -8.049  -7.991  -7.987
 -7.987  -7.979  -7.977  -7.968  -6.020  -6.015  -6.014  -6.013
 -6.009  -6.007  -5.955  -5.951  -5.951  -5.951  -5.948  -5.948
 -5.947  -5.944  -5.943  -5.943  -5.942  -5.940  -5.938  -5.936
 -5.933  -5.932  -5.929  -5.924  -1.053  -1.042  -0.974  -0.974
 -0.966  -0.951  -0.948  -0.932  -0.916  -0.913  -0.905  -0.901
 -0.847  -0.839  -0.839  -0.827  -0.816  -0.810  -0.809  -0.809
 -0.801  -0.799  -0.796  -0.791  -0.786  -0.786  -0.772  -0.767
 -0.750  -0.748  -0.745  -0.737  -0.727  -0.724  -0.713  -0.706
 -0.695  -0.692  -0.678  -0.677  -0.659  -0.656  -0.655  -0.647
 -0.638  -0.634  -0.628  -0.622  -0.618  -0.610  -0.602  -0.599
 -0.597  -0.591  -0.590  -0.586  -0.579  -0.578  -0.564  -0.557
 -0.551  -0.546  -0.545  -0.539  -0.527  -0.525  -0.517  -0.517
 -0.508  -0.507  -0.501  -0.501  -0.493  -0.482  -0.481  -0.478
 -0.476  -0.474  -0.472  -0.472  -0.467  -0.464  -0.456  -0.451
 -0.449  -0.443  -0.440  -0.438  -0.438  -0.437  -0.436  -0.432
 -0.432  -0.427  -0.425  -0.423  -0.418  -0.415  -0.414  -0.413
 -0.409  -0.408  -0.406  -0.406  -0.404  -0.403  -0.399  -0.399
 -0.397  -0.397  -0.397  -0.392  -0.389  -0.387  -0.386  -0.381
 -0.376  -0.375  -0.374  -0.371  -0.367  -0.366  -0.361  -0.359
 -0.357  -0.354  -0.352  -0.351  -0.349  -0.345  -0.344  -0.343
 -0.343  -0.340  -0.337  -0.334  -0.333  -0.324  -0.320  -0.319
 -0.316  -0.315  -0.309  -0.308  -0.303  -0.301  -0.301  -0.300
 -0.298  -0.298  -0.295  -0.291  -0.285  -0.283  -0.283  -0.281
 -0.276  -0.274  -0.271  -0.270  -0.254  -0.254  -0.253  -0.250
 -0.250  -0.244  -0.238  -0.230  -0.197  -0.196

          Ground-State Mulliken Net Atomic Charges

     Atom                 Charge (a.u.)
  ----------------------------------------
      1 C                     0.284011
      2 C                    -0.115365
      3 N                    -0.476959
      4 C                    -0.091343
      5 C                     0.086556
      6 C                     0.014541
      7 C                     0.078060
      8 C                     0.042207
      9 C                     0.238067
     10 N                    -0.498605
     11 N                    -0.564458
     12 C                     0.193207
     13 C                     0.233914
     14 S                     0.621502
     15 N                    -0.532490
     16 C                    -0.233237
     17 S                     0.359143
     18 C                    -0.104601
     19 C                    -0.213030
     20 S                     0.273325
     21 C                     0.120916
     22 C                     0.089847
     23 C                    -0.314515
     24 C                    -0.080831
     25 N                    -0.437221
     26 S                     0.275794
     27 C                     0.103760
     28 C                    -0.311541
     29 C                    -0.248504
     30 H                     0.097243
     31 H                     0.122376
     32 H                     0.098885
     33 H                     0.112791
     34 H                     0.141084
     35 H                     0.118046
     36 H                     0.122718
     37 H                     0.133844
     38 H                     0.116358
     39 C                    -0.183820
     40 H                     0.123051
     41 H                     0.105683
     42 H                     0.099403
     43 C                    -0.177662
     44 H                     0.093429
     45 C                    -0.181290
     46 H                     0.103272
     47 H                     0.098039
     48 H                     0.088354
     49 C                    -0.179548
     50 H                     0.092211
     51 C                    -0.327596
     52 H                     0.091450
     53 H                     0.095706
     54 H                     0.099874
     55 H                     0.102185
     56 C                     0.254360
     57 C                    -0.112521
     58 N                    -0.478822
     59 C                    -0.063662
     60 C                     0.080192
     61 C                     0.019323
     62 C                     0.025032
     63 C                     0.045365
     64 C                     0.283768
     65 N                    -0.543707
     66 N                    -0.559804
     67 C                     0.177028
     68 C                     0.347514
     69 S                     0.600112
     70 N                    -0.567442
     71 C                    -0.232491
     72 S                     0.313426
     73 C                    -0.108158
     74 C                    -0.226403
     75 S                     0.277731
     76 C                     0.140935
     77 C                     0.069914
     78 C                    -0.304841
     79 C                    -0.053850
     80 N                    -0.428107
     81 S                     0.237888
     82 C                     0.142162
     83 C                    -0.304638
     84 C                    -0.212975
     85 H                     0.093498
     86 H                     0.103920
     87 H                     0.106445
     88 H                     0.123878
     89 H                     0.129810
     90 H                     0.128095
     91 H                     0.115358
     92 H                     0.131900
     93 H                     0.087979
     94 C                    -0.174897
     95 H                     0.124706
     96 H                     0.095106
     97 H                     0.117143
     98 C                    -0.180747
     99 H                     0.092763
    100 C                    -0.172850
    101 H                     0.096819
    102 H                     0.087844
    103 H                     0.094642
    104 C                    -0.183765
    105 H                     0.089809
    106 C                    -0.321056
    107 H                     0.087942
    108 H                     0.098566
    109 H                     0.105923
    110 H                     0.105603
  ----------------------------------------
  Sum of atomic charges =     0.000000

                    Cartesian Multipole Moments
 -----------------------------------------------------------------
    Charge (ESU x 10^10)
                 0.0000
    Dipole Moment (Debye)
         X       1.8248      Y       0.5210      Z       0.9585
       Tot       2.1261
    Quadrupole Moments (Debye-Ang)
        XX    -394.3334     XY      42.7295     YY    -450.1350
        XZ      12.3308     YZ      11.1346     ZZ    -446.8504

 Total job time:  79.92s(wall), 934.51s(cpu)
        *  Thank you very much for using Q-Chem.  Have a nice day.  *
