 Q-Chem 4.4, Q-Chem, Inc., Pleasanton, CA (2016)
 Q-Chem 4.4.2 for Intel X86 Linux

User input:
--------------------------------------------------------------
$comment
SP
$end

$rem
MEM_STATIC 5000
MEM_TOTAL 20000
JOBTYPE SP
EXCHANGE B3LYP
BASIS 6-31g(d,p)
$end

$molecule
0 1
C         -16.949000     14.677000      3.511000
C         -16.949000     13.945000      2.338000
N         -16.133000     15.742000      3.637000
C         -16.104000     14.237000      1.252000
C         -15.303000     16.048000      2.667000
C         -15.221000     15.319000      1.453000
C         -14.208000     15.718000      0.450000
C         -12.944000     16.149000      0.946000
C         -14.323000     15.755000     -0.993000
N         -11.931000     16.447000      0.145000
N         -15.432000     15.397000     -1.660000
C         -13.222000     16.047000     -1.770000
C         -11.982000     16.394000     -1.207000
S         -15.069000     15.651000     -3.212000
N         -13.480000     16.016000     -3.145000
C         -10.842000     16.794000     -1.960000
S         -10.691000     16.972000     -3.681000
C          -9.644000     17.040000     -1.388000
C          -9.013000     17.537000     -3.565000
S          -9.096000     16.658000      0.252000
C          -8.603000     17.387000     -2.270000
C          -8.225000     17.978000     -4.724000
C          -7.462000     17.118000     -0.276000
C          -7.325000     17.471000     -1.573000
N          -6.893000     18.045000     -4.550000
S          -8.925000     18.638000     -6.247000
C          -6.410000     18.752000     -5.623000
C          -7.340000     19.010000     -6.620000
C         -17.789000     14.355000      4.648000
H         -17.552000     13.042000      2.363000
H         -16.049000     13.608000      0.368000
H         -14.782000     17.004000      2.706000
H         -12.707000     16.047000      2.004000
H          -6.607000     17.051000      0.384000
H          -6.420000     17.890000     -1.999000
H          -5.356000     18.993000     -5.581000
H          -7.206000     19.578000     -7.531000
H         -17.449000     14.958000      5.499000
C         -17.796000     12.847000      5.010000
H         -18.766000     14.832000      4.503000
H         -16.967000     12.515000      5.647000
H         -17.791000     12.169000      4.148000
C         -19.066000     12.383000      5.700000
H         -19.859000     12.638000      4.987000
C         -19.346000     13.168000      7.029000
H         -19.010000     11.321000      5.971000
H         -19.360000     14.241000      6.800000
H         -18.434000     13.139000      7.639000
C         -20.542000     12.741000      7.949000
H         -21.463000     12.659000      7.357000
C         -20.676000     13.742000      9.151000
H         -20.363000     11.725000      8.321000
H         -20.022000     13.518000     10.002000
H         -21.745000     13.761000      9.396000
H         -20.363000     14.751000      8.856000
C           2.736000      8.303000      2.132000
C           1.451000      8.173000      1.656000
N           3.454000      9.462000      1.987000
C           0.857000      9.255000      1.035000
C           2.837000     10.579000      1.516000
C           1.513000     10.560000      1.092000
C           0.836000     11.827000      0.754000
C           1.453000     12.767000     -0.026000
C          -0.377000     12.176000      1.300000
N           0.913000     14.017000     -0.215000
N          -1.077000     11.427000      2.103000
C          -0.924000     13.416000      1.023000
C          -0.231000     14.373000      0.327000
S          -2.498000     12.175000      2.323000
N          -2.158000     13.578000      1.578000
C          -0.678000     15.804000      0.043000
S          -2.172000     16.565000      0.723000
C           0.102000     16.799000     -0.566000
C          -1.778000     18.104000     -0.019000
S           1.768000     16.794000     -1.229000
C          -0.570000     17.988000     -0.711000
C          -2.593000     19.318000      0.053000
C           1.530000     18.491000     -1.636000
C           0.253000     18.989000     -1.402000
N          -2.002000     20.477000     -0.148000
S          -4.237000     19.311000      0.586000
C          -2.959000     21.461000     -0.151000
C          -4.225000     21.059000      0.014000
C           3.599000      7.111000      2.646000
H           0.882000      7.248000      1.656000
H          -0.186000      9.150000      0.751000
H           3.469000     11.461000      1.421000
H           2.398000     12.600000     -0.540000
H           2.364000     18.929000     -2.169000
H           0.043000     20.045000     -1.532000
H          -2.564000     22.443000     -0.379000
H          -5.178000     21.571000      0.031000
H           2.881000      6.283000      2.680000
C           4.228000      7.304000      4.033000
H           4.308000      6.881000      1.841000
H           3.591000      7.746000      4.810000
H           5.009000      8.073000      3.990000
C           4.669000      5.903000      4.672000
H           3.769000      5.287000      4.785000
C           5.160000      6.114000      6.129000
H           5.410000      5.347000      4.084000
H           4.313000      6.571000      6.656000
H           6.074000      6.718000      6.196000
C           5.453000      4.848000      6.896000
H           5.968000      5.041000      7.846000
C           6.305000      3.797000      6.120000
H           4.518000      4.524000      7.370000
H           6.593000      2.958000      6.765000
H           7.207000      4.214000      5.655000
H           5.723000      3.367000      5.296000
$end

--------------------------------------------------------------

             Standard Nuclear Orientation (Angstroms)
    I     Atom           X                Y                Z
 ----------------------------------------------------------------
    1      C     -10.2203827268    -4.1744454946     0.6597562436
    2      C     -10.0815473459    -3.9077509040    -0.6898184051
    3      N      -9.6906399650    -3.3315599096     1.5679817095
    4      C      -9.3761419804    -2.7951200986    -1.1829116630
    5      C      -8.9989702813    -2.2899613602     1.1678548414
    6      C      -8.7830177958    -1.9765408000    -0.1985613018
    7      C      -7.9385469671    -0.8085390826    -0.5362297898
    8      C      -6.8039950028    -0.5717807379     0.2921483403
    9      C      -8.1120832421     0.1625067088    -1.5963232914
   10      N      -5.9269968406     0.3887732123     0.0376206756
   11      N      -9.1210361120     0.1247329147    -2.4814906467
   12      C      -7.1475347712     1.1209997747    -1.8246460672
   13      C      -6.0128721179     1.2480311831    -1.0052672265
   14      S      -8.8898484070     1.4228167442    -3.4123610011
   15      N      -7.4400830214     1.9682581031    -2.8992245177
   16      C      -5.0365366764     2.2753595623    -1.1393362651
   17      S      -4.9978685506     3.5886963164    -2.2751079615
   18      C      -3.9170919190     2.3157583678    -0.3856019807
   19      C      -3.5098684745     4.2620448811    -1.5816943160
   20      S      -3.2314551405     1.0571808358     0.6544522505
   21      C      -3.0281478366     3.3713719620    -0.6639405482
   22      C      -2.8993519064     5.5178082907    -2.0388964366
   23      C      -1.7836117193     2.0789838249     0.7959021680
   24      C      -1.7864099483     3.2292712677     0.0870876866
   25      N      -1.6203406410     5.7259368415    -1.6786164215
   26      S      -3.7969111617     6.8639656910    -2.8309675424
   27      C      -1.3679949493     7.0497048921    -1.9402015898
   28      C      -2.3689269278     7.7089192022    -2.6395188768
   29      C     -10.9116176473    -5.3416120830     1.1715857462
   30      H     -10.4398397941    -4.6924203841    -1.3497906231
   31      H      -9.1990516265    -2.6377068775    -2.2430918762
   32      H      -8.7308687717    -1.5276207228     1.8985095705
   33      H      -6.5103647621    -1.3052253321     1.0416663914
   34      H      -0.9151321561     1.7662518537     1.3607525574
   35      H      -1.0302414180     4.0016877912     0.1745169033
   36      H      -0.4061649714     7.4123525040    -1.6023690822
   37      H      -2.4138830380     8.7524106831    -2.9216633034
   38      H     -10.7011297048    -5.4131449509     2.2458240228
   39      C     -10.5302694653    -6.6588188925     0.4472261773
   40      H     -11.9811651647    -5.1083259490     1.2403511999
   41      H      -9.6219340716    -7.1500363252     0.8171805616
   42      H     -10.3885874769    -6.5614390656    -0.6359157264
   43      C     -11.6188422614    -7.7164448872     0.4742913342
   44      H     -12.4759867353    -7.2214914582     0.0025207819
   45      C     -12.0361359243    -8.1084423616     1.9347946649
   46      H     -11.2907146427    -8.6421800254    -0.0153694870
   47      H     -12.3248015234    -7.1943333567     2.4686887545
   48      H     -11.1237674242    -8.3487129048     2.4956322405
   49      C     -13.0538268435    -9.2787392423     2.1668623364
   50      H     -13.9466555748    -9.1313872445     1.5451121894
   51      C     -13.3881590576    -9.4014363480     3.6958909139
   52      H     -12.6143668649   -10.2139473496     1.7995181882
   53      H     -12.6681893566    -9.9959089712     4.2706421035
   54      H     -14.4185850804    -9.7749090687     3.7393344214
   55      H     -13.3468325946    -8.4204815684     4.1848641687
   56      C      10.3667427271    -3.6853634495    -1.7815152075
   57      C       9.1377844534    -3.7257967526    -2.4001651162
   58      N      10.7683061449    -2.6140908152    -1.0259017054
   59      C       8.2710823460    -2.6628752015    -2.2321584699
   60      C       9.8761548114    -1.6317517309    -0.7270791467
   61      C       8.5837690197    -1.6362481325    -1.2397503355
   62      C       7.6011468792    -0.6489741795    -0.7523020094
   63      C       7.9360481497     0.6717500638    -0.6249536208
   64      C       6.3603787270    -1.0197269104    -0.2893518985
   65      N       7.0957321561     1.5754273849    -0.0191010561
   66      N       5.8985113394    -2.2372965482    -0.2857891246
   67      C       5.5125389194    -0.0655473648     0.2437963504
   68      C       5.9198636387     1.2267024792     0.4551986065
   69      S       4.3452622120    -2.1486716899     0.1688621514
   70      N       4.2982549047    -0.5797390658     0.5875204057
   71      C       5.1210846918     2.3422686143     1.1227990799
   72      S       3.5108507258     2.1161546216     1.9162573569
   73      C       5.6063705839     3.6212587272     1.4358292606
   74      C       3.4824179350     3.7910602848     2.4341411237
   75      S       7.1958042662     4.4095596311     1.1761520483
   76      C       4.6550678801     4.4245287691     2.0155795564
   77      C       2.3944632802     4.4366787927     3.1708475858
   78      C       6.5286850209     5.8404235912     1.9569735646
   79      C       5.1774696022     5.7717833509     2.2779009859
   80      N       2.6710428483     5.5191069273     3.8671349374
   81      S       0.8245291270     3.7316879935     3.3294941354
   82      C       1.5000548820     6.0218980258     4.3771371862
   83      C       0.3806501202     5.3616339621     4.0568726933
   84      C      11.5172243122    -4.6987128719    -2.0631960027
   85      H       8.8169507785    -4.5022567686    -3.0883232351
   86      H       7.2772027835    -2.7640359735    -2.6581865364
   87      H      10.2651641679    -0.8089944163    -0.1286519399
   88      H       8.8733526278     1.0947037483    -0.9822776981
   89      H       7.2074765078     6.6834041530     1.9676922236
   90      H       4.7069551738     6.5665423692     2.8463288842
   91      H       1.6299239887     6.9557389669     4.9094980712
   92      H      -0.6684133716     5.5160657773     4.2719508296
   93      H      11.0293101478    -5.4600097323    -2.6833821511
   94      C      12.1290461939    -5.3615571160    -0.8210323689
   95      H      12.2310645230    -4.1743576080    -2.7105673881
   96      H      11.4311736915    -5.7013185679    -0.0448892597
   97      H      12.6922733341    -4.6230753365    -0.2374307496
   98      C      12.9276068941    -6.6953371655    -1.2069528112
   99      H      12.2137407831    -7.3967405345    -1.6548964342
  100      C      13.4039541982    -7.4210928908     0.0794463777
  101      H      13.7614239342    -6.5418958453    -1.9034913276
  102      H      12.4899028072    -7.6260764538     0.6508296060
  103      H      14.1409686833    -6.8461429217     0.6547229910
  104      C      14.0304116631    -8.7755703461    -0.1437931074
  105      H      14.5158312693    -9.1687935759     0.7588238089
  106      C      15.0877936233    -8.8249493910    -1.2893000258
  107      H      13.2233567779    -9.5188732878    -0.1374567747
  108      H      15.5987952498    -9.7948163089    -1.3228484888
  109      H      15.8401222881    -8.0283999901    -1.2324789725
  110      H      14.6010611864    -8.6988492853    -2.2638718796
 ----------------------------------------------------------------

    9   -5663.5126796402      9.45E-06 Convergence criterion met
 Total energy in the final basis set = -5663.5126796402

                    Orbital Energies (a.u.)
 --------------------------------------------------------------

 Alpha MOs
 -- Occupied --
-88.990 -88.990 -88.933 -88.926 -88.924 -88.919 -88.906 -88.904
-14.390 -14.386 -14.384 -14.376 -14.349 -14.345 -14.343 -14.338
-14.327 -14.325 -10.274 -10.270 -10.261 -10.257 -10.257 -10.252
-10.248 -10.247 -10.247 -10.239 -10.239 -10.237 -10.236 -10.231
-10.231 -10.230 -10.230 -10.229 -10.228 -10.227 -10.225 -10.224
-10.223 -10.223 -10.222 -10.220 -10.215 -10.214 -10.213 -10.213
-10.212 -10.212 -10.208 -10.205 -10.197 -10.197 -10.195 -10.190
-10.187 -10.187 -10.186 -10.184 -10.181 -10.180 -10.180 -10.176
-10.175 -10.175 -10.173 -10.172  -8.045  -8.045  -7.994  -7.985
 -7.984  -7.979  -7.966  -7.963  -6.011  -6.010  -6.005  -6.005
 -6.003  -6.003  -5.958  -5.955  -5.952  -5.949  -5.949  -5.946
 -5.945  -5.943  -5.941  -5.941  -5.939  -5.935  -5.930  -5.928
 -5.927  -5.924  -5.922  -5.919  -1.050  -1.041  -0.972  -0.968
 -0.963  -0.959  -0.946  -0.929  -0.913  -0.912  -0.903  -0.902
 -0.839  -0.837  -0.836  -0.831  -0.823  -0.814  -0.809  -0.807
 -0.799  -0.797  -0.796  -0.793  -0.784  -0.784  -0.769  -0.764
 -0.748  -0.746  -0.735  -0.734  -0.725  -0.722  -0.713  -0.704
 -0.690  -0.688  -0.675  -0.671  -0.659  -0.657  -0.652  -0.646
 -0.637  -0.636  -0.628  -0.624  -0.615  -0.610  -0.597  -0.597
 -0.589  -0.589  -0.589  -0.583  -0.576  -0.575  -0.564  -0.555
 -0.553  -0.548  -0.541  -0.539  -0.525  -0.525  -0.514  -0.513
 -0.508  -0.504  -0.499  -0.497  -0.493  -0.490  -0.477  -0.476
 -0.473  -0.473  -0.469  -0.467  -0.465  -0.461  -0.448  -0.448
 -0.443  -0.437  -0.436  -0.435  -0.435  -0.433  -0.429  -0.429
 -0.426  -0.423  -0.422  -0.421  -0.418  -0.417  -0.412  -0.411
 -0.411  -0.405  -0.405  -0.402  -0.400  -0.397  -0.395  -0.395
 -0.394  -0.392  -0.390  -0.390  -0.388  -0.387  -0.384  -0.383
 -0.379  -0.374  -0.373  -0.372  -0.368  -0.364  -0.362  -0.356
 -0.354  -0.352  -0.351  -0.349  -0.347  -0.346  -0.342  -0.341
 -0.340  -0.338  -0.336  -0.332  -0.331  -0.322  -0.320  -0.318
 -0.317  -0.311  -0.310  -0.307  -0.307  -0.298  -0.298  -0.298
 -0.297  -0.296  -0.295  -0.294  -0.289  -0.286  -0.281  -0.278
 -0.273  -0.268  -0.267  -0.261  -0.251  -0.251  -0.250  -0.247
 -0.245  -0.243  -0.235  -0.228  -0.195  -0.192

          Ground-State Mulliken Net Atomic Charges

     Atom                 Charge (a.u.)
  ----------------------------------------
      1 C                     0.277479
      2 C                    -0.110828
      3 N                    -0.487283
      4 C                    -0.055819
      5 C                     0.079298
      6 C                     0.023973
      7 C                     0.000368
      8 C                     0.064258
      9 C                     0.235489
     10 N                    -0.544315
     11 N                    -0.544577
     12 C                     0.161272
     13 C                     0.328988
     14 S                     0.609003
     15 N                    -0.550137
     16 C                    -0.194573
     17 S                     0.308537
     18 C                    -0.122772
     19 C                    -0.258610
     20 S                     0.281183
     21 C                     0.164124
     22 C                     0.047111
     23 C                    -0.316589
     24 C                    -0.041171
     25 N                    -0.415702
     26 S                     0.297807
     27 C                     0.115329
     28 C                    -0.305156
     29 C                    -0.240902
     30 H                     0.081779
     31 H                     0.114066
     32 H                     0.107366
     33 H                     0.122275
     34 H                     0.126569
     35 H                     0.129348
     36 H                     0.114567
     37 H                     0.132479
     38 H                     0.130960
     39 C                    -0.190026
     40 H                     0.122116
     41 H                     0.105794
     42 H                     0.097950
     43 C                    -0.182696
     44 H                     0.091466
     45 C                    -0.179914
     46 H                     0.088314
     47 H                     0.091828
     48 H                     0.085603
     49 C                    -0.180873
     50 H                     0.094316
     51 C                    -0.323014
     52 H                     0.095484
     53 H                     0.108738
     54 H                     0.104172
     55 H                     0.105571
     56 C                     0.254594
     57 C                    -0.112456
     58 N                    -0.480175
     59 C                    -0.058431
     60 C                     0.079723
     61 C                     0.017976
     62 C                     0.026809
     63 C                     0.044308
     64 C                     0.284383
     65 N                    -0.544670
     66 N                    -0.559844
     67 C                     0.175399
     68 C                     0.347499
     69 S                     0.599227
     70 N                    -0.561772
     71 C                    -0.232077
     72 S                     0.316315
     73 C                    -0.108510
     74 C                    -0.228346
     75 S                     0.276415
     76 C                     0.141035
     77 C                     0.065655
     78 C                    -0.304745
     79 C                    -0.054683
     80 N                    -0.428093
     81 S                     0.240879
     82 C                     0.141714
     83 C                    -0.307133
     84 C                    -0.213469
     85 H                     0.093468
     86 H                     0.105436
     87 H                     0.105500
     88 H                     0.122898
     89 H                     0.128671
     90 H                     0.127208
     91 H                     0.114630
     92 H                     0.134815
     93 H                     0.087848
     94 C                    -0.174454
     95 H                     0.124412
     96 H                     0.094780
     97 H                     0.116837
     98 C                    -0.181025
     99 H                     0.092739
    100 C                    -0.173002
    101 H                     0.096813
    102 H                     0.087737
    103 H                     0.094440
    104 C                    -0.183362
    105 H                     0.089367
    106 C                    -0.320982
    107 H                     0.087781
    108 H                     0.098215
    109 H                     0.105765
    110 H                     0.105915
  ----------------------------------------
  Sum of atomic charges =     0.000000

                    Cartesian Multipole Moments
 -----------------------------------------------------------------
    Charge (ESU x 10^10)
                 0.0000
    Dipole Moment (Debye)
         X      -2.6180      Y       0.2632      Z      -2.4376
       Tot       3.5868
    Quadrupole Moments (Debye-Ang)
        XX    -452.9358     XY      -2.9375     YY    -390.0179
        XZ       5.4215     YZ       8.8662     ZZ    -440.0189

 Total job time:  78.43s(wall), 911.12s(cpu)
        *  Thank you very much for using Q-Chem.  Have a nice day.  *
