 Q-Chem 4.4, Q-Chem, Inc., Pleasanton, CA (2016)
 Q-Chem 4.4.2 for Intel X86 Linux

User input:
--------------------------------------------------------------
$comment
SP
$end

$rem
MEM_STATIC 5000
MEM_TOTAL 20000
JOBTYPE SP
EXCHANGE B3LYP
BASIS 6-31g(d,p)
$end

$molecule
0 1
C         -23.348000      0.962000    -12.701000
C         -22.755000     -0.352000    -12.780000
N         -22.582000      2.060000    -12.366000
C         -21.366000     -0.409000    -12.738000
C         -21.275000      1.967000    -12.278000
C         -20.592000      0.743000    -12.503000
C         -19.058000      0.598000    -12.405000
C         -18.325000     -0.308000    -13.177000
C         -18.290000      1.338000    -11.492000
N         -17.069000     -0.599000    -12.918000
N         -18.767000      2.245000    -10.699000
C         -16.984000      1.047000    -11.200000
C         -16.359000      0.081000    -12.003000
S         -17.601000      2.746000     -9.666000
N         -16.424000      1.747000    -10.175000
C         -14.985000     -0.326000    -11.765000
S         -14.024000     -0.097000    -10.313000
C         -14.271000     -1.139000    -12.643000
C         -12.562000     -0.921000    -11.018000
S         -14.691000     -1.729000    -14.208000
C         -12.973000     -1.415000    -12.274000
C         -11.279000     -1.022000    -10.302000
C         -13.158000     -2.476000    -14.301000
C         -12.313000     -2.194000    -13.274000
N         -10.426000     -1.877000    -10.826000
S         -11.086000     -0.778000     -8.615000
C          -9.476000     -2.229000     -9.935000
C          -9.589000     -1.700000     -8.674000
C         -24.767000      1.224000    -13.065000
H         -23.332000     -1.246000    -13.001000
H         -20.828000     -1.351000    -12.683000
H         -20.706000      2.860000    -12.027000
H         -18.837000     -0.945000    -13.897000
H         -12.893000     -2.988000    -15.217000
H         -11.282000     -2.513000    -13.179000
H          -8.750000     -2.973000    -10.235000
H          -8.962000     -1.875000     -7.809000
H         -24.614000      2.144000    -13.643000
C         -25.690000      1.389000    -11.822000
H         -25.135000      0.437000    -13.735000
H         -25.401000      2.113000    -11.051000
H         -25.634000      0.401000    -11.349000
C         -27.144000      1.564000    -12.254000
H         -27.555000      0.781000    -12.904000
C         -27.405000      2.948000    -12.834000
H         -27.728000      1.489000    -11.329000
H         -26.809000      3.167000    -13.729000
H         -27.086000      3.747000    -12.153000
C         -28.929000      2.965000    -13.079000
H         -29.199000      2.230000    -13.846000
C         -29.244000      4.442000    -13.504000
H         -29.541000      2.755000    -12.193000
H         -28.840000      5.163000    -12.784000
H         -30.335000      4.517000    -13.587000
H         -28.799000      4.574000    -14.498000
C         -15.335000     -4.107000    -10.876000
C         -15.530000     -3.312000     -9.750000
N         -16.238000     -4.304000    -11.820000
C         -16.807000     -2.777000     -9.520000
C         -17.466000     -3.797000    -11.609000
C         -17.808000     -3.138000    -10.497000
C         -19.203000     -2.747000    -10.215000
C         -19.560000     -1.537000     -9.676000
C         -20.308000     -3.623000    -10.461000
N         -20.826000     -1.115000     -9.453000
N         -20.242000     -4.905000    -10.917000
C         -21.634000     -3.244000    -10.256000
C         -21.868000     -1.893000     -9.812000
S         -21.695000     -5.547000    -11.011000
N         -22.578000     -4.217000    -10.529000
C         -23.235000     -1.473000     -9.406000
S         -24.721000     -2.502000     -9.328000
C         -23.595000     -0.179000     -9.064000
C         -25.709000     -1.134000     -8.785000
S         -22.620000      1.208000     -8.924000
C         -24.938000      0.003000     -8.785000
C         -27.153000     -1.171000     -8.638000
C         -24.100000      2.074000     -8.386000
C         -25.232000      1.378000     -8.441000
N         -27.654000     -2.403000     -8.880000
S         -28.281000      0.115000     -8.431000
C         -28.997000     -2.396000     -8.765000
C         -29.497000     -1.119000     -8.673000
C         -13.904000     -4.663000    -11.065000
H         -14.731000     -3.160000     -9.030000
H         -17.065000     -2.160000     -8.665000
H         -18.230000     -3.970000    -12.365000
H         -18.783000     -0.836000     -9.374000
H         -23.929000      3.110000     -8.123000
H         -26.206000      1.721000     -8.113000
H         -29.597000     -3.293000     -8.846000
H         -30.540000     -0.847000     -8.576000
H         -13.163000     -3.880000    -10.859000
C         -13.734000     -5.272000    -12.492000
H         -13.693000     -5.474000    -10.357000
H         -13.873000     -4.530000    -13.288000
H         -14.549000     -5.989000    -12.653000
C         -12.317000     -5.900000    -12.595000
H         -11.602000     -5.099000    -12.371000
C         -12.058000     -6.658000    -13.966000
H         -12.233000     -6.671000    -11.818000
H         -12.809000     -7.442000    -14.122000
H         -11.094000     -7.173000    -13.881000
C         -11.955000     -5.653000    -15.154000
H         -12.982000     -5.410000    -15.453000
C         -11.004000     -6.250000    -16.263000
H         -11.500000     -4.703000    -14.848000
H         -10.022000     -6.448000    -15.816000
H         -10.943000     -5.550000    -17.106000
H         -11.426000     -7.162000    -16.704000
$end

--------------------------------------------------------------

             Standard Nuclear Orientation (Angstroms)
    I     Atom           X                Y                Z
 ----------------------------------------------------------------
    1      C       4.2007239211    -1.0469788392    -2.1653721005
    2      C       3.3219187686     0.0958896521    -2.0876603541
    3      N       3.7416005328    -2.3095943780    -1.8497889647
    4      C       1.9681910140    -0.1733457411    -1.9165829762
    5      C       2.4640333106    -2.5273984869    -1.6375971577
    6      C       1.5029396155    -1.4847062703    -1.7037927068
    7      C      -0.0051517476    -1.7052325186    -1.4571885418
    8      C      -1.0007117610    -0.9525900469    -2.0868698657
    9      C      -0.4859174825    -2.6527386674    -0.5395342463
   10      N      -2.2554653832    -0.9757722975    -1.6939908376
   11      N       0.2641349611    -3.4669120056     0.1339418907
   12      C      -1.7856173072    -2.6893534320    -0.1093938917
   13      C      -2.6933659451    -1.8516653742    -0.7748720118
   14      S      -0.6433148838    -4.2813197068     1.2252351030
   15      N      -2.0621245567    -3.5559752055     0.9038856564
   16      C      -4.0907652237    -1.7884076575    -0.3831543614
   17      S      -4.8167600845    -2.3143698604     1.1269983538
   18      C      -5.0581463740    -1.1157868697    -1.1270656368
   19      C      -6.4928440700    -1.8142129295     0.6229839512
   20      S      -4.9494111153    -0.3584894274    -2.6725112772
   21      C      -6.3385946543    -1.1693875396    -0.6223675391
   22      C      -7.6827209961    -2.0535463780     1.4571652271
   23      C      -6.6123491210     0.0164399001    -2.5685296020
   24      C      -7.2588818366    -0.5104832958    -1.4949256744
   25      N      -8.7568517590    -1.3920412548     1.0805167490
   26      S      -7.6367005085    -2.4289412400     3.1304000619
   27      C      -9.6623067127    -1.3200791195     2.0781428201
   28      C      -9.3006220558    -1.8775998775     3.2785951571
   29      C       5.5957388992    -0.9519871127    -2.6748922502
   30      H       3.6559859115     1.1102163924    -2.2890217404
   31      H       1.2406255028     0.6135837266    -1.7398814204
   32      H       2.1406539049    -3.5405636409    -1.4070909091
   33      H      -0.7243225480    -0.1752192881    -2.7979371666
   34      H      -7.0810277068     0.5030320091    -3.4141024863
   35      H      -8.3193227203    -0.4451670803    -1.2829211364
   36      H     -10.5647871185    -0.7493408104     1.9037900175
   37      H      -9.8560901745    -1.9011456427     4.2075083748
   38      H       5.5939084622    -1.8488317264    -3.3069993522
   39      C       6.6580175115    -0.9670920431    -1.5366747881
   40      H       5.7041278105    -0.0651321255    -3.3116285187
   41      H       6.6226007557    -1.7800449003    -0.8018337813
   42      H       6.4310205068    -0.0468705918    -0.9847021072
   43      C       8.0601520191    -0.7757165456    -2.1100500940
   44      H       8.2131997330     0.1161198346    -2.7311090834
   45      C       8.5636562546    -2.0270027235    -2.8176823330
   46      H       8.7064606463    -0.6187457369    -1.2382982235
   47      H       7.9413415579    -2.3282656961    -3.6698366850
   48      H       8.5065908952    -2.9147536221    -2.1753701918
   49      C      10.0177090035    -1.6763306852    -3.1993231654
   50      H      10.0326663575    -0.8573256312    -3.9276232403
   51      C      10.6108242915    -3.0140090086    -3.7651941386
   52      H      10.6565992871    -1.3795960743    -2.3582477964
   53      H      10.4579684482    -3.8478977799    -3.0704124403
   54      H      11.6756561738    -2.8291157243    -3.9515876364
   55      H      10.1047104608    -3.1902542671    -4.7224148024
   56      C      -4.5100772814     1.9152738044     0.7638866259
   57      C      -4.0232672572     1.1259526879     1.8021130825
   58      N      -3.7794575145     2.3684993473    -0.2391763650
   59      C      -2.6416015293     0.8899025128     1.8737659337
   60      C      -2.4535650168     2.1493272966    -0.1797903679
   61      C      -1.8565042489     1.5269619571     0.8419575578
   62      C      -0.3875161675     1.4552440622     0.9658952853
   63      C       0.2877999322     0.3330800574     1.3742653525
   64      C       0.4593634105     2.5759782434     0.6908191583
   65      N       1.6326075612     0.2046039453     1.4487994360
   66      N       0.0584245284     3.8309693988     0.3443206553
   67      C       1.8506946122     2.5041804352     0.7454503013
   68      C       2.4286334497     1.2218248582     1.0595265248
   69      S       1.3111274425     4.7967589887     0.1705539233
   70      N       2.5169298700     3.6832599596     0.4656359762
   71      C       3.8901184437     1.1085635672     1.3068289552
   72      S       5.1057136152     2.4482866223     1.3311500297
   73      C       4.5664887708    -0.0835417634     1.5127611319
   74      C       6.4282121451     1.3188587449     1.6743807219
   75      S       3.9494971907    -1.6644764823     1.6309169810
   76      C       5.9376957306     0.0358083534     1.6547506500
   77      C       7.8339639229     1.6816473191     1.6933646588
   78      C       5.6348632296    -2.1919728414     1.9642170048
   79      C       6.5686070170    -1.2503818810     1.8622660221
   80      N       8.0160345744     3.0077488148     1.5044358333
   81      S       9.2381348458     0.6829876673     1.6968170536
   82      C       9.3305031560     3.3061516635     1.4972882479
   83      C      10.1122664351     2.1769165001     1.4437427421
   84      C      -6.0413068087     2.1337122618     0.7484342844
   85      H      -4.6869291092     0.7529931307     2.5769415248
   86      H      -2.1624749348     0.3031045969     2.6511872561
   87      H      -1.8323325470     2.5365590187    -0.9855712387
   88      H      -0.2749264472    -0.5447174530     1.6891376323
   89      H       5.7304581525    -3.2523367584     2.1596549086
   90      H       7.6238717858    -1.3757145258     2.0734933780
   91      H       9.7009394870     4.3209551574     1.4330948420
   92      H      11.1939921624     2.1493675686     1.4249675695
   93      H      -6.5608130643     1.1899644004     0.9583371777
   94      C      -6.4937388814     2.7649151952    -0.6054483089
   95      H      -6.3537497959     2.8330357057     1.5338208775
   96      H      -6.2758643124     2.1207808513    -1.4663330975
   97      H      -5.8829392821     3.6592387141    -0.7824915040
   98      C      -8.0185624525     3.0517482750    -0.5311390810
   99      H      -8.5069311636     2.0955529291    -0.3071112647
  100      C      -8.5848663969     3.8038915795    -1.8097579813
  101      H      -8.1917066431     3.7378606106     0.3082040862
  102      H      -8.0506254988     4.7481546421    -1.9708384937
  103      H      -9.6256399754     4.0756486237    -1.5983709731
  104      C      -8.5834630732     2.8699685904    -3.0586630542
  105      H      -7.5655437733     2.8888561722    -3.4669063128
  106      C      -9.7560806648     3.2906650861    -4.0275146643
  107      H      -8.7777805562     1.8248443335    -2.7882614945
  108      H     -10.7046615386     3.2303000946    -3.4798949114
  109      H      -9.7463388083     2.6435261493    -4.9137913100
  110      H      -9.5994028077     4.2987254269    -4.4319592197
 ----------------------------------------------------------------

    9   -5663.5200766125      9.80E-06 Convergence criterion met
 Total energy in the final basis set = -5663.5200766125

                    Orbital Energies (a.u.)
 --------------------------------------------------------------

 Alpha MOs
 -- Occupied --
-88.989 -88.989 -88.937 -88.929 -88.921 -88.917 -88.903 -88.902
-14.385 -14.382 -14.375 -14.371 -14.348 -14.343 -14.342 -14.339
-14.321 -14.321 -10.272 -10.268 -10.263 -10.255 -10.253 -10.252
-10.247 -10.246 -10.243 -10.235 -10.235 -10.234 -10.234 -10.234
-10.233 -10.231 -10.229 -10.229 -10.227 -10.221 -10.221 -10.220
-10.220 -10.219 -10.219 -10.216 -10.211 -10.211 -10.210 -10.208
-10.205 -10.203 -10.202 -10.202 -10.200 -10.196 -10.192 -10.186
-10.180 -10.176 -10.176 -10.176 -10.172 -10.172 -10.171 -10.170
-10.168 -10.168 -10.167 -10.158  -8.044  -8.044  -7.998  -7.991
 -7.979  -7.974  -7.963  -7.963  -6.009  -6.009  -6.004  -6.003
 -6.002  -6.002  -5.962  -5.959  -5.955  -5.955  -5.951  -5.948
 -5.944  -5.940  -5.939  -5.936  -5.935  -5.931  -5.927  -5.927
 -5.924  -5.923  -5.919  -5.919  -1.045  -1.029  -0.981  -0.970
 -0.964  -0.954  -0.941  -0.929  -0.913  -0.911  -0.905  -0.888
 -0.846  -0.840  -0.834  -0.824  -0.813  -0.811  -0.809  -0.805
 -0.804  -0.793  -0.792  -0.789  -0.781  -0.776  -0.767  -0.762
 -0.748  -0.746  -0.738  -0.737  -0.722  -0.718  -0.707  -0.703
 -0.689  -0.688  -0.677  -0.671  -0.653  -0.650  -0.641  -0.637
 -0.636  -0.630  -0.620  -0.618  -0.606  -0.605  -0.598  -0.593
 -0.589  -0.587  -0.582  -0.581  -0.577  -0.574  -0.565  -0.554
 -0.550  -0.543  -0.541  -0.538  -0.523  -0.523  -0.519  -0.514
 -0.509  -0.502  -0.497  -0.492  -0.483  -0.480  -0.478  -0.474
 -0.472  -0.469  -0.464  -0.462  -0.459  -0.457  -0.447  -0.446
 -0.445  -0.441  -0.439  -0.435  -0.434  -0.432  -0.429  -0.428
 -0.424  -0.422  -0.420  -0.417  -0.416  -0.414  -0.411  -0.409
 -0.409  -0.404  -0.403  -0.401  -0.399  -0.397  -0.397  -0.396
 -0.393  -0.391  -0.390  -0.388  -0.387  -0.386  -0.383  -0.382
 -0.375  -0.375  -0.371  -0.365  -0.364  -0.356  -0.353  -0.352
 -0.349  -0.349  -0.345  -0.345  -0.343  -0.340  -0.339  -0.338
 -0.335  -0.333  -0.329  -0.329  -0.327  -0.325  -0.323  -0.315
 -0.314  -0.303  -0.301  -0.300  -0.298  -0.298  -0.296  -0.296
 -0.294  -0.291  -0.285  -0.284  -0.282  -0.280  -0.279  -0.276
 -0.272  -0.269  -0.264  -0.263  -0.253  -0.251  -0.245  -0.243
 -0.239  -0.237  -0.233  -0.225  -0.191  -0.188

          Ground-State Mulliken Net Atomic Charges

     Atom                 Charge (a.u.)
  ----------------------------------------
      1 C                     0.248640
      2 C                    -0.119951
      3 N                    -0.478816
      4 C                    -0.093764
      5 C                     0.108151
      6 C                     0.053036
      7 C                     0.027736
      8 C                     0.046993
      9 C                     0.263712
     10 N                    -0.503287
     11 N                    -0.567043
     12 C                     0.190163
     13 C                     0.299599
     14 S                     0.599622
     15 N                    -0.568150
     16 C                    -0.211357
     17 S                     0.299242
     18 C                    -0.112085
     19 C                    -0.256578
     20 S                     0.297814
     21 C                     0.160185
     22 C                     0.053259
     23 C                    -0.316205
     24 C                    -0.053385
     25 N                    -0.417286
     26 S                     0.274063
     27 C                     0.129128
     28 C                    -0.317908
     29 C                    -0.214460
     30 H                     0.098723
     31 H                     0.092735
     32 H                     0.115234
     33 H                     0.107223
     34 H                     0.129728
     35 H                     0.122263
     36 H                     0.114806
     37 H                     0.141283
     38 H                     0.120640
     39 C                    -0.186136
     40 H                     0.096858
     41 H                     0.114373
     42 H                     0.101070
     43 C                    -0.185567
     44 H                     0.088132
     45 C                    -0.159881
     46 H                     0.093346
     47 H                     0.096433
     48 H                     0.089893
     49 C                    -0.180269
     50 H                     0.095455
     51 C                    -0.318198
     52 H                     0.092306
     53 H                     0.103761
     54 H                     0.089771
     55 H                     0.103537
     56 C                     0.298466
     57 C                    -0.107673
     58 N                    -0.497057
     59 C                    -0.076054
     60 C                     0.112181
     61 C                     0.046165
     62 C                     0.049935
     63 C                     0.040324
     64 C                     0.203947
     65 N                    -0.516270
     66 N                    -0.541922
     67 C                     0.201142
     68 C                     0.295094
     69 S                     0.612911
     70 N                    -0.581197
     71 C                    -0.230599
     72 S                     0.350881
     73 C                    -0.095845
     74 C                    -0.234291
     75 S                     0.293358
     76 C                     0.124422
     77 C                     0.056936
     78 C                    -0.308376
     79 C                    -0.058055
     80 N                    -0.429178
     81 S                     0.290664
     82 C                     0.138945
     83 C                    -0.320824
     84 C                    -0.255150
     85 H                     0.093835
     86 H                     0.103494
     87 H                     0.101949
     88 H                     0.103121
     89 H                     0.123850
     90 H                     0.109388
     91 H                     0.119982
     92 H                     0.124371
     93 H                     0.119521
     94 C                    -0.165480
     95 H                     0.107042
     96 H                     0.118667
     97 H                     0.103808
     98 C                    -0.191933
     99 H                     0.092679
    100 C                    -0.177282
    101 H                     0.077525
    102 H                     0.094884
    103 H                     0.082021
    104 C                    -0.180413
    105 H                     0.098166
    106 C                    -0.323963
    107 H                     0.097915
    108 H                     0.107020
    109 H                     0.094366
    110 H                     0.104004
  ----------------------------------------
  Sum of atomic charges =     0.000000

                    Cartesian Multipole Moments
 -----------------------------------------------------------------
    Charge (ESU x 10^10)
                 0.0000
    Dipole Moment (Debye)
         X       1.1992      Y      -0.4097      Z       2.5278
       Tot       2.8277
    Quadrupole Moments (Debye-Ang)
        XX    -385.5824     XY       6.4317     YY    -443.1843
        XZ     -15.5615     YZ     -13.4920     ZZ    -435.6309

 Total job time:  107.91s(wall), 1313.25s(cpu)
        *  Thank you very much for using Q-Chem.  Have a nice day.  *
