 Q-Chem 4.4, Q-Chem, Inc., Pleasanton, CA (2016)
 Q-Chem 4.4.2 for Intel X86 Linux

User input:
--------------------------------------------------------------
$comment
SP
$end

$rem
MEM_STATIC 5000
MEM_TOTAL 20000
JOBTYPE SP
EXCHANGE B3LYP
BASIS 6-31g(d,p)
$end

$molecule
0 1
C          -2.548000     18.844000     -3.788000
C          -2.735000     20.108000     -3.271000
N          -1.515000     18.591000     -4.649000
C          -1.998000     21.169000     -3.626000
C          -0.663000     19.653000     -4.927000
C          -0.849000     20.978000     -4.484000
C           0.126000     22.110000     -4.771000
C          -0.306000     23.320000     -5.304000
C           1.530000     21.998000     -4.573000
N           0.524000     24.366000     -5.550000
N           2.152000     20.878000     -4.138000
C           2.344000     23.119000     -4.821000
C           1.810000     24.332000     -5.212000
S           3.736000     21.281000     -4.182000
N           3.651000     22.838000     -4.713000
C           2.563000     25.603000     -5.234000
S           2.306000     26.834000     -6.535000
C           3.330000     26.101000     -4.244000
C           3.416000     27.865000     -5.731000
S           3.887000     25.337000     -2.799000
C           3.728000     27.385000     -4.449000
C           3.783000     29.207000     -6.192000
C           4.755000     26.886000     -2.386000
C           4.615000     27.789000     -3.433000
N           2.961000     29.816000     -6.983000
S           5.308000     30.068000     -5.742000
C           3.535000     31.053000     -7.272000
C           4.838000     31.320000     -6.918000
C          -3.318000     17.636000     -3.182000
H          -3.464000     20.249000     -2.479000
H          -2.182000     22.082000     -3.068000
H           0.184000     19.465000     -5.586000
H          -1.346000     23.585000     -5.493000
H           5.483000     26.870000     -1.586000
H           5.273000     28.649000     -3.476000
H           2.988000     31.700000     -7.946000
H           5.455000     32.173000     -7.170000
H          -3.535000     17.947000     -2.152000
C          -2.484000     16.284000     -3.166000
H          -4.284000     17.483000     -3.678000
H          -1.495000     16.422000     -2.712000
H          -2.261000     16.033000     -4.210000
C          -3.248000     15.127000     -2.494000
H          -3.437000     15.340000     -1.435000
C          -2.425000     13.832000     -2.632000
H          -4.218000     14.973000     -2.982000
H          -1.423000     14.157000     -2.323000
H          -2.358000     13.530000     -3.684000
C          -3.075000     12.641000     -1.830000
H          -3.167000     12.981000     -0.791000
C          -2.307000     11.332000     -1.870000
H          -4.073000     12.472000     -2.254000
H          -2.654000     10.555000     -1.178000
H          -1.312000     11.644000     -1.528000
H          -2.053000     10.924000     -2.856000
C           2.736000      8.303000      2.132000
C           1.451000      8.173000      1.656000
N           3.454000      9.462000      1.987000
C           0.857000      9.255000      1.035000
C           2.837000     10.579000      1.516000
C           1.513000     10.560000      1.092000
C           0.836000     11.827000      0.754000
C           1.453000     12.767000     -0.026000
C          -0.377000     12.176000      1.300000
N           0.913000     14.017000     -0.215000
N          -1.077000     11.427000      2.103000
C          -0.924000     13.416000      1.023000
C          -0.231000     14.373000      0.327000
S          -2.498000     12.175000      2.323000
N          -2.158000     13.578000      1.578000
C          -0.678000     15.804000      0.043000
S          -2.172000     16.565000      0.723000
C           0.102000     16.799000     -0.566000
C          -1.778000     18.104000     -0.019000
S           1.768000     16.794000     -1.229000
C          -0.570000     17.988000     -0.711000
C          -2.593000     19.318000      0.053000
C           1.530000     18.491000     -1.636000
C           0.253000     18.989000     -1.402000
N          -2.002000     20.477000     -0.148000
S          -4.237000     19.311000      0.586000
C          -2.959000     21.461000     -0.151000
C          -4.225000     21.059000      0.014000
C           3.599000      7.111000      2.646000
H           0.882000      7.248000      1.656000
H          -0.186000      9.150000      0.751000
H           3.469000     11.461000      1.421000
H           2.398000     12.600000     -0.540000
H           2.364000     18.929000     -2.169000
H           0.043000     20.045000     -1.532000
H          -2.564000     22.443000     -0.379000
H          -5.178000     21.571000      0.031000
H           2.881000      6.283000      2.680000
C           4.228000      7.304000      4.033000
H           4.308000      6.881000      1.841000
H           3.591000      7.746000      4.810000
H           5.009000      8.073000      3.990000
C           4.669000      5.903000      4.672000
H           3.769000      5.287000      4.785000
C           5.160000      6.114000      6.129000
H           5.410000      5.347000      4.084000
H           4.313000      6.571000      6.656000
H           6.074000      6.718000      6.196000
C           5.453000      4.848000      6.896000
H           5.968000      5.041000      7.846000
C           6.305000      3.797000      6.120000
H           4.518000      4.524000      7.370000
H           6.593000      2.958000      6.765000
H           7.207000      4.214000      5.655000
H           5.723000      3.367000      5.296000
$end

--------------------------------------------------------------

             Standard Nuclear Orientation (Angstroms)
    I     Atom           X                Y                Z
 ----------------------------------------------------------------
    1      C       1.3695966757     3.6850899802    -1.3791783602
    2      C       2.3014329270     3.8135560511    -0.3716409319
    3      N       1.5449063656     2.7627378100    -2.3746440737
    4      C       3.4528112992     3.1294115172    -0.3371575935
    5      C       2.6719895511     1.9551302480    -2.2825271982
    6      C       3.6896347627     2.0918123001    -1.3170292748
    7      C       4.8907877915     1.1634943956    -1.2176548840
    8      C       6.1879432730     1.6619185733    -1.1562220267
    9      C       4.7831765691    -0.2546089317    -1.2368063307
   10      N       7.2862277233     0.8722112800    -1.0393218255
   11      N       3.6181612726    -0.9294023814    -1.3706052810
   12      C       5.9497985696    -1.0278734876    -1.0891715298
   13      C       7.1863931026    -0.4453598216    -0.8868900677
   14      S       4.0882891605    -2.4947284547    -1.4168119202
   15      N       5.7195711719    -2.3395225839    -1.2486895333
   16      C       8.3944588633    -1.1847684503    -0.4664307976
   17      S      10.0329341246    -0.7670863267    -1.1105980597
   18      C       8.4863227381    -2.0637485289     0.5510897426
   19      C      10.7048636948    -1.9617874686    -0.0797358797
   20      S       7.2310286229    -2.7946584805     1.4848870049
   21      C       9.7617759799    -2.4285787972     0.8497582934
   22      C      12.1358066800    -2.2646384229     0.0143782668
   23      C       8.5215332227    -3.6996508674     2.4008458781
   24      C       9.7637708023    -3.4302205336     1.8391777457
   25      N      12.9692250764    -1.3504295502    -0.3622938899
   26      S      12.8191399165    -3.8291982918     0.6099066915
   27      C      14.2454607178    -1.8800068487    -0.1780753451
   28      C      14.4144482359    -3.2151100378     0.1106402474
   29      C      -0.0198039325     4.3710116561    -1.2432467434
   30      H       2.0683850896     4.4420118110     0.4823602762
   31      H       4.0480935309     3.2484507325     0.5629855783
   32      H       2.8143311656     1.1932570106    -3.0482438787
   33      H       6.4508652922     2.7182582339    -1.1055808057
   34      H       8.2200704507    -4.5191212070     3.0394604407
   35      H      10.6005863857    -4.0745326749     2.0821068380
   36      H      15.0805895150    -1.2527656416    -0.4630707140
   37      H      15.3278131080    -3.7934765691     0.1659463589
   38      H      -0.1673919824     4.4631681631    -0.1595332454
   39      C      -1.2143332680     3.5354654687    -1.8746564641
   40      H      -0.0089806503     5.3892492352    -1.6502554521
   41      H      -1.2204947411     2.4994127555    -1.5143263215
   42      H      -1.0060184021     3.4393009876    -2.9470478615
   43      C      -2.5837966319     4.2076656819    -1.6586796866
   44      H      -2.8310467250     4.2681045821    -0.5920093857
   45      C      -3.6642221384     3.4019055745    -2.4048896933
   46      H      -2.5773575746     5.2289020901    -2.0584230257
   47      H      -3.4401367448     2.3712788301    -2.1004159669
   48      H      -3.5074965271     3.4613455752    -3.4885413759
   49      C      -5.1115315013     3.9450769326    -2.0975698537
   50      H      -5.2296547723     3.9121867755    -1.0073633914
   51      C      -6.2475804231     3.1820009545    -2.7548467350
   52      H      -5.1463342185     4.9863036492    -2.4424998403
   53      H      -7.2564150964     3.4394604961    -2.4099276337
   54      H      -6.0491630349     2.1542765162    -2.4250801219
   55      H      -6.2043704874     3.0473831168    -3.8425907027
   56      C     -10.3692902238    -2.3208027306    -0.9236302205
   57      C     -10.3627173910    -0.9882307645    -1.2684631555
   58      N      -9.2151129495    -3.0110683974    -0.6567255022
   59      C      -9.1550910339    -0.3188978635    -1.3216895508
   60      C      -8.0379023837    -2.3368970648    -0.5572906083
   61      C      -7.9533952053    -0.9714293537    -0.8052209751
   62      C      -6.6968083950    -0.2531472374    -0.5172584956
   63      C      -5.4890687568    -0.7672875567    -0.9041870397
   64      C      -6.6659271247     0.8863860509     0.2520244381
   65      N      -4.3013362953    -0.2030909565    -0.5031947750
   66      N      -7.7133377944     1.4809457051     0.7472412660
   67      C      -5.4518441167     1.4681315486     0.5700065535
   68      C      -4.2587506082     0.8684629240     0.2578536731
   69      S      -7.1970314304     2.8680711993     1.4078891314
   70      N      -5.5962450152     2.6266280406     1.2729000436
   71      C      -2.8623247536     1.3526009205     0.6371045571
   72      S      -2.5254315103     2.7566122761     1.7274311394
   73      C      -1.6653643024     0.6562111759     0.4098755936
   74      C      -0.7989821925     2.4617806088     1.6451630349
   75      S      -1.3107119140    -0.9173821518    -0.3731797827
   76      C      -0.5582334018     1.3458572547     0.8399679730
   77      C       0.2349036711     3.2672376919     2.2974849709
   78      C       0.3895170887    -0.6247029802    -0.0186910793
   79      C       0.6798975732     0.6167261658     0.5363060826
   80      N       1.4050922570     2.7098113469     2.5274796298
   81      S      -0.0765628016     4.8346640765     2.9555405653
   82      C       2.2522286755     3.6643188226     3.0328402608
   83      C       1.7507497071     4.8993523898     3.1544787913
   84      C     -11.6192271885    -3.2446850225    -1.0416475696
   85      H     -11.2365175127    -0.4273400545    -1.5866784266
   86      H      -9.1909740523     0.7503381400    -1.5087103458
   87      H      -7.1612408489    -2.9490179505    -0.3495754793
   88      H      -5.3813941901    -1.6438878265    -1.5406523998
   89      H       1.0505824859    -1.3862523588    -0.4117865951
   90      H       1.6843876224     0.8453888322     0.8752000574
   91      H       3.2615484921     3.3039658737     3.1869579431
   92      H       2.1596202911     5.8454663603     3.4836219219
   93      H     -12.4264133143    -2.5395895052    -1.2730668208
   94      C     -11.9745239006    -4.0359878793     0.2249474861
   95      H     -11.4630983906    -3.8520934264    -1.9418057942
   96      H     -11.9221089928    -3.4957638347     1.1790295890
   97      H     -11.2140918081    -4.8027824280     0.4171456983
   98      C     -13.4885108970    -4.5569766268     0.1800353527
   99      H     -14.1443295361    -3.6798728905     0.1269698416
  100      C     -13.8632939022    -5.2196831362     1.5323699198
  101      H     -13.7162757324    -5.2237782108    -0.6610709589
  102      H     -13.7066179673    -4.4407035369     2.2890934065
  103      H     -13.2909807396    -6.1325043012     1.7419317589
  104      C     -15.3142541128    -5.6086668293     1.6748485276
  105      H     -15.4976621558    -6.2339563251     2.5582219119
  106      C     -15.9108088602    -6.3650174769     0.4481712549
  107      H     -15.8527580956    -4.7392401851     2.0723252827
  108      H     -16.9230396918    -6.7324701058     0.6561551701
  109      H     -15.2929465000    -7.2023802465     0.1006260117
  110      H     -15.9983854776    -5.6894652354    -0.4112235932
 ----------------------------------------------------------------

    9   -5663.4909982576      7.58E-06 Convergence criterion met
 Total energy in the final basis set = -5663.4909982576

                    Orbital Energies (a.u.)
 --------------------------------------------------------------

 Alpha MOs
 -- Occupied --
-88.992 -88.989 -88.929 -88.928 -88.927 -88.926 -88.910 -88.906
-14.388 -14.388 -14.388 -14.377 -14.347 -14.347 -14.346 -14.342
-14.329 -14.327 -10.274 -10.273 -10.262 -10.259 -10.259 -10.253
-10.250 -10.249 -10.249 -10.241 -10.240 -10.239 -10.238 -10.237
-10.236 -10.236 -10.234 -10.234 -10.230 -10.230 -10.230 -10.228
-10.226 -10.225 -10.225 -10.224 -10.217 -10.217 -10.216 -10.215
-10.213 -10.209 -10.209 -10.208 -10.204 -10.197 -10.194 -10.188
-10.183 -10.182 -10.181 -10.181 -10.175 -10.175 -10.173 -10.173
-10.170 -10.168 -10.167 -10.165  -8.047  -8.045  -7.990  -7.986
 -7.986  -7.986  -7.971  -7.965  -6.012  -6.010  -6.007  -6.005
 -6.004  -6.003  -5.954  -5.951  -5.950  -5.950  -5.950  -5.947
 -5.947  -5.947  -5.947  -5.943  -5.943  -5.942  -5.936  -5.932
 -5.929  -5.927  -5.926  -5.921  -1.052  -1.040  -0.977  -0.973
 -0.965  -0.961  -0.930  -0.923  -0.920  -0.914  -0.908  -0.904
 -0.847  -0.837  -0.837  -0.827  -0.808  -0.808  -0.804  -0.802
 -0.800  -0.796  -0.794  -0.792  -0.786  -0.779  -0.771  -0.764
 -0.748  -0.745  -0.741  -0.735  -0.733  -0.725  -0.708  -0.705
 -0.692  -0.690  -0.677  -0.674  -0.658  -0.653  -0.649  -0.646
 -0.638  -0.632  -0.625  -0.619  -0.617  -0.609  -0.600  -0.599
 -0.595  -0.592  -0.584  -0.579  -0.576  -0.569  -0.564  -0.556
 -0.550  -0.547  -0.543  -0.539  -0.528  -0.527  -0.518  -0.516
 -0.505  -0.504  -0.503  -0.500  -0.492  -0.483  -0.480  -0.477
 -0.475  -0.470  -0.470  -0.466  -0.464  -0.459  -0.451  -0.449
 -0.446  -0.443  -0.441  -0.436  -0.435  -0.434  -0.432  -0.429
 -0.428  -0.423  -0.421  -0.419  -0.417  -0.414  -0.413  -0.410
 -0.406  -0.405  -0.404  -0.402  -0.401  -0.398  -0.397  -0.395
 -0.395  -0.392  -0.390  -0.389  -0.388  -0.384  -0.382  -0.379
 -0.374  -0.372  -0.369  -0.366  -0.365  -0.362  -0.359  -0.356
 -0.355  -0.353  -0.349  -0.347  -0.345  -0.344  -0.341  -0.340
 -0.339  -0.335  -0.333  -0.327  -0.323  -0.320  -0.319  -0.318
 -0.312  -0.312  -0.310  -0.307  -0.301  -0.299  -0.297  -0.297
 -0.297  -0.296  -0.295  -0.292  -0.289  -0.287  -0.280  -0.276
 -0.274  -0.272  -0.269  -0.264  -0.253  -0.253  -0.251  -0.250
 -0.248  -0.247  -0.235  -0.233  -0.198  -0.196

          Ground-State Mulliken Net Atomic Charges

     Atom                 Charge (a.u.)
  ----------------------------------------
      1 C                     0.278715
      2 C                    -0.089562
      3 N                    -0.497092
      4 C                    -0.071147
      5 C                     0.094740
      6 C                     0.013323
      7 C                     0.020985
      8 C                     0.047769
      9 C                     0.242822
     10 N                    -0.498548
     11 N                    -0.556385
     12 C                     0.201104
     13 C                     0.265869
     14 S                     0.600849
     15 N                    -0.541404
     16 C                    -0.209688
     17 S                     0.353530
     18 C                    -0.085861
     19 C                    -0.205327
     20 S                     0.244116
     21 C                     0.128279
     22 C                     0.066338
     23 C                    -0.296556
     24 C                    -0.086788
     25 N                    -0.408713
     26 S                     0.244539
     27 C                     0.104689
     28 C                    -0.293844
     29 C                    -0.247930
     30 H                     0.084895
     31 H                     0.090013
     32 H                     0.104858
     33 H                     0.119766
     34 H                     0.135751
     35 H                     0.115165
     36 H                     0.106774
     37 H                     0.142497
     38 H                     0.107657
     39 C                    -0.179452
     40 H                     0.111089
     41 H                     0.113849
     42 H                     0.113476
     43 C                    -0.182420
     44 H                     0.103291
     45 C                    -0.187214
     46 H                     0.081548
     47 H                     0.101585
     48 H                     0.091276
     49 C                    -0.186688
     50 H                     0.100605
     51 C                    -0.327755
     52 H                     0.091144
     53 H                     0.094822
     54 H                     0.097498
     55 H                     0.105092
     56 C                     0.254137
     57 C                    -0.112275
     58 N                    -0.480012
     59 C                    -0.059386
     60 C                     0.079878
     61 C                     0.016291
     62 C                     0.029999
     63 C                     0.043693
     64 C                     0.289570
     65 N                    -0.544933
     66 N                    -0.560836
     67 C                     0.186842
     68 C                     0.349517
     69 S                     0.601923
     70 N                    -0.570987
     71 C                    -0.228411
     72 S                     0.309194
     73 C                    -0.111966
     74 C                    -0.224138
     75 S                     0.272806
     76 C                     0.141312
     77 C                     0.060872
     78 C                    -0.297914
     79 C                    -0.041940
     80 N                    -0.416304
     81 S                     0.237661
     82 C                     0.130896
     83 C                    -0.304754
     84 C                    -0.212815
     85 H                     0.093900
     86 H                     0.108319
     87 H                     0.105424
     88 H                     0.124634
     89 H                     0.132596
     90 H                     0.129168
     91 H                     0.116047
     92 H                     0.134013
     93 H                     0.087901
     94 C                    -0.174856
     95 H                     0.124663
     96 H                     0.094615
     97 H                     0.116911
     98 C                    -0.180592
     99 H                     0.092703
    100 C                    -0.172652
    101 H                     0.096832
    102 H                     0.087522
    103 H                     0.094425
    104 C                    -0.183612
    105 H                     0.089394
    106 C                    -0.321073
    107 H                     0.087698
    108 H                     0.098332
    109 H                     0.105819
    110 H                     0.106008
  ----------------------------------------
  Sum of atomic charges =     0.000000

                    Cartesian Multipole Moments
 -----------------------------------------------------------------
    Charge (ESU x 10^10)
                 0.0000
    Dipole Moment (Debye)
         X       0.3282      Y       0.4543      Z       2.7260
       Tot       2.7830
    Quadrupole Moments (Debye-Ang)
        XX    -385.9970     XY     -35.8140     YY    -421.1257
        XZ      18.8025     YZ       8.2044     ZZ    -447.5112

 Total job time:  94.31s(wall), 1145.65s(cpu)
        *  Thank you very much for using Q-Chem.  Have a nice day.  *
