 Q-Chem 4.4, Q-Chem, Inc., Pleasanton, CA (2016)
 Q-Chem 4.4.2 for Intel X86 Linux

User input:
--------------------------------------------------------------
$comment
SP
$end

$rem
MEM_STATIC 5000
MEM_TOTAL 20000
JOBTYPE SP
EXCHANGE B3LYP
BASIS 6-31g(d,p)
$end

$molecule
0 1
C           1.513000     10.330000     -3.023000
C           2.559000     10.363000     -2.069000
N           0.825000      9.217000     -3.277000
C           2.940000      9.220000     -1.404000
C           1.122000      8.156000     -2.524000
C           2.208000      8.041000     -1.692000
C           2.591000      6.738000     -0.974000
C           3.985000      6.387000     -0.813000
C           1.703000      5.728000     -0.492000
N           4.413000      5.298000     -0.135000
N           0.385000      5.758000     -0.736000
C           2.113000      4.597000      0.200000
C           3.500000      4.417000      0.397000
S          -0.235000      4.437000      0.035000
N           1.092000      3.785000      0.699000
C           4.082000      3.364000      1.278000
S           3.186000      1.958000      1.939000
C           5.412000      3.328000      1.670000
C           4.749000      1.268000      2.545000
S           6.675000      4.501000      1.488000
C           5.741000      2.196000      2.372000
C           4.914000      0.020000      3.196000
C           7.706000      3.391000      2.402000
C           7.108000      2.194000      2.714000
N           3.923000     -0.796000      2.902000
S           5.804000     -0.325000      4.632000
C           3.978000     -1.878000      3.759000
C           4.855000     -1.800000      4.802000
C           1.075000     11.570000     -3.871000
H           3.022000     11.315000     -1.828000
H           3.774000      9.144000     -0.712000
H           0.563000      7.264000     -2.801000
H           4.725000      7.131000     -1.103000
H           8.750000      3.585000      2.612000
H           7.604000      1.379000      3.229000
H           3.240000     -2.636000      3.536000
H           4.973000     -2.571000      5.551000
H           0.071000     11.396000     -4.276000
C           2.190000     11.826000     -4.918000
H           1.208000     12.377000     -3.139000
H           3.131000     12.104000     -4.427000
H           1.996000     12.648000     -5.618000
C           2.504000     10.608000     -5.748000
H           2.765000      9.831000     -5.019000
C           3.518000     10.850000     -6.905000
H           1.626000     10.193000     -6.259000
H           3.450000      9.961000     -7.544000
H           4.504000     11.061000     -6.472000
C           3.224000     12.018000     -7.913000
H           2.280000     11.789000     -8.424000
C           4.204000     12.145000     -9.077000
H           3.153000     12.970000     -7.372000
H           3.741000     12.937000     -9.678000
H           4.319000     11.234000     -9.676000
H           5.207000     12.499000     -8.807000
C           2.736000      8.303000      2.132000
C           1.451000      8.173000      1.656000
N           3.454000      9.462000      1.987000
C           0.857000      9.255000      1.035000
C           2.837000     10.579000      1.516000
C           1.513000     10.560000      1.092000
C           0.836000     11.827000      0.754000
C           1.453000     12.767000     -0.026000
C          -0.377000     12.176000      1.300000
N           0.913000     14.017000     -0.215000
N          -1.077000     11.427000      2.103000
C          -0.924000     13.416000      1.023000
C          -0.231000     14.373000      0.327000
S          -2.498000     12.175000      2.323000
N          -2.158000     13.578000      1.578000
C          -0.678000     15.804000      0.043000
S          -2.172000     16.565000      0.723000
C           0.102000     16.799000     -0.566000
C          -1.778000     18.104000     -0.019000
S           1.768000     16.794000     -1.229000
C          -0.570000     17.988000     -0.711000
C          -2.593000     19.318000      0.053000
C           1.530000     18.491000     -1.636000
C           0.253000     18.989000     -1.402000
N          -2.002000     20.477000     -0.148000
S          -4.237000     19.311000      0.586000
C          -2.959000     21.461000     -0.151000
C          -4.225000     21.059000      0.014000
C           3.599000      7.111000      2.646000
H           0.882000      7.248000      1.656000
H          -0.186000      9.150000      0.751000
H           3.469000     11.461000      1.421000
H           2.398000     12.600000     -0.540000
H           2.364000     18.929000     -2.169000
H           0.043000     20.045000     -1.532000
H          -2.564000     22.443000     -0.379000
H          -5.178000     21.571000      0.031000
H           2.881000      6.283000      2.680000
C           4.228000      7.304000      4.033000
H           4.308000      6.881000      1.841000
H           3.591000      7.746000      4.810000
H           5.009000      8.073000      3.990000
C           4.669000      5.903000      4.672000
H           3.769000      5.287000      4.785000
C           5.160000      6.114000      6.129000
H           5.410000      5.347000      4.084000
H           4.313000      6.571000      6.656000
H           6.074000      6.718000      6.196000
C           5.453000      4.848000      6.896000
H           5.968000      5.041000      7.846000
C           6.305000      3.797000      6.120000
H           4.518000      4.524000      7.370000
H           6.593000      2.958000      6.765000
H           7.207000      4.214000      5.655000
H           5.723000      3.367000      5.296000
$end

--------------------------------------------------------------

             Standard Nuclear Orientation (Angstroms)
    I     Atom           X                Y                Z
 ----------------------------------------------------------------
    1      C      -1.8359627624     3.0777032065    -0.7172847021
    2      C      -1.2741200712     2.4591836209     0.4259944907
    3      N      -1.1318942945     3.2704922938    -1.8325196371
    4      C       0.0490655290     2.0813418021     0.4418193885
    5      C       0.1071236691     2.7747955044    -1.8401471352
    6      C       0.7894134716     2.3026787676    -0.7463320630
    7      C       2.2703200644     1.8956892128    -0.7823482491
    8      C       3.1230735446     2.1786609646     0.3512727148
    9      C       2.9778119756     1.3190426653    -1.8813941784
   10      N       4.4171207128     1.7946391981     0.4334810443
   11      N       2.4239494724     1.1778534716    -3.0941851494
   12      C       4.3066615924     0.9220944625    -1.8292806460
   13      C       5.0102809143     1.1467359176    -0.6253562021
   14      S       3.5748772735     0.4416746241    -4.0200835786
   15      N       4.7912048424     0.2663824795    -2.9633201665
   16      C       6.3731354355     0.6081311523    -0.3492648030
   17      S       7.4772867875    -0.0897747745    -1.5782278249
   18      C       6.9705349956     0.6126880455     0.9025151299
   19      C       8.7991021557    -0.1388397458    -0.3385900710
   20      S       6.3179687540     0.9879945256     2.4637724265
   21      C       8.2736323493     0.1836560742     0.8841343168
   22      C      10.1369968951    -0.5503162508    -0.5605241881
   23      C       7.9004181959     0.5512164457     3.1237236919
   24      C       8.8420379046     0.2417414281     2.1722329995
   25      N      10.4546943261    -0.4428317923    -1.8340580248
   26      S      11.0955458080    -1.6221055736     0.3911441518
   27      C      11.6500215088    -1.1025564354    -2.0441873226
   28      C      12.1310604351    -1.8589171353    -1.0148273064
   29      C      -3.3091716421     3.6010810071    -0.7827008651
   30      H      -1.9157529240     2.2365324391     1.2730409673
   31      H       0.5740050314     1.6667141685     1.2978091339
   32      H       0.6518923670     2.9970192197    -2.7559624475
   33      H       2.6474583575     2.5656243734     1.2508756905
   34      H       8.1457518933     0.6189676298     4.1758135902
   35      H       9.8750041579    -0.0036373254     2.3918599262
   36      H      12.0218175359    -0.9992020498    -3.0541489977
   37      H      13.0425793682    -2.4385015980    -1.0656316877
   38      H      -3.6028791001     3.7274290011    -1.8315521956
   39      C      -3.3818201886     4.8763182629     0.0967660929
   40      H      -3.8252209729     2.8376841918    -0.1863114029
   41      H      -3.1851569678     4.6370565074     1.1493454913
   42      H      -4.3554853552     5.3813964329     0.1106291965
   43      C      -2.3562379972     5.9113893602    -0.2877192673
   44      H      -1.3927587325     5.3916825431    -0.2176940517
   45      C      -2.4774303681     7.2647590185     0.4732748044
   46      H      -2.4108920949     6.2050582853    -1.3436555779
   47      H      -1.8426468392     7.9685255614    -0.0790190706
   48      H      -2.2172644368     7.1019460869     1.5268457026
   49      C      -3.8705394567     7.9899974093     0.4738611077
   50      H      -4.1172189255     8.2411012127    -0.5657513776
   51      C      -3.9013354958     9.3553766316     1.1566613591
   52      H      -4.6344346044     7.3323357704     0.9074177615
   53      H      -4.9213309920     9.6947801298     0.9392942663
   54      H      -3.1721002337    10.0752321152     0.7668267592
   55      H      -3.8018394841     9.3338639530     2.2493016239
   56      C       1.6145312343    -1.2204830185     0.6236736694
   57      C       1.1643486417    -1.1110507415    -0.6724980824
   58      N       0.7883593949    -1.0313029744     1.7013939497
   59      C      -0.1696503943    -0.8268635653    -0.8935981066
   60      C      -0.5512815061    -0.9007649486     1.5050751267
   61      C      -1.1040404039    -0.8660863332     0.2297837896
   62      C      -2.5705726492    -0.8982780423     0.0682014041
   63      C      -3.3795934682    -0.1050798596     0.8356718968
   64      C      -3.1953023373    -1.8027338545    -0.7582116286
   65      N      -4.7477338530    -0.2383984217     0.8202106986
   66      N      -2.5836541764    -2.6657853685    -1.5177105498
   67      C      -4.5769944853    -1.8530181335    -0.8022150330
   68      C      -5.3550618095    -1.1206169987     0.0572695897
   69      S      -3.7185278081    -3.3700867534    -2.4359514765
   70      N      -5.0378234535    -2.7477230275    -1.7209994553
   71      C      -6.8755920552    -1.1609310810     0.1780526465
   72      S      -7.9432201038    -2.3249082088    -0.7044917408
   73      C      -7.6371076348    -0.4918148565     1.1484564285
   74      C      -9.3656973627    -1.7078613860     0.1141245712
   75      S      -7.1887737245     0.6063753021     2.4931218442
   76      C      -8.9871187486    -0.6960865099     0.9998862960
   77      C     -10.7398639578    -2.1618479671    -0.1067087439
   78      C      -8.9036189434     0.7072104618     2.8820179045
   79      C      -9.7574389905     0.0623000057     1.9940027972
   80      N     -11.6242102032    -1.9549966830     0.8462378782
   81      S     -11.1991725440    -3.1286685628    -1.4636050400
   82      C     -12.8579631395    -2.3476829883     0.3904252437
   83      C     -12.9085740958    -2.8074244489    -0.8656246441
   84      C       3.1198173494    -1.3132708641     1.0177969082
   85      H       1.7987191613    -1.1508313042    -1.5530533338
   86      H      -0.5121333799    -0.8354647490    -1.9242102665
   87      H      -1.1459060143    -0.7474032981     2.4046722023
   88      H      -3.0081333559     0.6702775071     1.5034655318
   89      H      -9.1240529365     1.3912460868     3.6913343559
   90      H     -10.8184968316    -0.0095465434     2.2064418031
   91      H     -13.6582206702    -2.1471794974     1.0916521932
   92      H     -13.7088827909    -3.1569382433    -1.5043641058
   93      H       3.6208724047    -1.4397019161     0.0507276135
   94      C       3.4866955311    -2.4812175028     1.9440582368
   95      H       3.3975148182    -0.3191164472     1.3894783727
   96      H       3.0363392226    -3.4559920919     1.7163397791
   97      H       3.0595257762    -2.3209349033     2.9415583566
   98      C       5.0590255352    -2.7841291282     1.9037357205
   99      H       5.3211109200    -3.0641421879     0.8765410275
  100      C       5.3762869154    -4.0596628910     2.7288477351
  101      H       5.6929652185    -1.9452252601     2.2172987570
  102      H       4.7801889103    -4.8574439719     2.2681965490
  103      H       5.1711983346    -3.9453823870     3.8010322530
  104      C       6.8027232937    -4.5432709266     2.6377624639
  105      H       7.0290198173    -5.3275104272     3.3717463120
  106      C       7.8816444208    -3.4303884404     2.8112639725
  107      H       6.8703487751    -5.2142459962     1.7722589975
  108      H       8.8917260791    -3.8546080076     2.8628663215
  109      H       7.7200626092    -2.7892563831     3.6867975259
  110      H       7.8748248599    -2.7541063535     1.9480165963
 ----------------------------------------------------------------

    9   -5663.4901507641      8.69E-06 Convergence criterion met
 Total energy in the final basis set = -5663.4901507641

                    Orbital Energies (a.u.)
 --------------------------------------------------------------

 Alpha MOs
 -- Occupied --
-88.993 -88.990 -88.935 -88.926 -88.924 -88.923 -88.915 -88.907
-14.397 -14.386 -14.384 -14.376 -14.354 -14.346 -14.341 -14.338
-14.328 -14.325 -10.270 -10.266 -10.263 -10.262 -10.259 -10.257
-10.249 -10.248 -10.247 -10.244 -10.241 -10.240 -10.238 -10.236
-10.235 -10.232 -10.231 -10.230 -10.229 -10.229 -10.228 -10.228
-10.226 -10.225 -10.225 -10.221 -10.216 -10.216 -10.214 -10.213
-10.211 -10.210 -10.209 -10.201 -10.201 -10.199 -10.197 -10.196
-10.187 -10.182 -10.177 -10.176 -10.176 -10.174 -10.173 -10.172
-10.170 -10.169 -10.169 -10.165  -8.048  -8.046  -7.995  -7.984
 -7.984  -7.982  -7.974  -7.966  -6.013  -6.011  -6.008  -6.006
 -6.006  -6.004  -5.960  -5.956  -5.952  -5.948  -5.948  -5.946
 -5.945  -5.945  -5.942  -5.941  -5.941  -5.938  -5.938  -5.935
 -5.931  -5.930  -5.927  -5.923  -1.050  -1.039  -0.976  -0.972
 -0.964  -0.951  -0.945  -0.930  -0.915  -0.912  -0.906  -0.903
 -0.843  -0.837  -0.837  -0.827  -0.812  -0.810  -0.807  -0.804
 -0.800  -0.797  -0.796  -0.792  -0.784  -0.780  -0.768  -0.767
 -0.752  -0.745  -0.742  -0.734  -0.725  -0.724  -0.708  -0.703
 -0.694  -0.689  -0.676  -0.675  -0.656  -0.653  -0.652  -0.643
 -0.638  -0.635  -0.625  -0.624  -0.615  -0.614  -0.604  -0.597
 -0.596  -0.589  -0.583  -0.581  -0.578  -0.576  -0.551  -0.549
 -0.549  -0.544  -0.542  -0.540  -0.526  -0.524  -0.520  -0.515
 -0.505  -0.504  -0.499  -0.499  -0.491  -0.489  -0.481  -0.478
 -0.473  -0.471  -0.467  -0.466  -0.462  -0.459  -0.451  -0.446
 -0.445  -0.442  -0.438  -0.435  -0.435  -0.433  -0.432  -0.430
 -0.429  -0.425  -0.422  -0.419  -0.418  -0.415  -0.413  -0.412
 -0.410  -0.406  -0.402  -0.402  -0.400  -0.397  -0.396  -0.395
 -0.393  -0.392  -0.390  -0.390  -0.388  -0.387  -0.385  -0.380
 -0.379  -0.374  -0.372  -0.368  -0.366  -0.363  -0.360  -0.358
 -0.355  -0.352  -0.350  -0.349  -0.347  -0.346  -0.343  -0.340
 -0.335  -0.334  -0.333  -0.332  -0.325  -0.319  -0.316  -0.314
 -0.314  -0.311  -0.309  -0.304  -0.301  -0.298  -0.297  -0.296
 -0.296  -0.293  -0.292  -0.289  -0.286  -0.285  -0.281  -0.279
 -0.277  -0.275  -0.269  -0.263  -0.258  -0.252  -0.252  -0.250
 -0.247  -0.247  -0.238  -0.232  -0.196  -0.194

          Ground-State Mulliken Net Atomic Charges

     Atom                 Charge (a.u.)
  ----------------------------------------
      1 C                     0.236795
      2 C                    -0.116327
      3 N                    -0.460295
      4 C                    -0.073328
      5 C                     0.066209
      6 C                     0.046830
      7 C                     0.042206
      8 C                     0.047770
      9 C                     0.219257
     10 N                    -0.526518
     11 N                    -0.558741
     12 C                     0.202917
     13 C                     0.290550
     14 S                     0.612868
     15 N                    -0.545231
     16 C                    -0.238702
     17 S                     0.347230
     18 C                    -0.107428
     19 C                    -0.221456
     20 S                     0.301388
     21 C                     0.170463
     22 C                     0.034443
     23 C                    -0.314530
     24 C                    -0.076084
     25 N                    -0.413014
     26 S                     0.288416
     27 C                     0.120138
     28 C                    -0.312722
     29 C                    -0.214928
     30 H                     0.083303
     31 H                     0.121199
     32 H                     0.109050
     33 H                     0.114879
     34 H                     0.123773
     35 H                     0.106421
     36 H                     0.113701
     37 H                     0.139064
     38 H                     0.122146
     39 C                    -0.183810
     40 H                     0.109590
     41 H                     0.089064
     42 H                     0.096793
     43 C                    -0.167034
     44 H                     0.098827
     45 C                    -0.176738
     46 H                     0.092220
     47 H                     0.088965
     48 H                     0.084746
     49 C                    -0.179530
     50 H                     0.092887
     51 C                    -0.316194
     52 H                     0.094754
     53 H                     0.101501
     54 H                     0.103175
     55 H                     0.099982
     56 C                     0.248863
     57 C                    -0.109278
     58 N                    -0.483083
     59 C                    -0.059245
     60 C                     0.065447
     61 C                     0.028561
     62 C                     0.039570
     63 C                     0.054556
     64 C                     0.284027
     65 N                    -0.551787
     66 N                    -0.560489
     67 C                     0.176225
     68 C                     0.345355
     69 S                     0.600446
     70 N                    -0.561014
     71 C                    -0.232719
     72 S                     0.319165
     73 C                    -0.108277
     74 C                    -0.226921
     75 S                     0.272545
     76 C                     0.140374
     77 C                     0.069192
     78 C                    -0.305160
     79 C                    -0.053465
     80 N                    -0.428576
     81 S                     0.240570
     82 C                     0.141744
     83 C                    -0.304728
     84 C                    -0.223005
     85 H                     0.093545
     86 H                     0.110982
     87 H                     0.102043
     88 H                     0.106348
     89 H                     0.128828
     90 H                     0.127884
     91 H                     0.114587
     92 H                     0.131624
     93 H                     0.086637
     94 C                    -0.175380
     95 H                     0.138683
     96 H                     0.091762
     97 H                     0.112904
     98 C                    -0.192328
     99 H                     0.093732
    100 C                    -0.172519
    101 H                     0.118042
    102 H                     0.085789
    103 H                     0.091206
    104 C                    -0.183678
    105 H                     0.086059
    106 C                    -0.325819
    107 H                     0.087116
    108 H                     0.093454
    109 H                     0.103733
    110 H                     0.114962
  ----------------------------------------
  Sum of atomic charges =     0.000000

                    Cartesian Multipole Moments
 -----------------------------------------------------------------
    Charge (ESU x 10^10)
                 0.0000
    Dipole Moment (Debye)
         X       1.0024      Y      -2.2345      Z      -0.4197
       Tot       2.4848
    Quadrupole Moments (Debye-Ang)
        XX    -363.2844     XY     -10.6868     YY    -447.4847
        XZ       8.6856     YZ      16.9066     ZZ    -434.8673

 Total job time:  96.14s(wall), 1167.98s(cpu)
        *  Thank you very much for using Q-Chem.  Have a nice day.  *
