 Q-Chem 4.4, Q-Chem, Inc., Pleasanton, CA (2016)
 Q-Chem 4.4.2 for Intel X86 Linux

User input:
--------------------------------------------------------------
$comment
SP
$end

$rem
MEM_STATIC 5000
MEM_TOTAL 20000
JOBTYPE SP
EXCHANGE B3LYP
BASIS 6-31g(d,p)
$end

$molecule
0 1
C          -0.533000    -19.287000     -5.875000
C           0.167000    -18.790000     -4.747000
N          -1.568000    -20.211000     -5.719000
C          -0.136000    -19.269000     -3.480000
C          -1.837000    -20.729000     -4.460000
C          -1.157000    -20.236000     -3.281000
C          -1.661000    -20.540000     -1.968000
C          -3.075000    -20.354000     -1.720000
C          -0.857000    -20.918000     -0.848000
N          -3.564000    -20.535000     -0.502000
N           0.507000    -21.106000     -0.947000
C          -1.433000    -21.048000      0.417000
C          -2.843000    -20.885000      0.567000
S           1.010000    -21.174000      0.646000
N          -0.479000    -21.155000      1.363000
C          -3.671000    -21.112000      1.744000
S          -5.292000    -20.487000      1.800000
C          -3.375000    -21.923000      2.839000
C          -5.547000    -21.260000      3.445000
S          -2.073000    -22.958000      3.152000
C          -4.450000    -21.998000      3.733000
C          -6.788000    -21.202000      4.148000
C          -2.858000    -23.363000      4.688000
C          -4.152000    -22.936000      4.708000
N          -7.973000    -21.083000      3.489000
S          -6.947000    -21.523000      5.841000
C          -9.003000    -21.173000      4.291000
C          -8.695000    -21.417000      5.614000
C          -0.228000    -18.718000     -7.249000
H           0.985000    -18.090000     -4.890000
H           0.273000    -18.833000     -2.574000
H          -2.561000    -21.541000     -4.418000
H          -3.830000    -20.103000     -2.462000
H          -2.215000    -23.861000      5.402000
H          -4.738000    -23.128000      5.600000
H         -10.018000    -21.266000      3.929000
H          -9.315000    -21.409000      6.500000
H           0.658000    -18.071000     -7.276000
C          -1.429000    -17.777000     -7.568000
H          -0.116000    -19.487000     -8.024000
H          -1.837000    -17.303000     -6.667000
H          -2.256000    -18.445000     -7.839000
C          -1.337000    -16.705000     -8.744000
H          -1.860000    -15.764000     -8.534000
C          -1.980000    -17.172000    -10.066000
H          -0.272000    -16.528000     -8.941000
H          -3.062000    -16.992000    -10.035000
H          -1.827000    -18.243000    -10.247000
C          -1.595000    -16.333000    -11.271000
H          -1.896000    -15.308000    -11.021000
C          -2.309000    -16.775000    -12.486000
H          -0.504000    -16.329000    -11.382000
H          -3.348000    -17.047000    -12.260000
H          -1.880000    -17.671000    -12.949000
H          -2.106000    -16.045000    -13.280000
C          -5.589000    -17.551000     -3.395000
C          -6.964000    -17.492000     -3.514000
N          -4.831000    -17.583000     -2.230000
C          -7.679000    -17.562000     -2.308000
C          -5.516000    -17.705000     -1.117000
C          -6.966000    -17.642000     -1.105000
C          -7.688000    -17.792000      0.191000
C          -7.131000    -17.135000      1.295000
C          -8.912000    -18.474000      0.409000
N          -7.659000    -17.242000      2.541000
N          -9.478000    -19.267000     -0.526000
C          -9.429000    -18.526000      1.667000
C          -8.827000    -17.856000      2.744000
S         -10.666000    -20.020000      0.316000
N         -10.557000    -19.273000      1.751000
C          -9.515000    -17.812000      4.061000
S         -11.269000    -18.124000      4.487000
C          -8.757000    -17.743000      5.250000
C         -10.858000    -18.214000      6.171000
S          -7.071000    -17.913000      5.470000
C          -9.518000    -17.848000      6.393000
C         -11.750000    -18.500000      7.266000
C          -7.334000    -17.896000      7.252000
C          -8.702000    -17.785000      7.544000
N         -12.802000    -19.264000      6.937000
S         -11.390000    -18.527000      8.946000
C         -13.555000    -19.731000      8.034000
C         -12.865000    -19.400000      9.159000
C          -4.695000    -17.472000     -4.634000
H          -7.439000    -17.534000     -4.490000
H          -8.763000    -17.586000     -2.252000
H          -4.944000    -17.751000     -0.191000
H          -6.182000    -16.605000      1.222000
H          -6.496000    -18.116000      7.900000
H          -9.068000    -17.897000      8.558000
H         -14.401000    -20.392000      7.899000
H         -13.061000    -19.788000     10.150000
H          -4.577000    -16.435000     -4.970000
C          -5.186000    -18.371000     -5.813000
H          -3.749000    -17.946000     -4.344000
H          -4.419000    -18.317000     -6.595000
H          -6.131000    -18.010000     -6.235000
C          -5.355000    -19.864000     -5.459000
H          -4.475000    -20.230000     -4.915000
C          -5.527000    -20.858000     -6.645000
H          -6.191000    -20.025000     -4.767000
H          -4.661000    -20.715000     -7.303000
H          -6.447000    -20.582000     -7.174000
C          -5.571000    -22.303000     -6.201000
H          -4.865000    -22.550000     -5.399000
C          -5.422000    -23.331000     -7.294000
H          -6.480000    -22.582000     -5.654000
H          -4.658000    -23.074000     -8.039000
H          -6.448000    -23.382000     -7.678000
H          -5.187000    -24.339000     -6.932000
$end

--------------------------------------------------------------

             Standard Nuclear Orientation (Angstroms)
    I     Atom           X                Y                Z
 ----------------------------------------------------------------
    1      C      -8.0135477695    -1.0539245883    -0.5930502880
    2      C      -7.4200967139    -1.9002937890    -1.5630338037
    3      N      -7.3252344987    -0.7186882262     0.5745020332
    4      C      -6.1682500182    -2.4509459158    -1.3259661219
    5      C      -6.0969206279    -1.3089303794     0.8364662199
    6      C      -5.4493910965    -2.1648096306    -0.1349586169
    7      C      -4.0582979552    -2.5047699686     0.0053547498
    8      C      -3.1202429067    -1.4384558876     0.2855743186
    9      C      -3.5059433371    -3.8055054903    -0.2107273604
   10      N      -1.8209634660    -1.6935894909     0.3323266384
   11      N      -4.2905714570    -4.9019856830    -0.5069213855
   12      C      -2.1226492123    -3.9925076493    -0.1900257442
   13      C      -1.2700561074    -2.8943694451     0.1330013165
   14      S      -3.1847531952    -6.0514840691    -1.0080216075
   15      N      -1.8027168885    -5.2134576104    -0.6626836551
   16      C       0.1701180519    -2.8869342366     0.3527400443
   17      S       1.0408761841    -1.3825533939     0.3572738548
   18      C       0.9728925544    -3.9678030784     0.7155590694
   19      C       2.5981226799    -2.2702430341     0.7516967927
   20      S       0.5918346244    -5.5696939378     1.1068882511
   21      C       2.2948756348    -3.5732538075     0.9546774667
   22      C       3.8392987935    -1.6018637992     0.9762074906
   23      C       2.3211451260    -5.8367135752     1.3856923085
   24      C       2.9966938124    -4.6555019853     1.4601110700
   25      N       3.8840633795    -0.3274397601     1.4521344812
   26      S       5.3780531542    -2.3913528125     0.9169359523
   27      C       5.1043816011     0.0677512189     1.7106911059
   28      C       6.0835840804    -0.8823986125     1.5030693284
   29      C      -9.3600396555    -0.4170681614    -0.8863683616
   30      H      -7.9802980666    -2.1692733654    -2.4537623998
   31      H      -5.6133198656    -2.9957079038    -2.0832638851
   32      H      -5.6692273599    -1.1151062411     1.8187058403
   33      H      -3.3714229270    -0.4035539999     0.5080078598
   34      H       2.6116468973    -6.8781653905     1.4329769505
   35      H       4.0671618743    -4.6907523079     1.6297564155
   36      H       5.3204008839     0.9826738617     2.2456399139
   37      H       7.1620223046    -0.8022565913     1.5059421238
   38      H      -9.8548427782    -0.8148602437    -1.7815026136
   39      C      -9.0341631697     1.0685064515    -1.2277121554
   40      H     -10.0643292174    -0.4809591390    -0.0470685606
   41      H      -8.0626571037     1.1777748360    -1.7248815268
   42      H      -8.8244961888     1.5477398843    -0.2633631138
   43      C     -10.1123563108     1.9972028751    -1.9457974591
   44      H      -9.6835020979     2.7134214411    -2.6572923852
   45      C     -10.9019985229     2.9009568863    -0.9768207493
   46      H     -10.8346679845     1.3354219111    -2.4404435969
   47      H     -10.3209711952     3.8058029303    -0.7583124401
   48      H     -11.1121571134     2.4031742490    -0.0222230263
   49      C     -12.1510809616     3.5146357015    -1.5829250085
   50      H     -11.8044311855     4.0761104880    -2.4594556679
   51      C     -12.8130172283     4.4354133518    -0.6366724536
   52      H     -12.8093367613     2.7187105657    -1.9514633109
   53      H     -12.0771857621     5.0227556038    -0.0726138286
   54      H     -13.4109720433     3.9274750308     0.1286214123
   55      H     -13.6138376153     4.9555586713    -1.1776720416
   56      C      -3.3190206353     2.4913394114    -0.9390996473
   57      C      -2.7125025083     3.6405364951    -0.4703259020
   58      N      -2.7120781186     1.3549188505    -1.4615765274
   59      C      -1.3093111660     3.6144938593    -0.4397180950
   60      C      -1.4028437094     1.3256927245    -1.3725310603
   61      C      -0.6455396670     2.4749892900    -0.9118565636
   62      C       0.8401000627     2.3787208539    -0.8281488470
   63      C       1.4832591748     1.7235073100    -1.8853884455
   64      C       1.6736771137     2.9368734959     0.1740681594
   65      N       2.8249989946     1.5177853320    -1.8981055084
   66      N       1.1828826905     3.4631257140     1.3167008375
   67      C       3.0187921222     2.7408119093     0.1049127678
   68      C       3.6153178572     2.0685624074    -0.9737302013
   69      S       2.5337271920     3.6771132704     2.2204405447
   70      N       3.6895301285     3.2576140732     1.1634377086
   71      C       5.0970798271     2.0198618194    -1.0822600013
   72      S       6.3740936076     3.0544754668    -0.2734668232
   73      C       5.7223280811     0.9159917176    -1.7015995037
   74      C       7.6058017032     1.9253958791    -0.7435215560
   75      S       5.0442269297    -0.5691287144    -2.2060716347
   76      C       7.0960990801     0.9394674826    -1.6078064818
   77      C       9.0101114912     1.9946981526    -0.4279328771
   78      C       6.7053570616    -1.1727816905    -2.5542551629
   79      C       7.6590076324    -0.1947039020    -2.2334383481
   80      N       9.2883862015     2.6340735453     0.7176688394
   81      S      10.2633195917     0.9342654257    -0.9355556587
   82      C      10.6266824499     2.5163473245     1.1461670171
   83      C      11.2264133017     1.6075772884     0.3302344666
   84      C      -4.8430588924     2.3971589159    -1.0341545016
   85      H      -3.3020513117     4.4384846191    -0.0279731016
   86      H      -0.7013155763     4.4215247578    -0.0424644079
   87      H      -0.9042180201     0.4372612759    -1.7583263211
   88      H       0.9191512105     1.2473426233    -2.6865622067
   89      H       6.8325241631    -2.2158511142    -2.8119035774
   90      H       8.7186012634    -0.4223930225    -2.2441622233
   91      H      10.9624449079     2.9511351508     2.0784143651
   92      H      12.1846972998     1.1392449891     0.5129846693
   93      H      -5.2146821716     2.9061343431    -1.9313886699
   94      C      -5.5791250480     2.9310598933     0.2356798816
   95      H      -5.0725170999     1.3244534917    -1.0156071586
   96      H      -6.6457701061     2.7157285697     0.0991890718
   97      H      -5.4606924115     4.0146896906     0.3503540859
   98      C      -5.1556383319     2.2569601401     1.5582434997
   99      H      -5.1359525918     1.1658925328     1.4421575496
  100      C      -6.0602423258     2.5050376178     2.8009684006
  101      H      -4.1280604275     2.5210187093     1.8375958265
  102      H      -7.0737941997     2.1943305381     2.5189352296
  103      H      -6.0444397855     3.5815553390     3.0089993493
  104      C      -5.6252829113     1.7132300256     4.0137948699
  105      H      -5.2975276686     0.6907002392     3.7909533642
  106      C      -6.6151913098     1.6544575729     5.1496915031
  107      H      -4.6815545236     2.0495553096     4.4605532315
  108      H      -7.6531168901     1.5120252409     4.8222872873
  109      H      -6.4132636259     2.6061058455     5.6559757868
  110      H      -6.4041544733     0.8715629349     5.8878462561
 ----------------------------------------------------------------

    9   -5663.4757097800      8.69E-06 Convergence criterion met
 Total energy in the final basis set = -5663.4757097800

                    Orbital Energies (a.u.)
 --------------------------------------------------------------

 Alpha MOs
 -- Occupied --
-88.986 -88.981 -88.931 -88.928 -88.924 -88.917 -88.907 -88.907
-14.382 -14.381 -14.379 -14.377 -14.339 -14.339 -14.338 -14.335
-14.334 -14.328 -10.266 -10.264 -10.258 -10.254 -10.253 -10.253
-10.244 -10.240 -10.240 -10.238 -10.236 -10.235 -10.234 -10.233
-10.233 -10.233 -10.231 -10.229 -10.229 -10.228 -10.224 -10.224
-10.223 -10.222 -10.221 -10.219 -10.219 -10.213 -10.210 -10.208
-10.206 -10.206 -10.205 -10.204 -10.204 -10.199 -10.197 -10.195
-10.193 -10.180 -10.180 -10.177 -10.176 -10.171 -10.170 -10.170
-10.168 -10.168 -10.167 -10.163  -8.041  -8.037  -7.993  -7.985
 -7.984  -7.975  -7.968  -7.967  -6.006  -6.002  -6.001  -5.999
 -5.996  -5.995  -5.957  -5.953  -5.950  -5.949  -5.948  -5.946
 -5.945  -5.942  -5.941  -5.939  -5.935  -5.933  -5.932  -5.931
 -5.929  -5.928  -5.925  -5.923  -1.036  -1.022  -0.967  -0.963
 -0.956  -0.949  -0.935  -0.919  -0.915  -0.910  -0.900  -0.890
 -0.847  -0.840  -0.826  -0.824  -0.810  -0.805  -0.805  -0.802
 -0.801  -0.799  -0.793  -0.790  -0.787  -0.782  -0.765  -0.765
 -0.749  -0.748  -0.741  -0.735  -0.724  -0.723  -0.713  -0.705
 -0.688  -0.687  -0.672  -0.667  -0.648  -0.648  -0.642  -0.639
 -0.633  -0.629  -0.619  -0.619  -0.607  -0.605  -0.598  -0.597
 -0.593  -0.592  -0.580  -0.580  -0.572  -0.569  -0.568  -0.561
 -0.546  -0.540  -0.540  -0.534  -0.521  -0.520  -0.515  -0.514
 -0.502  -0.499  -0.499  -0.497  -0.481  -0.481  -0.476  -0.472
 -0.470  -0.468  -0.466  -0.464  -0.462  -0.460  -0.449  -0.448
 -0.445  -0.442  -0.441  -0.440  -0.440  -0.435  -0.434  -0.430
 -0.427  -0.426  -0.418  -0.416  -0.415  -0.415  -0.413  -0.412
 -0.411  -0.410  -0.406  -0.401  -0.400  -0.398  -0.397  -0.392
 -0.390  -0.388  -0.387  -0.387  -0.384  -0.381  -0.380  -0.379
 -0.374  -0.371  -0.371  -0.367  -0.362  -0.357  -0.354  -0.353
 -0.351  -0.347  -0.346  -0.345  -0.345  -0.343  -0.340  -0.338
 -0.335  -0.333  -0.332  -0.327  -0.324  -0.317  -0.313  -0.313
 -0.312  -0.310  -0.308  -0.305  -0.300  -0.298  -0.297  -0.295
 -0.294  -0.291  -0.290  -0.286  -0.284  -0.278  -0.275  -0.268
 -0.268  -0.264  -0.261  -0.259  -0.254  -0.251  -0.250  -0.245
 -0.241  -0.238  -0.228  -0.227  -0.189  -0.186

          Ground-State Mulliken Net Atomic Charges

     Atom                 Charge (a.u.)
  ----------------------------------------
      1 C                     0.266902
      2 C                    -0.114518
      3 N                    -0.497048
      4 C                    -0.040450
      5 C                     0.064313
      6 C                     0.030391
      7 C                    -0.037701
      8 C                     0.103790
      9 C                     0.224438
     10 N                    -0.519451
     11 N                    -0.559342
     12 C                     0.222860
     13 C                     0.308191
     14 S                     0.597840
     15 N                    -0.560833
     16 C                    -0.220458
     17 S                     0.339228
     18 C                    -0.113754
     19 C                    -0.207309
     20 S                     0.273961
     21 C                     0.170434
     22 C                     0.017418
     23 C                    -0.292146
     24 C                    -0.101590
     25 N                    -0.434666
     26 S                     0.261119
     27 C                     0.151968
     28 C                    -0.315707
     29 C                    -0.223681
     30 H                     0.092069
     31 H                     0.102382
     32 H                     0.119966
     33 H                     0.135224
     34 H                     0.135789
     35 H                     0.107379
     36 H                     0.130214
     37 H                     0.136348
     38 H                     0.102348
     39 C                    -0.207043
     40 H                     0.120643
     41 H                     0.105408
     42 H                     0.125899
     43 C                    -0.181702
     44 H                     0.096173
     45 C                    -0.179917
     46 H                     0.087152
     47 H                     0.089629
     48 H                     0.090814
     49 C                    -0.166382
     50 H                     0.090002
     51 C                    -0.313296
     52 H                     0.087806
     53 H                     0.102139
     54 H                     0.101015
     55 H                     0.098101
     56 C                     0.242195
     57 C                    -0.097485
     58 N                    -0.480360
     59 C                    -0.070282
     60 C                     0.103393
     61 C                     0.022108
     62 C                     0.037699
     63 C                     0.053156
     64 C                     0.223082
     65 N                    -0.528395
     66 N                    -0.547210
     67 C                     0.215420
     68 C                     0.296795
     69 S                     0.602080
     70 N                    -0.560277
     71 C                    -0.202695
     72 S                     0.355783
     73 C                    -0.119872
     74 C                    -0.183141
     75 S                     0.295656
     76 C                     0.128124
     77 C                     0.042589
     78 C                    -0.306912
     79 C                    -0.097893
     80 N                    -0.443233
     81 S                     0.284033
     82 C                     0.125121
     83 C                    -0.320308
     84 C                    -0.233861
     85 H                     0.100730
     86 H                     0.112266
     87 H                     0.110027
     88 H                     0.115431
     89 H                     0.134731
     90 H                     0.106467
     91 H                     0.128177
     92 H                     0.125488
     93 H                     0.110354
     94 C                    -0.202321
     95 H                     0.126120
     96 H                     0.104603
     97 H                     0.083163
     98 C                    -0.185689
     99 H                     0.096201
    100 C                    -0.167475
    101 H                     0.091441
    102 H                     0.105346
    103 H                     0.086287
    104 C                    -0.183821
    105 H                     0.086437
    106 C                    -0.314047
    107 H                     0.088734
    108 H                     0.104586
    109 H                     0.101726
    110 H                     0.097365
  ----------------------------------------
  Sum of atomic charges =     0.000000

                    Cartesian Multipole Moments
 -----------------------------------------------------------------
    Charge (ESU x 10^10)
                 0.0000
    Dipole Moment (Debye)
         X       3.3667      Y      -2.4595      Z      -0.1397
       Tot       4.1717
    Quadrupole Moments (Debye-Ang)
        XX    -387.4538     XY     -18.4956     YY    -421.1009
        XZ      22.6509     YZ       8.7044     ZZ    -447.6562

 Total job time:  97.13s(wall), 1174.70s(cpu)
        *  Thank you very much for using Q-Chem.  Have a nice day.  *
