 Q-Chem 4.4, Q-Chem, Inc., Pleasanton, CA (2016)
 Q-Chem 4.4.2 for Intel X86 Linux

User input:
--------------------------------------------------------------
$comment
SP
$end

$rem
MEM_STATIC 5000
MEM_TOTAL 20000
JOBTYPE SP
EXCHANGE B3LYP
BASIS 6-31g(d,p)
$end

$molecule
0 1
C          -2.548000     18.844000     -3.788000
C          -2.735000     20.108000     -3.271000
N          -1.515000     18.591000     -4.649000
C          -1.998000     21.169000     -3.626000
C          -0.663000     19.653000     -4.927000
C          -0.849000     20.978000     -4.484000
C           0.126000     22.110000     -4.771000
C          -0.306000     23.320000     -5.304000
C           1.530000     21.998000     -4.573000
N           0.524000     24.366000     -5.550000
N           2.152000     20.878000     -4.138000
C           2.344000     23.119000     -4.821000
C           1.810000     24.332000     -5.212000
S           3.736000     21.281000     -4.182000
N           3.651000     22.838000     -4.713000
C           2.563000     25.603000     -5.234000
S           2.306000     26.834000     -6.535000
C           3.330000     26.101000     -4.244000
C           3.416000     27.865000     -5.731000
S           3.887000     25.337000     -2.799000
C           3.728000     27.385000     -4.449000
C           3.783000     29.207000     -6.192000
C           4.755000     26.886000     -2.386000
C           4.615000     27.789000     -3.433000
N           2.961000     29.816000     -6.983000
S           5.308000     30.068000     -5.742000
C           3.535000     31.053000     -7.272000
C           4.838000     31.320000     -6.918000
C          -3.318000     17.636000     -3.182000
H          -3.464000     20.249000     -2.479000
H          -2.182000     22.082000     -3.068000
H           0.184000     19.465000     -5.586000
H          -1.346000     23.585000     -5.493000
H           5.483000     26.870000     -1.586000
H           5.273000     28.649000     -3.476000
H           2.988000     31.700000     -7.946000
H           5.455000     32.173000     -7.170000
H          -3.535000     17.947000     -2.152000
C          -2.484000     16.284000     -3.166000
H          -4.284000     17.483000     -3.678000
H          -1.495000     16.422000     -2.712000
H          -2.261000     16.033000     -4.210000
C          -3.248000     15.127000     -2.494000
H          -3.437000     15.340000     -1.435000
C          -2.425000     13.832000     -2.632000
H          -4.218000     14.973000     -2.982000
H          -1.423000     14.157000     -2.323000
H          -2.358000     13.530000     -3.684000
C          -3.075000     12.641000     -1.830000
H          -3.167000     12.981000     -0.791000
C          -2.307000     11.332000     -1.870000
H          -4.073000     12.472000     -2.254000
H          -2.654000     10.555000     -1.178000
H          -1.312000     11.644000     -1.528000
H          -2.053000     10.924000     -2.856000
C           3.630000     18.880000     -8.079000
C           3.114000     18.256000     -9.236000
N           3.107000     20.024000     -7.572000
C           1.942000     18.865000     -9.863000
C           1.979000     20.517000     -8.171000
C           1.322000     19.950000     -9.287000
C           0.091000     20.496000    -10.055000
C          -0.150000     20.517000    -11.448000
C          -1.095000     20.922000     -9.313000
N          -1.195000     20.959000    -12.123000
N          -1.194000     20.814000     -7.947000
C          -2.250000     21.353000    -10.050000
C          -2.216000     21.437000    -11.475000
S          -2.773000     21.176000     -7.684000
N          -3.262000     21.654000     -9.170000
C          -3.313000     21.909000    -12.309000
S          -3.432000     21.512000    -14.017000
C          -4.215000     22.913000    -12.066000
C          -4.693000     22.622000    -14.377000
S          -4.491000     23.933000    -10.692000
C          -5.023000     23.298000    -13.172000
C          -5.255000     22.832000    -15.692000
C          -5.780000     24.785000    -11.557000
C          -5.895000     24.368000    -12.893000
N          -6.309000     23.645000    -15.811000
S          -5.026000     21.833000    -17.078000
C          -6.820000     23.642000    -17.102000
C          -6.172000     22.788000    -17.938000
C           4.846000     18.219000     -7.416000
H           3.494000     17.354000     -9.707000
H           1.523000     18.510000    -10.799000
H           1.583000     21.472000     -7.828000
H           0.591000     20.065000    -12.106000
H          -6.380000     25.539000    -11.063000
H          -6.602000     24.743000    -13.624000
H          -7.582000     24.323000    -17.458000
H          -6.301000     22.695000    -19.008000
H           5.772000     18.329000     -7.993000
C           4.730000     16.688000     -7.050000
H           5.064000     18.908000     -6.591000
H           5.543000     16.298000     -6.426000
H           4.698000     16.126000     -7.991000
C           3.385000     16.368000     -6.395000
H           2.473000     16.659000     -6.930000
C           3.252000     17.066000     -5.046000
H           3.239000     15.286000     -6.280000
H           2.258000     16.841000     -4.641000
H           3.304000     18.150000     -5.202000
C           4.337000     16.695000     -3.974000
H           5.284000     17.204000     -4.191000
C           4.526000     15.179000     -3.722000
H           4.012000     17.069000     -2.995000
H           5.075000     14.736000     -4.563000
H           3.564000     14.807000     -3.350000
H           5.263000     15.198000     -2.910000
$end

--------------------------------------------------------------

             Standard Nuclear Orientation (Angstroms)
    I     Atom           X                Y                Z
 ----------------------------------------------------------------
    1      C      -1.6408613992     4.1878399874     3.0714720666
    2      C      -1.8814690478     3.1302080805     3.9220464072
    3      N      -1.5811127947     3.9920500931     1.7185066489
    4      C      -1.9859716311     1.8593270656     3.5111259087
    5      C      -1.8159044659     2.6991837639     1.2663987792
    6      C      -1.9949074889     1.5719587564     2.0933157644
    7      C      -2.2925707801     0.1760394563     1.5667952305
    8      C      -1.5489628330    -0.9259578332     1.9760166804
    9      C      -3.2952825337    -0.0925080002     0.5944704892
   10      N      -1.7970044943    -2.1922980145     1.5536544195
   11      N      -4.0695752925     0.8541139019     0.0157765302
   12      C      -3.5285148972    -1.4253565160     0.2073548753
   13      C      -2.8374890116    -2.4782502618     0.7759531391
   14      S      -4.9610504875     0.0090144657    -1.0633341776
   15      N      -4.4094605608    -1.5205516263    -0.7994949788
   16      C      -3.2078821157    -3.8993459161     0.6139960778
   17      S      -1.9530514101    -5.1932449970     0.4551374334
   18      C      -4.4343150054    -4.4345044467     0.7748087458
   19      C      -3.2095759758    -6.3601822865     0.4254662680
   20      S      -5.9609100618    -3.6454309545     0.9446338257
   21      C      -4.4455098641    -5.7942674693     0.7768575648
   22      C      -2.9945122918    -7.8062573606     0.3215986027
   23      C      -6.7346750367    -5.2934093470     1.0387028508
   24      C      -5.7690187755    -6.2712269728     0.8323083837
   25      N      -1.8406417091    -8.2689431273     0.6776190509
   26      S      -4.2238764343    -8.9885891718    -0.2785691184
   27      C      -1.8920307713    -9.6484674260     0.4841303596
   28      C      -2.9408309968   -10.2210013030    -0.1989780115
   29      C      -1.7247115098     5.6467650557     3.6043011238
   30      H      -2.0730509779     3.3330024547     4.9712159864
   31      H      -2.2782709154     1.1387269490     4.2688102759
   32      H      -1.8035651207     2.5277190437     0.1905355954
   33      H      -0.7634690022    -0.9056097947     2.7310871401
   34      H      -7.8107353589    -5.3620481730     0.9513936613
   35      H      -6.0858484302    -7.2801362701     0.5953822355
   36      H      -0.9942534015   -10.2079697774     0.7144495142
   37      H      -3.0662123916   -11.2445246374    -0.5283432946
   38      H      -2.4044055457     5.5787835635     4.4634312271
   39      C      -2.3015560791     6.6848959262     2.5491941915
   40      H      -0.7580283134     5.9918318461     3.9903497062
   41      H      -3.2490907212     6.3407018041     2.1167713564
   42      H      -1.6113203917     6.6922773417     1.6970285911
   43      C      -2.4393388167     8.1043764664     3.1323064562
   44      H      -3.1637426465     8.1254248575     3.9553295766
   45      C      -2.8835681152     9.0675000641     2.0149652971
   46      H      -1.4767182518     8.4528088578     3.5256466609
   47      H      -3.7137033328     8.5200439579     1.5499090293
   48      H      -2.0962137740     9.1668389388     1.2582606458
   49      C      -3.1951697919    10.5067167215     2.5768770411
   50      H      -3.9553336397    10.3766643250     3.3571476985
   51      C      -3.6856669925    11.5144547080     1.5527766325
   52      H      -2.2677805839    10.8875276378     3.0232774251
   53      H      -4.0700891322    12.4578326490     1.9592980699
   54      H      -4.5386678997    10.9865167956     1.1078002142
   55      H      -3.0680176366    11.6702950722     0.6598045983
   56      C      -1.8951960005     1.6900493699    -4.0192272601
   57      C      -0.6911702106     2.2452372944    -4.5054054844
   58      N      -1.9329070260     0.8412109349    -2.9621722995
   59      C       0.5405214235     1.9096174195    -3.7927421573
   60      C      -0.7555593201     0.6068356678    -2.3040274722
   61      C       0.5026572731     1.1554276342    -2.6424530311
   62      C       1.8793946474     0.8740279409    -1.9876939800
   63      C       3.1394259982     0.7034221274    -2.6059056357
   64      C       2.0147233843     0.9318468490    -0.5327097509
   65      N       4.3255408747     0.4811964609    -2.0704046991
   66      N       0.9751919203     1.2785536399     0.2958973555
   67      C       3.3156468301     0.7419772243     0.0456523446
   68      C       4.4400691750     0.4273748356    -0.7762580687
   69      S       1.7256079792     1.4345524793     1.7471017176
   70      N       3.2304797060     0.8893850955     1.4095300812
   71      C       5.7859817282     0.1666891418    -0.2840067425
   72      S       7.2049301232     0.3056687746    -1.3117733084
   73      C       6.1791982200    -0.4822375738     0.8583346725
   74      C       8.3004508266    -0.4350330941    -0.2149523887
   75      S       5.2938977784    -1.1481770366     2.1914587328
   76      C       7.5659473988    -0.7873092061     0.9487946866
   77      C       9.6990145504    -0.6790107489    -0.4863624375
   78      C       6.7978202239    -1.7170904860     2.9332166213
   79      C       7.9156368514    -1.5015237737     2.1110080225
   80      N      10.4635078578    -1.1609596157     0.4981787108
   81      S      10.6230209021    -0.0212193736    -1.7844228246
   82      C      11.8020272296    -1.2147612809     0.1331002641
   83      C      12.0425229451    -0.7279071446    -1.1131945890
   84      C      -3.1845207498     2.0677513496    -4.7609340118
   85      H      -0.5850685908     2.9125909588    -5.3558327493
   86      H       1.5227879850     2.2177609838    -4.1360815609
   87      H      -0.7470650442    -0.1261901760    -1.4983656576
   88      H       3.2014438689     0.8120064213    -3.6879001989
   89      H       6.7975374616    -2.1775051344     3.9133034907
   90      H       8.9413902124    -1.7669995316     2.3394542181
   91      H      12.5753591864    -1.6939363717     0.7191803924
   92      H      12.9715495354    -0.7721266779    -1.6655932019
   93      H      -3.2705128300     1.6050680599    -5.7514058870
   94      C      -3.4826899935     3.6047319497    -4.9613304609
   95      H      -3.9416028748     1.4847551994    -4.2225919783
   96      H      -4.4868507996     3.8368166371    -5.3358204786
   97      H      -2.7376943098     3.9957252273    -5.6645051818
   98      C      -3.2190354171     4.3990888499    -3.6807316246
   99      H      -2.2317885096     4.3031627593    -3.2129798434
  100      C      -4.1854245007     3.9919099648    -2.5739382859
  101      H      -3.2765184957     5.4810805500    -3.8575214902
  102      H      -3.9267263552     4.5556066729    -1.6695007311
  103      H      -4.0388684133     2.9286999811    -2.3498806064
  104      C      -5.7097611055     4.1983561689    -2.8867127736
  105      H      -6.0770456964     3.4098334406    -3.5547793393
  106      C      -6.0981604410     5.6150199393    -3.3762949606
  107      H      -6.2810453198     4.0940231504    -1.9557503857
  108      H      -5.7745177329     5.7416218342    -4.4175242138
  109      H      -5.8393181083     6.3030464985    -2.5627643216
  110      H      -7.1874997391     5.5126329072    -3.4519969374
 ----------------------------------------------------------------

   10   -5663.5079312621      3.64E-06 Convergence criterion met
 Total energy in the final basis set = -5663.5079312621

                    Orbital Energies (a.u.)
 --------------------------------------------------------------

 Alpha MOs
 -- Occupied --
-88.986 -88.980 -88.925 -88.923 -88.922 -88.921 -88.907 -88.906
-14.387 -14.384 -14.378 -14.377 -14.347 -14.344 -14.343 -14.341
-14.340 -14.332 -10.270 -10.269 -10.263 -10.261 -10.260 -10.253
-10.250 -10.244 -10.242 -10.239 -10.238 -10.237 -10.236 -10.236
-10.234 -10.233 -10.232 -10.232 -10.231 -10.229 -10.229 -10.229
-10.227 -10.226 -10.224 -10.224 -10.223 -10.221 -10.220 -10.217
-10.214 -10.208 -10.207 -10.207 -10.205 -10.204 -10.192 -10.192
-10.190 -10.188 -10.188 -10.179 -10.177 -10.175 -10.175 -10.171
-10.170 -10.168 -10.168 -10.163  -8.041  -8.035  -7.987  -7.983
 -7.982  -7.981  -7.967  -7.967  -6.006  -6.000  -6.000  -5.999
 -5.994  -5.993  -5.951  -5.947  -5.947  -5.946  -5.945  -5.944
 -5.943  -5.943  -5.941  -5.939  -5.939  -5.938  -5.932  -5.931
 -5.928  -5.928  -5.923  -5.923  -1.030  -1.027  -0.976  -0.970
 -0.967  -0.955  -0.936  -0.924  -0.918  -0.912  -0.899  -0.896
 -0.845  -0.843  -0.830  -0.823  -0.807  -0.805  -0.804  -0.802
 -0.800  -0.798  -0.796  -0.795  -0.779  -0.775  -0.765  -0.764
 -0.746  -0.745  -0.741  -0.739  -0.729  -0.721  -0.709  -0.706
 -0.695  -0.690  -0.673  -0.667  -0.656  -0.650  -0.645  -0.640
 -0.636  -0.632  -0.628  -0.620  -0.610  -0.608  -0.598  -0.596
 -0.594  -0.588  -0.583  -0.577  -0.576  -0.573  -0.571  -0.547
 -0.541  -0.541  -0.535  -0.535  -0.523  -0.522  -0.512  -0.509
 -0.505  -0.503  -0.501  -0.499  -0.490  -0.481  -0.480  -0.473
 -0.471  -0.468  -0.466  -0.464  -0.461  -0.458  -0.458  -0.447
 -0.445  -0.442  -0.440  -0.438  -0.436  -0.432  -0.431  -0.430
 -0.429  -0.427  -0.424  -0.422  -0.419  -0.415  -0.413  -0.409
 -0.407  -0.407  -0.404  -0.401  -0.401  -0.397  -0.397  -0.393
 -0.389  -0.387  -0.386  -0.385  -0.384  -0.381  -0.379  -0.377
 -0.376  -0.375  -0.370  -0.365  -0.363  -0.362  -0.355  -0.353
 -0.351  -0.350  -0.349  -0.344  -0.340  -0.339  -0.339  -0.336
 -0.335  -0.333  -0.332  -0.331  -0.329  -0.325  -0.320  -0.314
 -0.313  -0.310  -0.309  -0.301  -0.300  -0.298  -0.296  -0.295
 -0.294  -0.293  -0.290  -0.287  -0.286  -0.285  -0.281  -0.279
 -0.275  -0.268  -0.264  -0.262  -0.261  -0.255  -0.251  -0.250
 -0.245  -0.244  -0.235  -0.232  -0.194  -0.193

          Ground-State Mulliken Net Atomic Charges

     Atom                 Charge (a.u.)
  ----------------------------------------
      1 C                     0.274120
      2 C                    -0.103253
      3 N                    -0.502131
      4 C                    -0.071734
      5 C                     0.095623
      6 C                     0.003076
      7 C                     0.035256
      8 C                     0.042962
      9 C                     0.239787
     10 N                    -0.503061
     11 N                    -0.549608
     12 C                     0.200477
     13 C                     0.262277
     14 S                     0.619591
     15 N                    -0.544165
     16 C                    -0.207135
     17 S                     0.351321
     18 C                    -0.085661
     19 C                    -0.204856
     20 S                     0.245183
     21 C                     0.127834
     22 C                     0.066788
     23 C                    -0.297537
     24 C                    -0.087203
     25 N                    -0.409147
     26 S                     0.242803
     27 C                     0.104953
     28 C                    -0.294800
     29 C                    -0.245106
     30 H                     0.083779
     31 H                     0.101167
     32 H                     0.127258
     33 H                     0.115124
     34 H                     0.134144
     35 H                     0.113958
     36 H                     0.105778
     37 H                     0.141245
     38 H                     0.104160
     39 C                    -0.174667
     40 H                     0.115387
     41 H                     0.100227
     42 H                     0.119242
     43 C                    -0.175972
     44 H                     0.088535
     45 C                    -0.177350
     46 H                     0.089054
     47 H                     0.089449
     48 H                     0.093541
     49 C                    -0.173157
     50 H                     0.093011
     51 C                    -0.320174
     52 H                     0.092485
     53 H                     0.101337
     54 H                     0.100050
     55 H                     0.102079
     56 C                     0.280949
     57 C                    -0.106710
     58 N                    -0.497805
     59 C                    -0.099350
     60 C                     0.086993
     61 C                     0.080720
     62 C                     0.027865
     63 C                     0.043770
     64 C                     0.193899
     65 N                    -0.506864
     66 N                    -0.548239
     67 C                     0.223288
     68 C                     0.315683
     69 S                     0.617265
     70 N                    -0.551161
     71 C                    -0.239029
     72 S                     0.317477
     73 C                    -0.113160
     74 C                    -0.218242
     75 S                     0.284547
     76 C                     0.132266
     77 C                     0.068628
     78 C                    -0.319885
     79 C                    -0.050443
     80 N                    -0.451467
     81 S                     0.274512
     82 C                     0.129783
     83 C                    -0.306699
     84 C                    -0.247719
     85 H                     0.099824
     86 H                     0.099873
     87 H                     0.113675
     88 H                     0.098091
     89 H                     0.131516
     90 H                     0.130924
     91 H                     0.118551
     92 H                     0.135956
     93 H                     0.111818
     94 C                    -0.177520
     95 H                     0.116484
     96 H                     0.106690
     97 H                     0.091304
     98 C                    -0.185485
     99 H                     0.101194
    100 C                    -0.180293
    101 H                     0.087022
    102 H                     0.090938
    103 H                     0.108618
    104 C                    -0.193904
    105 H                     0.085501
    106 C                    -0.311681
    107 H                     0.090359
    108 H                     0.103507
    109 H                     0.111170
    110 H                     0.098649
  ----------------------------------------
  Sum of atomic charges =     0.000000

                    Cartesian Multipole Moments
 -----------------------------------------------------------------
    Charge (ESU x 10^10)
                 0.0000
    Dipole Moment (Debye)
         X       0.0210      Y      -0.5167      Z      -0.4686
       Tot       0.6979
    Quadrupole Moments (Debye-Ang)
        XX    -388.9142     XY       7.8119     YY    -419.7401
        XZ      -3.9892     YZ       1.0695     ZZ    -424.2545

 Total job time:  95.42s(wall), 1136.64s(cpu)
        *  Thank you very much for using Q-Chem.  Have a nice day.  *
