 Q-Chem 4.4, Q-Chem, Inc., Pleasanton, CA (2016)
 Q-Chem 4.4.2 for Intel X86 Linux

User input:
--------------------------------------------------------------
$comment
SP
$end

$rem
MEM_STATIC 5000
MEM_TOTAL 20000
JOBTYPE SP
EXCHANGE B3LYP
BASIS 6-31g(d,p)
$end

$molecule
0 1
C          26.700000    -15.465000     -0.878000
C          25.545000    -15.994000     -1.600000
N          26.972000    -14.155000     -0.974000
C          24.753000    -15.158000     -2.379000
C          26.188000    -13.411000     -1.740000
C          25.126000    -13.819000     -2.507000
C          24.307000    -12.829000     -3.203000
C          23.913000    -11.596000     -2.628000
C          23.917000    -12.905000     -4.592000
N          23.209000    -10.650000     -3.207000
N          24.237000    -13.988000     -5.308000
C          23.169000    -11.892000     -5.237000
C          22.914000    -10.692000     -4.470000
S          23.754000    -13.628000     -6.830000
N          22.959000    -12.195000     -6.586000
C          22.121000     -9.586000     -5.049000
S          21.770000     -9.396000     -6.737000
C          21.519000     -8.514000     -4.371000
C          20.875000     -7.912000     -6.502000
S          21.608000     -8.036000     -2.685000
C          20.819000     -7.581000     -5.156000
C          20.189000     -7.169000     -7.482000
C          20.738000     -6.511000     -3.044000
C          20.461000     -6.333000     -4.373000
N          19.988000     -7.836000     -8.572000
S          19.718000     -5.543000     -7.307000
C          19.317000     -6.958000     -9.341000
C          19.010000     -5.709000     -8.906000
C          27.668000    -16.413000     -0.123000
H          25.243000    -17.036000     -1.556000
H          23.863000    -15.565000     -2.850000
H          26.386000    -12.342000     -1.695000
H          24.225000    -11.378000     -1.608000
H          20.700000     -5.704000     -2.325000
H          19.922000     -5.462000     -4.728000
H          19.101000     -7.164000    -10.381000
H          18.582000     -4.887000     -9.464000
H          27.423000    -17.482000     -0.116000
C          27.984000    -15.916000      1.423000
H          28.644000    -16.341000     -0.619000
H          28.199000    -14.843000      1.350000
H          28.846000    -16.400000      1.898000
C          26.779000    -16.319000      2.244000
H          26.274000    -17.139000      1.719000
C          25.721000    -15.186000      2.322000
H          27.134000    -16.772000      3.178000
H          25.148000    -15.015000      1.402000
H          26.304000    -14.289000      2.566000
C          24.747000    -15.372000      3.473000
H          25.294000    -15.462000      4.420000
C          23.881000    -16.548000      3.213000
H          24.009000    -14.575000      3.322000
H          23.767000    -16.784000      2.148000
H          22.823000    -16.334000      3.408000
H          24.295000    -17.395000      3.774000
C           8.123000    -18.848000     -1.661000
C           9.357000    -18.541000     -1.086000
N           7.869000    -18.915000     -3.033000
C          10.421000    -18.072000     -1.890000
C           8.982000    -18.625000     -3.817000
C          10.205000    -18.045000     -3.297000
C          11.221000    -17.471000     -4.243000
C          12.615000    -17.696000     -3.926000
C          10.963000    -16.645000     -5.361000
N          13.567000    -17.242000     -4.726000
N           9.707000    -16.247000     -5.692000
C          12.015000    -15.994000     -6.045000
C          13.357000    -16.438000     -5.814000
S           9.904000    -14.979000     -6.747000
N          11.580000    -14.939000     -6.841000
C          14.552000    -15.929000     -6.439000
S          14.719000    -14.478000     -7.392000
C          15.797000    -16.529000     -6.294000
C          16.430000    -14.579000     -7.376000
S          16.322000    -18.068000     -5.595000
C          16.841000    -15.830000     -6.810000
C          17.335000    -13.448000     -7.732000
C          17.932000    -17.778000     -6.358000
C          18.040000    -16.538000     -6.921000
N          18.484000    -13.666000     -8.163000
S          16.746000    -11.763000     -7.688000
C          19.054000    -12.495000     -8.610000
C          18.269000    -11.368000     -8.423000
C           6.916000    -19.205000     -0.763000
H           9.458000    -18.673000     -0.013000
H          11.388000    -17.779000     -1.493000
H           8.924000    -18.681000     -4.903000
H          12.971000    -18.385000     -3.161000
H          18.715000    -18.524000     -6.321000
H          18.967000    -16.192000     -7.365000
H          20.111000    -12.515000     -8.838000
H          18.571000    -10.371000     -8.715000
H           6.918000    -18.311000     -0.127000
C           7.063000    -20.578000     -0.063000
H           5.981000    -19.189000     -1.336000
H           7.731000    -20.555000      0.807000
H           7.477000    -21.347000     -0.728000
C           5.825000    -21.035000      0.714000
H           5.003000    -21.168000      0.000000
C           5.294000    -20.095000      1.808000
H           6.046000    -22.005000      1.177000
H           4.465000    -20.666000      2.244000
H           5.007000    -19.156000      1.319000
C           6.349000    -19.725000      2.832000
H           6.744000    -20.670000      3.225000
C           5.563000    -18.999000      3.965000
H           7.199000    -19.171000      2.416000
H           4.712000    -19.623000      4.264000
H           5.089000    -18.058000      3.658000
H           6.098000    -18.825000      4.907000
$end

--------------------------------------------------------------

             Standard Nuclear Orientation (Angstroms)
    I     Atom           X                Y                Z
 ----------------------------------------------------------------
    1      C      -7.0664670149     6.3808894848    -1.2033398053
    2      C      -5.8744246439     5.7423918910    -1.7569694726
    3      N      -7.8806598107     5.6537453909    -0.4238197235
    4      C      -5.5979715116     4.4062157480    -1.4901212378
    5      C      -7.5707531399     4.3828787488    -0.2145260701
    6      C      -6.5184945640     3.6747022904    -0.7378185251
    7      C      -6.2753826311     2.3015870359    -0.3010942576
    8      C      -6.3914808333     1.8766498221     1.0450482207
    9      C      -6.0307890220     1.1828709129    -1.1819150126
   10      N      -6.2212211015     0.6559299001     1.4996111931
   11      N      -5.9263979689     1.3913585204    -2.4985700265
   12      C      -5.8562243638    -0.1406454930    -0.7133752561
   13      C      -6.0639740879    -0.3557005185     0.7022183961
   14      S      -5.7979614593    -0.1090638981    -3.1401381281
   15      N      -5.6722819487    -1.0354320665    -1.7722577689
   16      C      -5.8821830082    -1.7000177077     1.2913612464
   17      S      -5.8161615332    -3.1781734877     0.3861863159
   18      C      -5.7322959314    -2.0303935866     2.6477010426
   19      C      -5.6233468629    -4.1760245579     1.8094297050
   20      S      -5.8488185923    -1.0307958011     4.0851389497
   21      C      -5.5805807424    -3.3940611761     2.9544700224
   22      C      -5.4223658213    -5.5692330395     1.8497006332
   23      C      -5.7551419894    -2.4811669859     5.1334967704
   24      C      -5.7147278168    -3.6615131775     4.4408182283
   25      N      -5.0650458541    -6.0606745316     0.7076858781
   26      S      -5.6771899528    -6.5422781801     3.2225042668
   27      C      -4.9142696318    -7.3706283226     0.9792988315
   28      C      -5.1293133954    -7.8770430066     2.2205785532
   29      C      -7.4555331365     7.8262939144    -1.6097713346
   30      H      -5.1530748039     6.2664919448    -2.3765479922
   31      H      -4.6711988741     3.9767608884    -1.8592431713
   32      H      -8.2013522636     3.8719059058     0.5102093981
   33      H      -6.6634675600     2.6140357872     1.7984094614
   34      H      -5.9945516696    -2.4285875788     6.1868592013
   35      H      -5.6383300703    -4.6153823818     4.9502138756
   36      H      -4.7356556472    -8.0955429621     0.1961718878
   37      H      -5.1518969659    -8.9129347719     2.5314647589
   38      H      -6.7775303673     8.3588954582    -2.2876229707
   39      C      -7.7980645536     8.7924352965    -0.3112244321
   40      H      -8.4125784090     7.7661039170    -2.1428918749
   41      H      -8.4573965353     8.1982263123     0.3330426095
   42      H      -8.3182195011     9.7270657428    -0.5537729006
   43      C      -6.4613575475     9.2010817633     0.2673059863
   44      H      -5.7092248365     9.1060301017    -0.5253550803
   45      C      -5.9876148790     8.2313549780     1.3828035641
   46      H      -6.4935657903    10.2760694854     0.4839947642
   47      H      -5.6375491175     7.2513285900     1.0349929238
   48      H      -6.8707346575     8.1027358670     2.0212317755
   49      C      -4.9183949096     8.8405845591     2.2736913092
   50      H      -5.2770553346     9.7847125967     2.7027635037
   51      C      -3.6632897169     9.0172314656     1.5029521667
   52      H      -4.6112497581     8.0089108449     2.9191637632
   53      H      -3.5659743000     8.3273776152     0.6558698952
   54      H      -2.7848593333     8.6620165690     2.0555527805
   55      H      -3.6171374175    10.0647307908     1.1802431197
   56      C      10.9925437953     1.1475223800     0.7062947936
   57      C       9.8098343129     1.8333505110     0.9864162939
   58      N      11.1127944731     0.0844876571    -0.1919735141
   59      C       8.5732715997     1.3491948002     0.5016700673
   60      C       9.9107548570    -0.2646200535    -0.8008655961
   61      C       8.6156951532     0.2198297674    -0.3642218802
   62      C       7.3632121792    -0.4464066929    -0.8582495909
   63      C       6.2385918946     0.4119139388    -1.1629870328
   64      C       7.1304276778    -1.8369662857    -0.9627454993
   65      N       5.1094667780    -0.1004673436    -1.6266268635
   66      N       8.0556819997    -2.7560174786    -0.5822847990
   67      C       5.8387562197    -2.3415539971    -1.2372215197
   68      C       4.8459536164    -1.4392121014    -1.7388021155
   69      S       7.2313498670    -4.1925431676    -0.4537216637
   70      N       5.6991152870    -3.6892980349    -0.9210689956
   71      C       3.4924117737    -1.7678732954    -2.1097971288
   72      S       2.6269227548    -3.2450694067    -1.7776534751
   73      C       2.6449123103    -0.8737142689    -2.7526612628
   74      C       1.1344983983    -2.5672558389    -2.2788683068
   75      S       2.9010340347     0.7127299712    -3.4945125520
   76      C       1.3566267715    -1.2849044265    -2.8792946896
   77      C      -0.1977328075    -3.1582287691    -1.9613261680
   78      C       1.2545657688     0.5556980391    -4.2175977626
   79      C       0.5711555850    -0.5337050001    -3.7567457918
   80      N      -1.1797072309    -2.9423346055    -2.6979413605
   81      S      -0.3848185867    -4.3036770612    -0.6044808852
   82      C      -2.2371322615    -3.7424106408    -2.3268879380
   83      C      -1.9952420740    -4.5313410965    -1.2131550826
   84      C      12.3190409645     1.5857722729     1.3688989677
   85      H       9.8823814649     2.7360204896     1.5854804143
   86      H       7.6187075526     1.8169955849     0.7219356017
   87      H       9.8786848151    -1.0535246587    -1.5508636204
   88      H       6.2895911222     1.4983483604    -1.2241534150
   89      H       0.8738290071     1.2900159529    -4.9153016538
   90      H      -0.4538736609    -0.7304812241    -4.0513220342
   91      H      -3.2009199375    -3.5233928680    -2.7659523193
   92      H      -2.7220387472    -5.2123734966    -0.7907353080
   93      H      11.9982218790     1.5413752393     2.4171546702
   94      C      12.8438736928     2.9432182814     0.8410458240
   95      H      13.0951782835     0.8219895508     1.2382972243
   96      H      12.3205087628     3.8086281570     1.2662609429
   97      H      12.7345985409     3.0422007837    -0.2467240990
   98      C      14.2289427088     3.3387477673     1.3610095215
   99      H      14.9532430239     2.5968364069     1.0030631750
  100      C      14.4129147243     3.4161099542     2.8850063685
  101      H      14.4913391404     4.3161383313     0.9367857620
  102      H      15.4453294619     3.7711487590     2.9919888743
  103      H      14.2204840229     2.4139232369     3.2872540643
  104      C      13.4087855744     4.3330764950     3.5553779172
  105      H      13.4971935842     5.3063261349     3.0569121088
  106      C      13.9172638862     4.4715917238     5.0219468170
  107      H      12.3667657109     4.0100136105     3.4444861824
  108      H      14.9784705547     4.7482973560     5.0060597221
  109      H      13.9101052498     3.5359609701     5.5954883120
  110      H      13.4559791130     5.2560144299     5.6349414143
 ----------------------------------------------------------------

   10   -5663.4789560195      4.20E-06 Convergence criterion met
 Total energy in the final basis set = -5663.4789560195

                    Orbital Energies (a.u.)
 --------------------------------------------------------------

 Alpha MOs
 -- Occupied --
-88.990 -88.985 -88.935 -88.928 -88.928 -88.921 -88.912 -88.906
-14.397 -14.389 -14.386 -14.381 -14.350 -14.350 -14.341 -14.338
-14.336 -14.333 -10.270 -10.268 -10.265 -10.264 -10.261 -10.259
-10.257 -10.254 -10.245 -10.243 -10.242 -10.239 -10.238 -10.238
-10.236 -10.236 -10.233 -10.231 -10.229 -10.228 -10.227 -10.226
-10.225 -10.223 -10.223 -10.223 -10.223 -10.219 -10.219 -10.216
-10.215 -10.214 -10.212 -10.211 -10.204 -10.203 -10.199 -10.197
-10.191 -10.186 -10.181 -10.181 -10.181 -10.175 -10.173 -10.173
-10.171 -10.168 -10.167 -10.163  -8.046  -8.040  -7.998  -7.988
 -7.987  -7.982  -7.971  -7.965  -6.011  -6.005  -6.005  -6.004
 -5.999  -5.997  -5.961  -5.958  -5.955  -5.952  -5.951  -5.948
 -5.947  -5.946  -5.945  -5.944  -5.943  -5.939  -5.936  -5.932
 -5.930  -5.928  -5.926  -5.921  -1.033  -1.016  -1.002  -0.984
 -0.978  -0.950  -0.948  -0.915  -0.915  -0.913  -0.902  -0.889
 -0.847  -0.846  -0.839  -0.828  -0.821  -0.811  -0.810  -0.807
 -0.806  -0.802  -0.801  -0.789  -0.785  -0.779  -0.773  -0.759
 -0.753  -0.743  -0.740  -0.734  -0.732  -0.727  -0.711  -0.707
 -0.694  -0.686  -0.678  -0.668  -0.658  -0.652  -0.650  -0.638
 -0.637  -0.631  -0.626  -0.618  -0.616  -0.610  -0.607  -0.600
 -0.596  -0.591  -0.583  -0.582  -0.580  -0.568  -0.555  -0.551
 -0.547  -0.546  -0.545  -0.534  -0.530  -0.518  -0.517  -0.514
 -0.506  -0.505  -0.500  -0.496  -0.494  -0.480  -0.477  -0.475
 -0.475  -0.472  -0.471  -0.467  -0.461  -0.457  -0.453  -0.451
 -0.451  -0.448  -0.447  -0.446  -0.437  -0.435  -0.434  -0.432
 -0.426  -0.426  -0.425  -0.423  -0.421  -0.419  -0.419  -0.415
 -0.414  -0.408  -0.407  -0.404  -0.402  -0.399  -0.398  -0.394
 -0.391  -0.391  -0.390  -0.387  -0.387  -0.386  -0.382  -0.381
 -0.374  -0.373  -0.372  -0.370  -0.370  -0.366  -0.356  -0.355
 -0.353  -0.351  -0.347  -0.347  -0.346  -0.345  -0.343  -0.343
 -0.341  -0.338  -0.338  -0.332  -0.330  -0.327  -0.323  -0.317
 -0.316  -0.312  -0.311  -0.308  -0.306  -0.302  -0.301  -0.299
 -0.298  -0.296  -0.294  -0.291  -0.287  -0.284  -0.282  -0.278
 -0.275  -0.269  -0.266  -0.260  -0.258  -0.253  -0.251  -0.249
 -0.246  -0.245  -0.240  -0.227  -0.201  -0.188

          Ground-State Mulliken Net Atomic Charges

     Atom                 Charge (a.u.)
  ----------------------------------------
      1 C                     0.288541
      2 C                    -0.134628
      3 N                    -0.480067
      4 C                    -0.046599
      5 C                     0.065274
      6 C                     0.066805
      7 C                     0.014126
      8 C                     0.050498
      9 C                     0.193939
     10 N                    -0.505104
     11 N                    -0.541432
     12 C                     0.218085
     13 C                     0.327384
     14 S                     0.606560
     15 N                    -0.558997
     16 C                    -0.225880
     17 S                     0.369104
     18 C                    -0.127630
     19 C                    -0.236469
     20 S                     0.277989
     21 C                     0.106918
     22 C                     0.076394
     23 C                    -0.300382
     24 C                    -0.073553
     25 N                    -0.431772
     26 S                     0.286185
     27 C                     0.119182
     28 C                    -0.306210
     29 C                    -0.248200
     30 H                     0.090156
     31 H                     0.108827
     32 H                     0.095657
     33 H                     0.108213
     34 H                     0.133092
     35 H                     0.123537
     36 H                     0.102038
     37 H                     0.137540
     38 H                     0.104276
     39 C                    -0.186970
     40 H                     0.120322
     41 H                     0.124496
     42 H                     0.086253
     43 C                    -0.173326
     44 H                     0.094281
     45 C                    -0.170548
     46 H                     0.083146
     47 H                     0.098172
     48 H                     0.089436
     49 C                    -0.170644
     50 H                     0.095263
     51 C                    -0.311920
     52 H                     0.089380
     53 H                     0.095007
     54 H                     0.094654
     55 H                     0.101261
     56 C                     0.236078
     57 C                    -0.105587
     58 N                    -0.477366
     59 C                    -0.076183
     60 C                     0.084887
     61 C                     0.037892
     62 C                    -0.006421
     63 C                     0.069648
     64 C                     0.228468
     65 N                    -0.504008
     66 N                    -0.548781
     67 C                     0.188275
     68 C                     0.288531
     69 S                     0.602075
     70 N                    -0.568764
     71 C                    -0.219099
     72 S                     0.342356
     73 C                    -0.098969
     74 C                    -0.233827
     75 S                     0.262683
     76 C                     0.134435
     77 C                     0.076465
     78 C                    -0.316148
     79 C                    -0.036964
     80 N                    -0.403960
     81 S                     0.254048
     82 C                     0.098769
     83 C                    -0.308318
     84 C                    -0.221285
     85 H                     0.092784
     86 H                     0.102986
     87 H                     0.114666
     88 H                     0.121249
     89 H                     0.123085
     90 H                     0.125651
     91 H                     0.122370
     92 H                     0.154089
     93 H                     0.105898
     94 C                    -0.173354
     95 H                     0.120213
     96 H                     0.092273
     97 H                     0.106272
     98 C                    -0.198858
     99 H                     0.086617
    100 C                    -0.161124
    101 H                     0.085434
    102 H                     0.097016
    103 H                     0.098229
    104 C                    -0.175019
    105 H                     0.092546
    106 C                    -0.322004
    107 H                     0.099090
    108 H                     0.102124
    109 H                     0.103759
    110 H                     0.093418
  ----------------------------------------
  Sum of atomic charges =     0.000000

                    Cartesian Multipole Moments
 -----------------------------------------------------------------
    Charge (ESU x 10^10)
                 0.0000
    Dipole Moment (Debye)
         X      -3.0243      Y      -1.0801      Z       2.0238
       Tot       3.7959
    Quadrupole Moments (Debye-Ang)
        XX    -474.1628     XY      34.6199     YY    -395.9826
        XZ       8.2459     YZ     -23.3901     ZZ    -430.0330

 Total job time:  88.62s(wall), 1042.15s(cpu)
        *  Thank you very much for using Q-Chem.  Have a nice day.  *
