 Q-Chem 4.4, Q-Chem, Inc., Pleasanton, CA (2016)
 Q-Chem 4.4.2 for Intel X86 Linux

User input:
--------------------------------------------------------------
$comment
SP
$end

$rem
MEM_STATIC 5000
MEM_TOTAL 20000
JOBTYPE SP
EXCHANGE B3LYP
BASIS 6-31g(d,p)
$end

$molecule
0 1
C          10.313000    -16.226000    -10.555000
C          10.917000    -17.277000     -9.808000
N           9.021000    -15.929000    -10.488000
C          10.159000    -18.043000     -8.929000
C           8.259000    -16.655000     -9.616000
C           8.749000    -17.764000     -8.829000
C           7.922000    -18.560000     -7.823000
C           8.229000    -19.900000     -7.589000
C           6.742000    -18.066000     -7.148000
N           7.641000    -20.686000     -6.677000
N           6.136000    -16.873000     -7.445000
C           6.044000    -18.918000     -6.255000
C           6.552000    -20.231000     -6.033000
S           4.865000    -16.838000     -6.429000
N           4.927000    -18.299000     -5.732000
C           5.975000    -21.204000     -5.100000
S           6.900000    -22.462000     -4.146000
C           4.636000    -21.394000     -4.891000
C           5.400000    -23.028000     -3.421000
S           3.363000    -20.785000     -5.860000
C           4.303000    -22.466000     -4.150000
C           5.284000    -24.072000     -2.454000
C           2.244000    -22.064000     -5.142000
C           2.938000    -22.864000     -4.143000
N           4.077000    -24.484000     -1.960000
S           6.704000    -24.774000     -1.699000
C           4.276000    -25.647000     -1.223000
C           5.619000    -26.025000     -1.110000
C          11.225000    -15.459000    -11.577000
H          11.978000    -17.498000     -9.880000
H          10.646000    -18.775000     -8.292000
H           7.218000    -16.346000     -9.536000
H           9.048000    -20.363000     -8.138000
H           1.211000    -22.079000     -5.465000
H           2.460000    -23.669000     -3.595000
H           3.441000    -26.221000     -0.842000
H           6.039000    -26.788000     -0.468000
H          11.849000    -16.150000    -12.157000
C          12.207000    -14.535000    -10.786000
H          10.518000    -14.937000    -12.235000
H          12.641000    -15.050000     -9.920000
H          11.722000    -13.621000    -10.422000
C          13.311000    -13.861000    -11.640000
H          13.581000    -14.607000    -12.398000
C          14.562000    -13.520000    -10.796000
H          12.883000    -12.960000    -12.097000
H          14.784000    -14.507000    -10.374000
H          14.360000    -12.876000     -9.932000
C          15.823000    -13.036000    -11.559000
H          16.773000    -13.195000    -11.034000
C          15.776000    -11.559000    -11.987000
H          15.925000    -13.647000    -12.464000
H          15.538000    -10.918000    -11.129000
H          14.903000    -11.418000    -12.637000
H          16.691000    -11.242000    -12.502000
C           8.123000    -18.848000     -1.661000
C           9.357000    -18.541000     -1.086000
N           7.869000    -18.915000     -3.033000
C          10.421000    -18.072000     -1.890000
C           8.982000    -18.625000     -3.817000
C          10.205000    -18.045000     -3.297000
C          11.221000    -17.471000     -4.243000
C          12.615000    -17.696000     -3.926000
C          10.963000    -16.645000     -5.361000
N          13.567000    -17.242000     -4.726000
N           9.707000    -16.247000     -5.692000
C          12.015000    -15.994000     -6.045000
C          13.357000    -16.438000     -5.814000
S           9.904000    -14.979000     -6.747000
N          11.580000    -14.939000     -6.841000
C          14.552000    -15.929000     -6.439000
S          14.719000    -14.478000     -7.392000
C          15.797000    -16.529000     -6.294000
C          16.430000    -14.579000     -7.376000
S          16.322000    -18.068000     -5.595000
C          16.841000    -15.830000     -6.810000
C          17.335000    -13.448000     -7.732000
C          17.932000    -17.778000     -6.358000
C          18.040000    -16.538000     -6.921000
N          18.484000    -13.666000     -8.163000
S          16.746000    -11.763000     -7.688000
C          19.054000    -12.495000     -8.610000
C          18.269000    -11.368000     -8.423000
C           6.916000    -19.205000     -0.763000
H           9.458000    -18.673000     -0.013000
H          11.388000    -17.779000     -1.493000
H           8.924000    -18.681000     -4.903000
H          12.971000    -18.385000     -3.161000
H          18.715000    -18.524000     -6.321000
H          18.967000    -16.192000     -7.365000
H          20.111000    -12.515000     -8.838000
H          18.571000    -10.371000     -8.715000
H           6.918000    -18.311000     -0.127000
C           7.063000    -20.578000     -0.063000
H           5.981000    -19.189000     -1.336000
H           7.731000    -20.555000      0.807000
H           7.477000    -21.347000     -0.728000
C           5.825000    -21.035000      0.714000
H           5.003000    -21.168000      0.000000
C           5.294000    -20.095000      1.808000
H           6.046000    -22.005000      1.177000
H           4.465000    -20.666000      2.244000
H           5.007000    -19.156000      1.319000
C           6.349000    -19.725000      2.832000
H           6.744000    -20.670000      3.225000
C           5.563000    -18.999000      3.965000
H           7.199000    -19.171000      2.416000
H           4.712000    -19.623000      4.264000
H           5.089000    -18.058000      3.658000
H           6.098000    -18.825000      4.907000
$end

--------------------------------------------------------------

             Standard Nuclear Orientation (Angstroms)
    I     Atom           X                Y                Z
 ----------------------------------------------------------------
    1      C      -3.3635435509     4.0106994828     0.5050527283
    2      C      -2.9002062036     2.9641356594     1.3520761437
    3      N      -2.5673387664     4.7181449775    -0.2871220082
    4      C      -1.5552490004     2.6107411257     1.3648599259
    5      C      -1.2441521515     4.3762518221    -0.3068768151
    6      C      -0.6501317821     3.3568828995     0.5282140784
    7      C       0.8166443086     2.9364058700     0.4914994020
    8      C       1.4216760588     2.4529422918     1.6511564848
    9      C       1.6953945952     3.1004843042    -0.6455745628
   10      N       2.6700922385     1.9739655902     1.7367272844
   11      N       1.3560812266     3.7929250501    -1.7787498587
   12      C       3.0498341048     2.6939318802    -0.5418164734
   13      C       3.4908751213     2.1081072429     0.6803166274
   14      S       2.6981370235     3.6900328966    -2.6937479147
   15      N       3.7488456047     2.9572575105    -1.7021705295
   16      C       4.8414038613     1.5893296153     0.9192494540
   17      S       5.2775982345     0.1725934858     1.9920486934
   18      C       5.9964093911     2.1648849719     0.4638372697
   19      C       6.9788214029     0.3853390219     1.5963719716
   20      S       6.1526642304     3.7353420051    -0.1992012902
   21      C       7.1403438512     1.6552905920     0.9546340903
   22      C       8.0520362233    -0.4301162274     2.0672474177
   23      C       7.9615630075     3.6742811692     0.1581259946
   24      C       8.3366571349     2.3925029326     0.7377689433
   25      N       9.3580176102    -0.1820878227     1.7454966952
   26      S       7.7457842822    -1.9176174683     2.9463258027
   27      C      10.1676838886    -0.9995171595     2.5275381244
   28      C       9.4581557633    -1.8901936122     3.3415204927
   29      C      -4.8827344284     4.3932776157     0.6060975202
   30      H      -3.5738988265     2.3990548657     1.9897029518
   31      H      -1.2284704611     1.7486576041     1.9382618689
   32      H      -0.6286564705     4.9311051049    -1.0131805041
   33      H       0.8408490527     2.3943222298     2.5707948253
   34      H       8.5675416263     4.5254987464    -0.1244718643
   35      H       9.3554008480     2.1466097179     1.0179666841
   36      H      11.2441561218    -0.8853078069     2.5326130583
   37      H       9.8518886195    -2.7209002281     3.9121639508
   38      H      -5.2146442179     4.4511354410     1.6500062153
   39      C      -5.7346648603     3.2683088337    -0.0665396619
   40      H      -4.9479381912     5.3794891745     0.1281516753
   41      H      -5.3854447144     2.2683090500     0.2190872318
   42      H      -5.7180856408     3.3272687425    -1.1616952941
   43      C      -7.2671386773     3.3960682589     0.1273921028
   44      H      -7.3943085313     3.7962648984     1.1411230720
   45      C      -7.9745470750     2.0234678269     0.0316872803
   46      H      -7.6476180980     4.0922526738    -0.6304975138
   47      H      -7.4155074381     1.4657312241     0.7919119617
   48      H      -7.7943170245     1.4889804155    -0.9084596954
   49      C      -9.4770264178     1.9707751623     0.4142121912
   50      H      -9.8404158961     0.9865608078     0.7346434497
   51      C     -10.4281118125     2.4766037643    -0.6841939256
   52      H      -9.6214541041     2.5986336354     1.3017280396
   53      H     -10.2231039601     1.9672692032    -1.6340565922
   54      H     -10.1655424550     3.5175050497    -0.9124303085
   55      H     -11.4828204441     2.4037987554    -0.3922553480
   56      C       3.5534805712    -2.2383310140    -1.4643672740
   57      C       2.7575773489    -3.3844211553    -1.4389615921
   58      N       3.1647838870    -0.9784022425    -1.0029744061
   59      C       1.3863120091    -3.2926747800    -1.1077713591
   60      C       1.8636296781    -0.9465917233    -0.5095062557
   61      C       0.9042570249    -2.0175691805    -0.6969639804
   62      C      -0.5519518469    -1.7732497052    -0.4205372894
   63      C      -1.2902100646    -2.8462782893     0.2102831779
   64      C      -1.3063547369    -0.6403938199    -0.8030001276
   65      N      -2.5713100491    -2.6952957831     0.5076165134
   66      N      -0.7664235227     0.3805894351    -1.5182402809
   67      C      -2.7139488211    -0.6239260474    -0.6735060876
   68      C      -3.3350152925    -1.6162298870     0.1517638852
   69      S      -2.0572914105     1.2414093787    -2.1117949297
   70      N      -3.3223097413     0.3667293260    -1.4379437384
   71      C      -4.7425819880    -1.7418867294     0.4358366853
   72      S      -6.0653716447    -0.9312935153    -0.3608220657
   73      C      -5.2481157358    -2.6223083303     1.3847009720
   74      C      -7.2308914141    -1.9281441293     0.4045735969
   75      S      -4.4865411532    -3.6273665754     2.6267191196
   76      C      -6.6015060313    -2.7343525071     1.4086553125
   77      C      -8.6464820653    -2.0538957452    -0.0484293164
   78      C      -6.1348143129    -3.8959074156     3.3118836315
   79      C      -7.1291337261    -3.3888413855     2.5241997193
   80      N      -9.5437070442    -2.3755165523     0.7547103936
   81      S      -9.1121116576    -1.6066937203    -1.7131459384
   82      C     -10.7808604480    -2.2325252729     0.1673817381
   83      C     -10.7421581109    -1.8393466495    -1.1612399910
   84      C       5.0085576917    -2.3155963704    -1.9815545110
   85      H       3.2308992824    -4.3302808916    -1.6844604853
   86      H       0.7106782206    -4.1424089812    -1.1119869534
   87      H       1.4549705137    -0.0310726741    -0.0843962019
   88      H      -0.8360238744    -3.7345416498     0.6477590139
   89      H      -6.2781842277    -4.4376167281     4.2376104208
   90      H      -8.1766579799    -3.5239590755     2.7704052183
   91      H     -11.6289450206    -2.6502589993     0.6926284341
   92      H     -11.6248464547    -1.6855347113    -1.7676063616
   93      H       4.8069947688    -2.7581338702    -2.9650528330
   94      C       5.9522446861    -3.0915509610    -1.0307194413
   95      H       5.4169711177    -1.3132293573    -2.1583844983
   96      H       5.8456816781    -4.1810452320    -1.1035175094
   97      H       5.7753366959    -2.8514104707     0.0256981409
   98      C       7.4298822362    -3.0610390626    -1.4318158071
   99      H       7.7751329950    -2.0208948909    -1.3863073952
  100      C       7.7883749792    -3.5700768255    -2.8370775298
  101      H       7.9986205207    -3.6502185474    -0.7013951759
  102      H       8.8832590435    -3.5039642752    -2.8524403571
  103      H       7.2721604844    -2.9247600445    -3.5583956617
  104      C       7.2855300444    -4.9755351005    -3.1022850124
  105      H       7.6850596194    -5.6044741045    -2.2971074866
  106      C       7.9593930943    -5.3898781397    -4.4449649578
  107      H       6.1935893774    -5.0714441176    -3.0716412498
  108      H       9.0379931909    -5.2039275430    -4.3740974248
  109      H       7.6567139004    -4.7865457865    -5.3102865034
  110      H       7.8987346403    -6.4491982741    -4.7242970266
 ----------------------------------------------------------------

   10   -5663.4891501137      4.50E-06 Convergence criterion met
 Total energy in the final basis set = -5663.4891501137

                    Orbital Energies (a.u.)
 --------------------------------------------------------------

 Alpha MOs
 -- Occupied --
-88.988 -88.986 -88.932 -88.929 -88.923 -88.920 -88.909 -88.903
-14.390 -14.388 -14.383 -14.381 -14.346 -14.345 -14.344 -14.340
-14.339 -14.333 -10.272 -10.267 -10.263 -10.262 -10.260 -10.259
-10.258 -10.255 -10.245 -10.240 -10.239 -10.239 -10.237 -10.235
-10.235 -10.234 -10.233 -10.233 -10.231 -10.230 -10.229 -10.229
-10.228 -10.226 -10.226 -10.224 -10.224 -10.222 -10.219 -10.217
-10.216 -10.214 -10.207 -10.206 -10.204 -10.200 -10.200 -10.194
-10.190 -10.185 -10.180 -10.179 -10.179 -10.177 -10.176 -10.176
-10.172 -10.172 -10.169 -10.169  -8.044  -8.040  -7.991  -7.989
 -7.982  -7.981  -7.968  -7.964  -6.009  -6.005  -6.003  -6.002
 -5.999  -5.998  -5.956  -5.953  -5.952  -5.950  -5.949  -5.946
 -5.945  -5.945  -5.942  -5.942  -5.938  -5.937  -5.932  -5.929
 -5.928  -5.925  -5.924  -5.920  -1.033  -1.016  -0.991  -0.958
 -0.952  -0.950  -0.936  -0.919  -0.916  -0.911  -0.899  -0.890
 -0.850  -0.832  -0.825  -0.822  -0.814  -0.808  -0.806  -0.803
 -0.801  -0.796  -0.793  -0.792  -0.780  -0.777  -0.762  -0.762
 -0.746  -0.743  -0.736  -0.736  -0.731  -0.717  -0.708  -0.706
 -0.688  -0.688  -0.670  -0.666  -0.652  -0.650  -0.643  -0.639
 -0.634  -0.632  -0.625  -0.621  -0.611  -0.605  -0.603  -0.597
 -0.592  -0.584  -0.583  -0.579  -0.574  -0.572  -0.563  -0.551
 -0.545  -0.543  -0.540  -0.536  -0.522  -0.520  -0.513  -0.505
 -0.503  -0.503  -0.499  -0.497  -0.483  -0.482  -0.475  -0.474
 -0.473  -0.469  -0.464  -0.464  -0.461  -0.458  -0.451  -0.449
 -0.445  -0.443  -0.437  -0.434  -0.432  -0.431  -0.430  -0.428
 -0.424  -0.422  -0.420  -0.420  -0.419  -0.419  -0.414  -0.412
 -0.408  -0.407  -0.406  -0.402  -0.399  -0.397  -0.393  -0.391
 -0.391  -0.390  -0.389  -0.388  -0.386  -0.382  -0.381  -0.380
 -0.378  -0.374  -0.373  -0.370  -0.366  -0.365  -0.359  -0.355
 -0.353  -0.351  -0.348  -0.346  -0.346  -0.341  -0.341  -0.340
 -0.336  -0.333  -0.331  -0.328  -0.327  -0.325  -0.319  -0.316
 -0.312  -0.309  -0.308  -0.305  -0.304  -0.302  -0.298  -0.296
 -0.294  -0.293  -0.292  -0.290  -0.288  -0.284  -0.281  -0.276
 -0.273  -0.268  -0.267  -0.262  -0.254  -0.253  -0.251  -0.248
 -0.246  -0.241  -0.231  -0.229  -0.192  -0.183

          Ground-State Mulliken Net Atomic Charges

     Atom                 Charge (a.u.)
  ----------------------------------------
      1 C                     0.267518
      2 C                    -0.101433
      3 N                    -0.481352
      4 C                    -0.095843
      5 C                     0.064164
      6 C                     0.024079
      7 C                     0.059279
      8 C                     0.041648
      9 C                     0.200926
     10 N                    -0.507235
     11 N                    -0.551239
     12 C                     0.250358
     13 C                     0.255330
     14 S                     0.622934
     15 N                    -0.540750
     16 C                    -0.166716
     17 S                     0.318763
     18 C                    -0.102900
     19 C                    -0.209138
     20 S                     0.257019
     21 C                     0.114412
     22 C                     0.061008
     23 C                    -0.316731
     24 C                    -0.039931
     25 N                    -0.453691
     26 S                     0.257995
     27 C                     0.119763
     28 C                    -0.305771
     29 C                    -0.229635
     30 H                     0.094484
     31 H                     0.107670
     32 H                     0.128961
     33 H                     0.109008
     34 H                     0.132460
     35 H                     0.138372
     36 H                     0.116836
     37 H                     0.124120
     38 H                     0.105559
     39 C                    -0.190434
     40 H                     0.119239
     41 H                     0.110796
     42 H                     0.106512
     43 C                    -0.184411
     44 H                     0.086632
     45 C                    -0.187627
     46 H                     0.096033
     47 H                     0.101077
     48 H                     0.098069
     49 C                    -0.182699
     50 H                     0.100336
     51 C                    -0.316670
     52 H                     0.089328
     53 H                     0.099733
     54 H                     0.101647
     55 H                     0.098511
     56 C                     0.238751
     57 C                    -0.105727
     58 N                    -0.485059
     59 C                    -0.075273
     60 C                     0.089230
     61 C                     0.038162
     62 C                    -0.005859
     63 C                     0.067822
     64 C                     0.226940
     65 N                    -0.502106
     66 N                    -0.557286
     67 C                     0.187496
     68 C                     0.283256
     69 S                     0.624571
     70 N                    -0.574379
     71 C                    -0.223469
     72 S                     0.351399
     73 C                    -0.104008
     74 C                    -0.242553
     75 S                     0.262763
     76 C                     0.135671
     77 C                     0.080891
     78 C                    -0.314695
     79 C                    -0.038460
     80 N                    -0.404585
     81 S                     0.260780
     82 C                     0.102260
     83 C                    -0.301612
     84 C                    -0.222572
     85 H                     0.094572
     86 H                     0.103499
     87 H                     0.108812
     88 H                     0.121886
     89 H                     0.125430
     90 H                     0.126854
     91 H                     0.115398
     92 H                     0.135660
     93 H                     0.104856
     94 C                    -0.178528
     95 H                     0.125619
     96 H                     0.090144
     97 H                     0.110717
     98 C                    -0.200845
     99 H                     0.096440
    100 C                    -0.162795
    101 H                     0.086847
    102 H                     0.097711
    103 H                     0.097689
    104 C                    -0.174353
    105 H                     0.091738
    106 C                    -0.321564
    107 H                     0.097778
    108 H                     0.102052
    109 H                     0.103330
    110 H                     0.092327
  ----------------------------------------
  Sum of atomic charges =     0.000000

                    Cartesian Multipole Moments
 -----------------------------------------------------------------
    Charge (ESU x 10^10)
                 0.0000
    Dipole Moment (Debye)
         X      -1.4346      Y      -2.7927      Z      -0.0597
       Tot       3.1402
    Quadrupole Moments (Debye-Ang)
        XX    -385.5051     XY       0.1224     YY    -440.6751
        XZ       4.6858     YZ      -6.9942     ZZ    -438.3362

 Total job time:  103.33s(wall), 1249.13s(cpu)
        *  Thank you very much for using Q-Chem.  Have a nice day.  *
