 Q-Chem 4.4, Q-Chem, Inc., Pleasanton, CA (2016)
 Q-Chem 4.4.2 for Intel X86 Linux

User input:
--------------------------------------------------------------
$comment
SP
$end

$rem
MEM_STATIC 5000
MEM_TOTAL 20000
JOBTYPE SP
EXCHANGE B3LYP
BASIS 6-31g(d,p)
$end

$molecule
0 1
C         -22.173000    -13.708000     -3.465000
C         -21.912000    -12.358000     -3.245000
N         -23.248000    -14.249000     -2.842000
C         -22.760000    -11.559000     -2.413000
C         -24.071000    -13.545000     -2.030000
C         -23.884000    -12.167000     -1.746000
C         -24.892000    -11.407000     -0.964000
C         -26.234000    -11.805000     -0.889000
C         -24.548000    -10.364000     -0.054000
N         -27.251000    -11.260000     -0.127000
N         -23.326000     -9.748000      0.107000
C         -25.555000     -9.708000      0.633000
C         -26.923000    -10.198000      0.617000
S         -23.590000     -8.622000      1.215000
N         -25.193000     -8.657000      1.413000
C         -27.999000     -9.427000      1.258000
S         -28.002000     -7.758000      1.709000
C         -29.104000    -10.018000      1.880000
C         -29.308000     -7.996000      2.830000
S         -29.484000    -11.723000      1.868000
C         -29.790000     -9.230000      2.694000
C         -29.731000     -6.973000      3.685000
C         -30.750000    -11.349000      3.057000
C         -30.718000     -9.991000      3.425000
N         -30.413000     -7.278000      4.755000
S         -29.349000     -5.280000      3.367000
C         -30.830000     -6.121000      5.370000
C         -30.260000     -4.967000      4.892000
C         -21.438000    -14.582000     -4.530000
H         -21.068000    -11.807000     -3.650000
H         -22.445000    -10.537000     -2.226000
H         -24.918000    -14.087000     -1.612000
H         -26.591000    -12.655000     -1.467000
H         -31.299000    -12.160000      3.517000
H         -31.271000     -9.634000      4.286000
H         -31.378000     -6.164000      6.302000
H         -30.481000     -3.947000      5.177000
H         -20.360000    -14.671000     -4.350000
C         -21.687000    -14.114000     -5.984000
H         -21.777000    -15.624000     -4.476000
H         -21.456000    -13.042000     -6.000000
H         -22.756000    -14.144000     -6.226000
C         -20.864000    -14.847000     -7.119000
H         -19.782000    -14.732000     -6.981000
C         -21.328000    -14.398000     -8.577000
H         -21.087000    -15.921000     -7.139000
H         -21.043000    -13.359000     -8.782000
H         -22.425000    -14.395000     -8.561000
C         -20.843000    -15.290000     -9.706000
H         -19.750000    -15.277000     -9.617000
C         -21.185000    -14.707000    -11.094000
H         -21.105000    -16.354000     -9.644000
H         -22.257000    -14.607000    -11.302000
H         -20.569000    -15.133000    -11.895000
H         -20.922000    -13.643000    -11.137000
C         -31.592000     -5.122000      0.279000
C         -30.819000     -6.008000     -0.481000
N         -31.054000     -3.973000      0.735000
C         -29.533000     -5.706000     -0.855000
C         -29.733000     -3.695000      0.489000
C         -28.908000     -4.540000     -0.305000
C         -27.516000     -4.211000     -0.707000
C         -26.576000     -5.198000     -0.974000
C         -27.090000     -2.915000     -0.898000
N         -25.302000     -5.005000     -1.378000
N         -27.832000     -1.788000     -0.691000
C         -25.790000     -2.603000     -1.323000
C         -24.874000     -3.736000     -1.537000
S         -26.862000     -0.555000     -1.068000
N         -25.449000     -1.323000     -1.328000
C         -23.393000     -3.571000     -1.802000
S         -22.470000     -2.117000     -2.103000
C         -22.464000     -4.617000     -1.654000
C         -20.971000     -2.967000     -2.354000
S         -22.640000     -6.290000     -1.103000
C         -21.161000     -4.222000     -1.911000
C         -19.785000     -2.331000     -2.736000
C         -20.925000     -6.497000     -1.442000
C         -20.214000     -5.313000     -1.782000
N         -19.854000     -1.034000     -2.685000
S         -18.236000     -3.033000     -3.195000
C         -18.588000     -0.522000     -2.849000
C         -17.634000     -1.407000     -3.103000
C         -33.027000     -5.307000      0.345000
H         -31.300000     -6.880000     -0.915000
H         -28.897000     -6.271000     -1.530000
H         -29.338000     -2.805000      0.977000
H         -26.835000     -6.199000     -0.633000
H         -20.546000     -7.510000     -1.427000
H         -19.167000     -5.195000     -2.036000
H         -18.495000      0.552000     -2.763000
H         -16.555000     -1.332000     -3.131000
H         -33.608000     -4.376000      0.333000
C         -33.590000     -6.268000      1.390000
H         -33.274000     -5.828000     -0.589000
H         -34.678000     -6.224000      1.261000
H         -33.287000     -5.835000      2.352000
C         -33.163000     -7.725000      1.216000
H         -33.210000     -7.901000      0.134000
C         -33.895000     -8.824000      2.022000
H         -32.115000     -7.877000      1.503000
H         -33.237000     -9.699000      1.943000
H         -34.797000     -9.057000      1.443000
C         -34.282000     -8.431000      3.448000
H         -33.412000     -7.953000      3.915000
C         -34.617000     -9.677000      4.222000
H         -35.049000     -7.649000      3.513000
H         -35.082000     -9.349000      5.160000
H         -33.783000    -10.345000      4.471000
H         -35.384000    -10.265000      3.703000
$end

--------------------------------------------------------------

             Standard Nuclear Orientation (Angstroms)
    I     Atom           X                Y                Z
 ----------------------------------------------------------------
    1      C       5.7840510478    -5.2551112164     0.8338321211
    2      C       5.6215742709    -3.8736485828     0.8985104726
    3      N       4.6676437950    -6.0214526226     0.8866591507
    4      C       4.3231452109    -3.2775973546     0.9908896339
    5      C       3.4182761391    -5.5116096168     0.9935683162
    6      C       3.1550502580    -4.1188353376     1.0670594233
    7      C       1.7621619310    -3.6046581547     1.0411377494
    8      C       0.7079368896    -4.3325429665     0.4721155506
    9      C       1.3400270493    -2.4597196404     1.7795163381
   10      N      -0.6410759147    -4.0290982371     0.4655011685
   11      N       2.1251536768    -1.5398111040     2.4398234361
   12      C       0.0201851844    -2.0507801935     1.6950179342
   13      C      -0.9873152470    -2.8791196125     1.0542553512
   14      S       1.0850825092    -0.4617442803     3.0066213629
   15      N      -0.3165129271    -0.9006046615     2.3335910524
   16      C      -2.3588356191    -2.3797358817     0.8735739788
   17      S      -2.9230272288    -0.7465129522     0.9305098216
   18      C      -3.4896670081    -3.2021263351     0.9192282405
   19      C      -4.5600509321    -1.2532767711     1.2173282774
   20      S      -3.4732067421    -4.9453163479     1.0314184325
   21      C      -4.6448620685    -2.5756294368     1.0840372473
   22      C      -5.5688747289    -0.3296928276     1.5101597071
   23      C      -5.2296392572    -4.8478869819     1.2800252277
   24      C      -5.6613920083    -3.5100023496     1.3453419380
   25      N      -6.6597999187    -0.7419236627     2.0958191380
   26      S      -5.3978182828     1.3843021898     1.1277230814
   27      C      -7.5551424141     0.2992209486     2.1675318583
   28      C      -7.0424595690     1.5335182546     1.8532605413
   29      C       7.1346281798    -5.9656112107     0.5029890034
   30      H       6.4277549803    -3.1456271435     0.9029204234
   31      H       4.2838287323    -2.2001841134     1.1186116843
   32      H       2.6007554455    -6.2310172791     0.9966555384
   33      H       0.8988345218    -5.2765158606    -0.0343489290
   34      H      -5.7791651354    -5.7470128267     1.5256184370
   35      H      -6.6548086566    -3.2619645366     1.7005596266
   36      H      -8.5095487778     0.1667908270     2.6598201435
   37      H      -7.5699336067     2.4752919311     1.7804630018
   38      H       7.9238527827    -5.7617699842     1.2364590305
   39      C       7.6551103370    -5.6589405225    -0.9218592036
   40      H       7.0241065693    -7.0552856648     0.5661994273
   41      H       7.6514518145    -4.5662790706    -1.0160853504
   42      H       6.9298362168    -5.9785915745    -1.6795040119
   43      C       9.0896447499    -6.2145036209    -1.2910524617
   44      H       9.8674999523    -5.8152422759    -0.6288405149
   45      C       9.4418099536    -5.9821676232    -2.8287977766
   46      H       9.1201890532    -7.3089966477    -1.2220810200
   47      H       9.5932072668    -4.9177016661    -3.0450431919
   48      H       8.5441293631    -6.2630820861    -3.3935372050
   49      C      10.6289384767    -6.7784200190    -3.3408895574
   50      H      11.4619630238    -6.4773437694    -2.6942349388
   51      C      11.0159757248    -6.3813754337    -4.7817069524
   52      H      10.5804059109    -7.8688838599    -3.2263592038
   53      H      10.2451445974    -6.5745931604    -5.5373088866
   54      H      12.0398561585    -6.6762929122    -5.0409858338
   55      H      11.0547434304    -5.2896074275    -4.8799601239
   56      C      -5.5247045322     0.7847686104    -2.6427167294
   57      C      -4.3108744759     0.0893294718    -2.6984482190
   58      N      -5.5568224789     2.0572934766    -2.1986109959
   59      C      -3.1177070329     0.6936813842    -2.3886317914
   60      C      -4.4020866540     2.6546258737    -1.7597258379
   61      C      -3.1348643863     2.0103431718    -1.8240183286
   62      C      -1.8453147250     2.6666967366    -1.4867192489
   63      C      -0.7518443214     1.9443208939    -1.0267696666
   64      C      -1.6353961796     4.0163163511    -1.6656999751
   65      N       0.4685986784     2.4388143331    -0.7275437937
   66      N      -2.5612240387     4.9217612563    -2.0976192953
   67      C      -0.4043708842     4.6311391229    -1.3926822445
   68      C       0.6673540473     3.7646797173    -0.8738424142
   69      S      -1.7955911405     6.3415869152    -2.1325386822
   70      N      -0.3638150730     5.9534998809    -1.4591897783
   71      C       1.9832527746     4.2935381288    -0.3451361439
   72      S       2.6273839432     5.9184274768    -0.3835502607
   73      C       2.8478319311     3.5342388145     0.4642021249
   74      C       4.1390511969     5.4740912818     0.3580220284
   75      S       2.7101681234     1.9057978356     1.1444481497
   76      C       3.9723310447     4.2391034056     0.8623863180
   77      C       5.1935147200     6.3740857397     0.5454590954
   78      C       4.3259804908     2.1326414868     1.8052713873
   79      C       4.8704376432     3.4400429039     1.6739513816
   80      N       4.8677700677     7.6095157349     0.3063479320
   81      S       6.8338726683     6.0739866568     1.1129556521
   82      C       5.8887668971     8.4226998494     0.7400449119
   83      C       6.9673458822     7.8030176085     1.1988676373
   84      C      -6.6888798152     0.2376230259    -3.3083995515
   85      H      -4.2964245783    -0.9001175866    -3.1466521002
   86      H      -2.1218780669     0.2768618239    -2.5066662123
   87      H      -4.5195743175     3.6420788650    -1.3154261204
   88      H      -0.9649567724     0.9307183764    -0.6912759713
   89      H       4.8131139562     1.2551147062     2.2086108675
   90      H       5.8375649503     3.8115609735     1.9922092893
   91      H       5.7162318025     9.4870848657     0.6573576809
   92      H       7.8426078502     8.1538065366     1.7294462038
   93      H      -7.3259701277     0.9838307684    -3.8000863816
   94      C      -7.5473966877    -0.7775976936    -2.5568739895
   95      H      -6.2720416650    -0.3801638971    -4.1142477222
   96      H      -8.3647236683    -1.0246177791    -3.2448265200
   97      H      -7.9180913814    -0.2285857332    -1.6817092557
   98      C      -6.8335400582    -2.0811521566    -2.2010531437
   99      H      -6.2366327993    -2.3225339096    -3.0895043656
  100      C      -7.6701813470    -3.2864272067    -1.7105387122
  101      H      -6.1164269833    -1.9399562075    -1.3827686322
  102      H      -6.9305261469    -3.9636620257    -1.2643401186
  103      H      -8.0348830486    -3.7769953849    -2.6212908911
  104      C      -8.8503477278    -2.9295352307    -0.8063653709
  105      H      -8.4948389413    -2.2172070552    -0.0515971461
  106      C      -9.3203665695    -4.1752761287    -0.1056308253
  107      H      -9.6531501353    -2.3710252534    -1.3039725450
  108      H     -10.2799866303    -3.9281285268     0.3652198958
  109      H      -8.6592998990    -4.5892187154     0.6660060012
  110      H      -9.5430563947    -4.9697924547    -0.8285049841
 ----------------------------------------------------------------

   10   -5663.5038292948      4.51E-06 Convergence criterion met
 Total energy in the final basis set = -5663.5038292948

                    Orbital Energies (a.u.)
 --------------------------------------------------------------

 Alpha MOs
 -- Occupied --
-88.990 -88.988 -88.931 -88.924 -88.920 -88.919 -88.916 -88.906
-14.390 -14.388 -14.386 -14.382 -14.356 -14.354 -14.342 -14.339
-14.329 -14.326 -10.273 -10.267 -10.266 -10.262 -10.260 -10.258
-10.256 -10.254 -10.244 -10.242 -10.238 -10.237 -10.237 -10.233
-10.231 -10.231 -10.230 -10.230 -10.230 -10.228 -10.228 -10.227
-10.226 -10.226 -10.225 -10.225 -10.223 -10.222 -10.220 -10.216
-10.215 -10.211 -10.210 -10.205 -10.203 -10.196 -10.195 -10.195
-10.191 -10.187 -10.187 -10.181 -10.180 -10.178 -10.178 -10.173
-10.172 -10.170 -10.169 -10.166  -8.045  -8.044  -7.992  -7.985
 -7.980  -7.978  -7.975  -7.966  -6.010  -6.009  -6.005  -6.003
 -6.003  -6.002  -5.956  -5.953  -5.949  -5.949  -5.945  -5.944
 -5.943  -5.942  -5.941  -5.940  -5.939  -5.937  -5.936  -5.935
 -5.932  -5.930  -5.927  -5.922  -1.047  -1.047  -0.985  -0.971
 -0.959  -0.957  -0.932  -0.931  -0.929  -0.918  -0.911  -0.909
 -0.851  -0.846  -0.839  -0.836  -0.816  -0.811  -0.807  -0.806
 -0.800  -0.799  -0.795  -0.793  -0.786  -0.783  -0.771  -0.768
 -0.752  -0.752  -0.743  -0.742  -0.725  -0.721  -0.711  -0.708
 -0.699  -0.694  -0.677  -0.672  -0.655  -0.652  -0.648  -0.648
 -0.637  -0.634  -0.625  -0.623  -0.613  -0.613  -0.606  -0.597
 -0.595  -0.591  -0.587  -0.587  -0.582  -0.579  -0.577  -0.558
 -0.553  -0.549  -0.542  -0.536  -0.532  -0.526  -0.525  -0.508
 -0.506  -0.505  -0.500  -0.498  -0.489  -0.487  -0.482  -0.478
 -0.476  -0.473  -0.472  -0.469  -0.466  -0.464  -0.450  -0.447
 -0.444  -0.442  -0.440  -0.439  -0.437  -0.436  -0.433  -0.431
 -0.430  -0.428  -0.425  -0.423  -0.418  -0.416  -0.415  -0.413
 -0.412  -0.409  -0.405  -0.401  -0.399  -0.399  -0.398  -0.396
 -0.395  -0.394  -0.391  -0.390  -0.389  -0.389  -0.387  -0.384
 -0.383  -0.376  -0.374  -0.371  -0.368  -0.363  -0.362  -0.358
 -0.356  -0.356  -0.353  -0.349  -0.347  -0.347  -0.345  -0.343
 -0.340  -0.338  -0.336  -0.334  -0.331  -0.330  -0.323  -0.320
 -0.317  -0.315  -0.315  -0.309  -0.307  -0.303  -0.302  -0.300
 -0.297  -0.296  -0.294  -0.289  -0.289  -0.287  -0.283  -0.281
 -0.278  -0.275  -0.269  -0.266  -0.259  -0.255  -0.250  -0.245
 -0.244  -0.242  -0.234  -0.231  -0.197  -0.194

          Ground-State Mulliken Net Atomic Charges

     Atom                 Charge (a.u.)
  ----------------------------------------
      1 C                     0.271904
      2 C                    -0.117692
      3 N                    -0.486423
      4 C                    -0.082393
      5 C                     0.072699
      6 C                     0.038191
      7 C                     0.043255
      8 C                     0.030233
      9 C                     0.222931
     10 N                    -0.497686
     11 N                    -0.545321
     12 C                     0.157849
     13 C                     0.279087
     14 S                     0.634167
     15 N                    -0.531463
     16 C                    -0.204729
     17 S                     0.336088
     18 C                    -0.151897
     19 C                    -0.250206
     20 S                     0.274264
     21 C                     0.219924
     22 C                     0.070739
     23 C                    -0.308189
     24 C                    -0.078407
     25 N                    -0.439219
     26 S                     0.263388
     27 C                     0.119032
     28 C                    -0.298265
     29 C                    -0.225186
     30 H                     0.088415
     31 H                     0.119511
     32 H                     0.106708
     33 H                     0.113529
     34 H                     0.130581
     35 H                     0.131646
     36 H                     0.112445
     37 H                     0.131254
     38 H                     0.103072
     39 C                    -0.181003
     40 H                     0.120119
     41 H                     0.093692
     42 H                     0.105459
     43 C                    -0.187630
     44 H                     0.092688
     45 C                    -0.173861
     46 H                     0.098142
     47 H                     0.092223
     48 H                     0.092191
     49 C                    -0.174049
     50 H                     0.093513
     51 C                    -0.324693
     52 H                     0.095865
     53 H                     0.104985
     54 H                     0.102062
     55 H                     0.098671
     56 C                     0.321611
     57 C                    -0.115971
     58 N                    -0.500014
     59 C                    -0.068627
     60 C                     0.077232
     61 C                     0.027788
     62 C                     0.064176
     63 C                     0.034495
     64 C                     0.223258
     65 N                    -0.527647
     66 N                    -0.546470
     67 C                     0.204242
     68 C                     0.296978
     69 S                     0.603800
     70 N                    -0.548115
     71 C                    -0.236462
     72 S                     0.353162
     73 C                    -0.116920
     74 C                    -0.228330
     75 S                     0.303959
     76 C                     0.127116
     77 C                     0.081362
     78 C                    -0.327544
     79 C                    -0.068634
     80 N                    -0.434039
     81 S                     0.262232
     82 C                     0.133162
     83 C                    -0.307543
     84 C                    -0.255656
     85 H                     0.093118
     86 H                     0.103905
     87 H                     0.117270
     88 H                     0.115286
     89 H                     0.131911
     90 H                     0.107790
     91 H                     0.114647
     92 H                     0.137539
     93 H                     0.116550
     94 C                    -0.167730
     95 H                     0.099867
     96 H                     0.092654
     97 H                     0.109053
     98 C                    -0.196798
     99 H                     0.077068
    100 C                    -0.178191
    101 H                     0.102790
    102 H                     0.103189
    103 H                     0.084043
    104 C                    -0.175977
    105 H                     0.103090
    106 C                    -0.317561
    107 H                     0.096704
    108 H                     0.091039
    109 H                     0.104098
    110 H                     0.099835
  ----------------------------------------
  Sum of atomic charges =     0.000000

                    Cartesian Multipole Moments
 -----------------------------------------------------------------
    Charge (ESU x 10^10)
                 0.0000
    Dipole Moment (Debye)
         X       2.4333      Y       2.1697      Z       0.9054
       Tot       3.3836
    Quadrupole Moments (Debye-Ang)
        XX    -399.3140     XY      16.8384     YY    -444.3053
        XZ       6.6671     YZ      12.0926     ZZ    -445.5507

 Total job time:  100.59s(wall), 1212.19s(cpu)
        *  Thank you very much for using Q-Chem.  Have a nice day.  *
