 Q-Chem 4.4, Q-Chem, Inc., Pleasanton, CA (2016)
 Q-Chem 4.4.2 for Intel X86 Linux

User input:
--------------------------------------------------------------
$comment
SP
$end

$rem
MEM_STATIC 5000
MEM_TOTAL 20000
JOBTYPE SP
EXCHANGE B3LYP
BASIS 6-31g(d,p)
$end

$molecule
0 1
C         -13.164000     -4.447000     -4.014000
C         -12.779000     -5.563000     -3.286000
N         -14.152000     -3.652000     -3.603000
C         -13.284000     -5.716000     -1.971000
C         -14.667000     -3.827000     -2.361000
C         -14.197000     -4.790000     -1.457000
C         -14.555000     -4.689000     -0.012000
C         -13.549000     -5.033000      0.920000
C         -15.719000     -4.169000      0.593000
N         -13.649000     -4.976000      2.254000
N         -16.829000     -3.839000     -0.077000
C         -15.805000     -4.085000      1.965000
C         -14.767000     -4.570000      2.838000
S         -17.886000     -3.397000      1.046000
N         -17.051000     -3.806000      2.411000
C         -14.816000     -4.707000      4.324000
S         -16.192000     -4.324000      5.313000
C         -13.827000     -5.207000      5.179000
C         -15.369000     -4.818000      6.843000
S         -12.359000     -6.056000      4.803000
C         -14.163000     -5.316000      6.578000
C         -15.877000     -4.403000      8.119000
C         -12.004000     -6.164000      6.567000
C         -13.059000     -5.778000      7.334000
N         -15.203000     -4.702000      9.198000
S         -17.231000     -3.343000      8.299000
C         -15.876000     -4.287000     10.362000
C         -16.966000     -3.521000     10.050000
C         -12.728000     -4.086000     -5.429000
H         -12.052000     -6.204000     -3.776000
H         -12.928000     -6.598000     -1.447000
H         -15.423000     -3.138000     -1.988000
H         -12.566000     -5.346000      0.573000
H         -10.984000     -6.359000      6.868000
H         -13.000000     -5.768000      8.416000
H         -15.471000     -4.474000     11.348000
H         -17.604000     -2.982000     10.738000
H         -13.681000     -3.886000     -5.933000
C         -11.921000     -5.152000     -6.208000
H         -12.075000     -3.206000     -5.377000
H         -12.404000     -6.137000     -6.241000
H         -10.973000     -5.267000     -5.668000
C         -11.646000     -4.710000     -7.683000
H         -12.598000     -4.657000     -8.225000
C         -10.577000     -5.424000     -8.518000
H         -11.350000     -3.654000     -7.662000
H          -9.636000     -5.514000     -7.961000
H         -10.302000     -4.830000     -9.398000
C         -11.059000     -6.784000     -9.026000
H         -11.440000     -7.476000     -8.264000
C          -9.926000     -7.385000     -9.880000
H         -11.872000     -6.537000     -9.720000
H         -10.173000     -8.401000    -10.210000
H          -8.902000     -7.282000     -9.500000
H          -9.906000     -6.706000    -10.742000
C         -31.592000     -5.122000      0.279000
C         -30.819000     -6.008000     -0.481000
N         -31.054000     -3.973000      0.735000
C         -29.533000     -5.706000     -0.855000
C         -29.733000     -3.695000      0.489000
C         -28.908000     -4.540000     -0.305000
C         -27.516000     -4.211000     -0.707000
C         -26.576000     -5.198000     -0.974000
C         -27.090000     -2.915000     -0.898000
N         -25.302000     -5.005000     -1.378000
N         -27.832000     -1.788000     -0.691000
C         -25.790000     -2.603000     -1.323000
C         -24.874000     -3.736000     -1.537000
S         -26.862000     -0.555000     -1.068000
N         -25.449000     -1.323000     -1.328000
C         -23.393000     -3.571000     -1.802000
S         -22.470000     -2.117000     -2.103000
C         -22.464000     -4.617000     -1.654000
C         -20.971000     -2.967000     -2.354000
S         -22.640000     -6.290000     -1.103000
C         -21.161000     -4.222000     -1.911000
C         -19.785000     -2.331000     -2.736000
C         -20.925000     -6.497000     -1.442000
C         -20.214000     -5.313000     -1.782000
N         -19.854000     -1.034000     -2.685000
S         -18.236000     -3.033000     -3.195000
C         -18.588000     -0.522000     -2.849000
C         -17.634000     -1.407000     -3.103000
C         -33.027000     -5.307000      0.345000
H         -31.300000     -6.880000     -0.915000
H         -28.897000     -6.271000     -1.530000
H         -29.338000     -2.805000      0.977000
H         -26.835000     -6.199000     -0.633000
H         -20.546000     -7.510000     -1.427000
H         -19.167000     -5.195000     -2.036000
H         -18.495000      0.552000     -2.763000
H         -16.555000     -1.332000     -3.131000
H         -33.608000     -4.376000      0.333000
C         -33.590000     -6.268000      1.390000
H         -33.274000     -5.828000     -0.589000
H         -34.678000     -6.224000      1.261000
H         -33.287000     -5.835000      2.352000
C         -33.163000     -7.725000      1.216000
H         -33.210000     -7.901000      0.134000
C         -33.895000     -8.824000      2.022000
H         -32.115000     -7.877000      1.503000
H         -33.237000     -9.699000      1.943000
H         -34.797000     -9.057000      1.443000
C         -34.282000     -8.431000      3.448000
H         -33.412000     -7.953000      3.915000
C         -34.617000     -9.677000      4.222000
H         -35.049000     -7.649000      3.513000
H         -35.082000     -9.349000      5.160000
H         -33.783000    -10.345000      4.471000
H         -35.384000    -10.265000      3.703000
$end

--------------------------------------------------------------

             Standard Nuclear Orientation (Angstroms)
    I     Atom           X                Y                Z
 ----------------------------------------------------------------
    1      C      -7.1949856049    -3.8956415591    -0.3608159694
    2      C      -7.5018182291    -3.0937067875    -1.4500447621
    3      N      -6.2114096588    -3.5815695063     0.4824082617
    4      C      -6.9182930247    -1.8045543199    -1.5224550589
    5      C      -5.6213409338    -2.3647354709     0.3846952634
    6      C      -6.0079354348    -1.3896928102    -0.5455313227
    7      C      -5.5719105478     0.0254647103    -0.3622242306
    8      C      -6.5117437159     1.0299582101    -0.6888776020
    9      C      -4.3928216694     0.5359242259     0.2213008328
   10      N      -6.3380509746     2.3515840706    -0.5626202594
   11      N      -3.3338822654    -0.2127076450     0.5500829195
   12      C      -4.2318125636     1.8949616038     0.3759923759
   13      C      -5.2023779342     2.8492572740    -0.0953043834
   14      S      -2.2296358069     0.8242543268     1.0783741538
   15      N      -2.9721507025     2.2536638024     0.7134204843
   16      C      -5.0646860022     4.3347345496    -0.1566574229
   17      S      -3.6478254628     5.2223161705     0.3154559939
   18      C      -5.9868940389     5.2689453521    -0.6423821531
   19      C      -4.3662545362     6.8196352667    -0.1257881238
   20      S      -7.4457155535     5.0203456021    -1.5519089272
   21      C      -5.5686581831     6.6495971911    -0.6716612984
   22      C      -3.8002774118     8.0424586966     0.3669975841
   23      C      -7.6963118368     6.8051869711    -1.5823685786
   24      C      -6.6124681144     7.4899701178    -1.1277645450
   25      N      -4.4019245760     9.1720194703     0.1023635947
   26      S      -2.4731497120     8.0921347697     1.4740569122
   27      C      -3.6776591369    10.2735445239     0.5944328280
   28      C      -2.6324176435     9.8621271756     1.3757176583
   29      C      -7.7220475605    -5.2985152016    -0.0837000402
   30      H      -8.2344060474    -3.5091598659    -2.1357734462
   31      H      -7.2153211172    -1.2189601803    -2.3873769143
   32      H      -4.8680071437    -2.0699429289     1.1133732156
   33      H      -7.5022487061     0.7562746823    -1.0475755124
   34      H      -8.6907513858     7.1741457746    -1.7920955077
   35      H      -6.6102281441     8.5718400121    -1.0656556555
   36      H      -4.0197749988    11.2893140215     0.4449033505
   37      H      -1.9741060946    10.4850991764     1.9668528296
   38      H      -6.8061527818    -5.8662288638     0.1189399166
   39      C      -8.5371610456    -5.9770786535    -1.2104598407
   40      H      -8.3990952045    -5.2508414354     0.7781855089
   41      H      -8.0252836873    -5.9908567730    -2.1812300162
   42      H      -9.4487650259    -5.3778394634    -1.3263027346
   43      C      -8.9095871189    -7.4530541900    -0.8507251667
   44      H      -7.9921047319    -8.0515446720    -0.7967602477
   45      C     -10.0006787086    -8.1890822246    -1.6365774906
   46      H      -9.2378359669    -7.4655505744     0.1958356458
   47      H     -10.9051390179    -7.5744996821    -1.7264098193
   48      H     -10.3442247579    -9.0790529948    -1.0954775550
   49      C      -9.5046701865    -8.6584448450    -3.0053953297
   50      H      -9.0588884576    -7.8876118397    -3.6470838274
   51      C     -10.6643500641    -9.4151122539    -3.6812673691
   52      H      -8.7407813674    -9.4097112899    -2.7694152437
   53      H     -10.4038324827    -9.7097974265    -4.7047204647
   54      H     -11.6679107437    -8.9814506360    -3.5896782668
   55      H     -10.7551610810   -10.3060790665    -3.0469043043
   56      C      11.4592123688    -0.6566993086    -0.2782989653
   57      C      10.6732972062    -1.3269394117    -1.2234130122
   58      N      10.9111789827    -0.2257953130     0.8756343752
   59      C       9.3590622562    -1.6394050572    -0.9784074685
   60      C       9.5700610674    -0.4074341419     1.1020213732
   61      C       8.7290034586    -1.1105141019     0.1946148113
   62      C       7.3065337560    -1.4460169380     0.4620597443
   63      C       6.3852268720    -1.6100816330    -0.5642610638
   64      C       6.8287810391    -1.6738507242     1.7338368897
   65      N       5.0847799050    -1.9479288351    -0.4292130943
   66      N       7.5445865100    -1.5647933047     2.8911056601
   67      C       5.4973575008    -2.0368346965     1.9858745801
   68      C       4.6077196277    -2.1424413311     0.8171433477
   69      S       6.5154667253    -1.9433610920     4.0747090140
   70      N       5.1155007842    -2.0833863100     3.2534409079
   71      C       3.1095105429    -2.3282749140     0.9250619174
   72      S       2.1244749092    -2.6444080006     2.3344627376
   73      C       2.2246478589    -2.0763335594    -0.1391770522
   74      C       0.6418494241    -2.7665095972     1.4292473648
   75      S       2.4855397041    -1.4568576676    -1.7767640161
   76      C       0.8970917777    -2.2756065466     0.2039965595
   77      C      -0.5838301841    -3.1088144770     2.0102403658
   78      C       0.7616314514    -1.6849826821    -2.0507974335
   79      C      -0.0053593303    -2.0394015705    -0.9066429892
   80      N      -0.5539310008    -3.1242416857     3.3096398579
   81      S      -2.1329347090    -3.4425119991     1.2409503459
   82      C      -1.8430606213    -3.2385533145     3.7753368335
   83      C      -2.7808906262    -3.3937353128     2.8510801433
   84      C      12.9008656302    -0.6656560676    -0.4174451125
   85      H      11.1567637026    -1.7458803238    -2.1013934556
   86      H       8.7043235086    -2.2482826896    -1.5947930631
   87      H       9.1748963367     0.0594754434     2.0031924307
   88      H       6.6953346656    -1.2371021696    -1.5389828068
   89      H       0.4169779823    -1.5993061971    -3.0725158517
   90      H      -1.0683538416    -2.2373090996    -0.8323174968
   91      H      -1.9656328945    -3.1989325796     4.8490813260
   92      H      -3.8615969438    -3.3623586573     2.8927857856
   93      H      13.4499040328    -0.7561798541     0.5285085209
   94      C      13.5530073637     0.3896725231    -1.3082356183
   95      H      13.1111158983    -1.5863780343    -0.9767946318
   96      H      14.6299402200     0.1955071860    -1.2386910645
   97      H      13.2913059360     1.3458031233    -0.8369940263
   98      C      13.1640510373     0.3109998284    -2.7840328887
   99      H      13.1551928826    -0.7622021213    -3.0122172621
  100      C      13.9757141443     1.1247838501    -3.8195132442
  101      H      12.1394888863     0.6655666616    -2.9523532961
  102      H      13.3428661754     1.1263677809    -4.7163582361
  103      H      14.8504305369     0.5060423645    -4.0543838608
  104      C      14.4301765431     2.5052883769    -3.3447868182
  105      H      13.5731271698     2.9987236496    -2.8699594776
  106      C      14.8486133454     3.3173620220    -4.5403051315
  107      H      15.1739976446     2.4878548542    -2.5382731845
  108      H      15.3552975686     4.2098332824    -4.1524660573
  109      H      14.0520860547     3.6463322704    -5.2193514118
  110      H      15.6034793018     2.7833595725    -5.1305701327
 ----------------------------------------------------------------

   10   -5663.5264064553      3.45E-06 Convergence criterion met
 Total energy in the final basis set = -5663.5264064553

                    Orbital Energies (a.u.)
 --------------------------------------------------------------

 Alpha MOs
 -- Occupied --
-88.990 -88.984 -88.926 -88.922 -88.920 -88.914 -88.911 -88.905
-14.390 -14.385 -14.384 -14.379 -14.351 -14.348 -14.340 -14.335
-14.332 -14.325 -10.270 -10.269 -10.266 -10.259 -10.258 -10.258
-10.255 -10.250 -10.246 -10.240 -10.239 -10.238 -10.236 -10.234
-10.234 -10.231 -10.230 -10.230 -10.228 -10.228 -10.226 -10.225
-10.224 -10.224 -10.223 -10.221 -10.220 -10.219 -10.219 -10.217
-10.212 -10.209 -10.208 -10.205 -10.204 -10.200 -10.196 -10.194
-10.190 -10.189 -10.182 -10.181 -10.181 -10.180 -10.179 -10.178
-10.177 -10.176 -10.173 -10.170  -8.045  -8.040  -7.987  -7.983
 -7.980  -7.974  -7.970  -7.965  -6.010  -6.005  -6.005  -6.003
 -6.000  -5.998  -5.951  -5.948  -5.947  -5.944  -5.944  -5.944
 -5.940  -5.940  -5.938  -5.937  -5.934  -5.934  -5.931  -5.930
 -5.929  -5.926  -5.925  -5.921  -1.048  -1.043  -0.978  -0.968
 -0.966  -0.955  -0.946  -0.929  -0.913  -0.913  -0.909  -0.907
 -0.843  -0.841  -0.840  -0.836  -0.814  -0.811  -0.809  -0.808
 -0.803  -0.802  -0.800  -0.795  -0.790  -0.789  -0.771  -0.768
 -0.754  -0.749  -0.745  -0.740  -0.723  -0.717  -0.713  -0.711
 -0.697  -0.695  -0.677  -0.673  -0.658  -0.655  -0.652  -0.645
 -0.637  -0.632  -0.631  -0.623  -0.614  -0.613  -0.602  -0.601
 -0.592  -0.592  -0.588  -0.585  -0.584  -0.576  -0.570  -0.556
 -0.554  -0.544  -0.543  -0.538  -0.526  -0.526  -0.520  -0.513
 -0.508  -0.504  -0.501  -0.493  -0.488  -0.487  -0.481  -0.480
 -0.476  -0.473  -0.473  -0.469  -0.466  -0.466  -0.461  -0.451
 -0.444  -0.441  -0.440  -0.439  -0.437  -0.436  -0.434  -0.431
 -0.428  -0.427  -0.426  -0.425  -0.423  -0.420  -0.418  -0.413
 -0.413  -0.410  -0.408  -0.406  -0.401  -0.400  -0.398  -0.395
 -0.393  -0.392  -0.390  -0.389  -0.388  -0.387  -0.387  -0.385
 -0.384  -0.379  -0.377  -0.375  -0.370  -0.363  -0.359  -0.358
 -0.357  -0.354  -0.352  -0.349  -0.348  -0.347  -0.344  -0.341
 -0.339  -0.334  -0.334  -0.333  -0.329  -0.329  -0.327  -0.320
 -0.318  -0.317  -0.313  -0.309  -0.307  -0.303  -0.303  -0.302
 -0.300  -0.295  -0.291  -0.289  -0.288  -0.280  -0.280  -0.278
 -0.277  -0.275  -0.273  -0.263  -0.255  -0.254  -0.253  -0.247
 -0.243  -0.238  -0.236  -0.228  -0.198  -0.191

          Ground-State Mulliken Net Atomic Charges

     Atom                 Charge (a.u.)
  ----------------------------------------
      1 C                     0.261597
      2 C                    -0.113658
      3 N                    -0.506225
      4 C                    -0.108628
      5 C                     0.087300
      6 C                     0.056329
      7 C                     0.051277
      8 C                     0.049340
      9 C                     0.226831
     10 N                    -0.521366
     11 N                    -0.553349
     12 C                     0.172854
     13 C                     0.330066
     14 S                     0.616727
     15 N                    -0.542782
     16 C                    -0.208700
     17 S                     0.305369
     18 C                    -0.131158
     19 C                    -0.269153
     20 S                     0.264359
     21 C                     0.180228
     22 C                     0.090005
     23 C                    -0.316897
     24 C                    -0.024789
     25 N                    -0.457460
     26 S                     0.267495
     27 C                     0.128157
     28 C                    -0.308833
     29 C                    -0.212228
     30 H                     0.095556
     31 H                     0.107498
     32 H                     0.111855
     33 H                     0.110455
     34 H                     0.132615
     35 H                     0.130204
     36 H                     0.122523
     37 H                     0.128178
     38 H                     0.128805
     39 C                    -0.192195
     40 H                     0.121630
     41 H                     0.098448
     42 H                     0.093151
     43 C                    -0.183029
     44 H                     0.091870
     45 C                    -0.174768
     46 H                     0.084468
     47 H                     0.089634
     48 H                     0.092492
     49 C                    -0.173995
     50 H                     0.094006
     51 C                    -0.317069
     52 H                     0.098996
     53 H                     0.098325
     54 H                     0.102629
     55 H                     0.100754
     56 C                     0.319541
     57 C                    -0.121276
     58 N                    -0.506191
     59 C                    -0.072072
     60 C                     0.084743
     61 C                     0.024793
     62 C                     0.062477
     63 C                     0.033694
     64 C                     0.222598
     65 N                    -0.525025
     66 N                    -0.547357
     67 C                     0.204371
     68 C                     0.296477
     69 S                     0.601562
     70 N                    -0.547635
     71 C                    -0.235408
     72 S                     0.348576
     73 C                    -0.105480
     74 C                    -0.228107
     75 S                     0.290336
     76 C                     0.125075
     77 C                     0.069132
     78 C                    -0.318452
     79 C                    -0.079353
     80 N                    -0.438009
     81 S                     0.289828
     82 C                     0.126771
     83 C                    -0.317656
     84 C                    -0.253925
     85 H                     0.086887
     86 H                     0.101238
     87 H                     0.119936
     88 H                     0.113439
     89 H                     0.128905
     90 H                     0.117544
     91 H                     0.111697
     92 H                     0.151912
     93 H                     0.118294
     94 C                    -0.166769
     95 H                     0.099181
     96 H                     0.093883
     97 H                     0.107477
     98 C                    -0.190001
     99 H                     0.079162
    100 C                    -0.175866
    101 H                     0.095566
    102 H                     0.093972
    103 H                     0.089862
    104 C                    -0.169129
    105 H                     0.095609
    106 C                    -0.317206
    107 H                     0.102076
    108 H                     0.094512
    109 H                     0.106646
    110 H                     0.101402
  ----------------------------------------
  Sum of atomic charges =     0.000000

                    Cartesian Multipole Moments
 -----------------------------------------------------------------
    Charge (ESU x 10^10)
                 0.0000
    Dipole Moment (Debye)
         X      -2.7070      Y       0.9271      Z      -2.0583
       Tot       3.5248
    Quadrupole Moments (Debye-Ang)
        XX    -412.7558     XY       6.0052     YY    -414.2243
        XZ     -10.7276     YZ      13.5844     ZZ    -438.4747

 Total job time:  89.48s(wall), 1047.38s(cpu)
        *  Thank you very much for using Q-Chem.  Have a nice day.  *
