 Q-Chem 4.4, Q-Chem, Inc., Pleasanton, CA (2016)
 Q-Chem 4.4.2 for Intel X86 Linux

User input:
--------------------------------------------------------------
$comment
SP
$end

$rem
MEM_STATIC 5000
MEM_TOTAL 20000
JOBTYPE SP
EXCHANGE B3LYP
BASIS 6-31g(d,p)
$end

$molecule
0 1
C         -23.938000     10.143000     -8.290000
C         -24.241000      8.801000     -8.661000
N         -23.958000     10.645000     -7.013000
C         -24.624000      7.938000     -7.600000
C         -24.299000      9.835000     -6.027000
C         -24.637000      8.392000     -6.227000
C         -24.915000      7.522000     -5.018000
C         -25.601000      8.003000     -3.884000
C         -24.479000      6.186000     -4.922000
N         -25.976000      7.235000     -2.875000
N         -23.737000      5.597000     -5.854000
C         -24.824000      5.419000     -3.823000
C         -25.613000      5.944000     -2.762000
S         -23.475000      4.085000     -5.362000
N         -24.249000      4.186000     -3.864000
C         -25.916000      5.210000     -1.511000
S         -25.356000      3.572000     -1.065000
C         -26.500000      5.804000     -0.408000
C         -26.004000      3.721000      0.619000
S         -27.376000      7.340000     -0.248000
C         -26.614000      4.916000      0.717000
C         -26.149000      2.703000      1.551000
C         -27.875000      6.778000      1.404000
C         -27.405000      5.511000      1.716000
N         -25.893000      1.507000      0.980000
S         -25.898000      2.968000      3.272000
C         -25.653000      0.678000      2.043000
C         -25.774000      1.245000      3.291000
C         -23.658000     11.111000     -9.364000
H         -24.237000      8.566000     -9.721000
H         -24.822000      6.914000     -7.905000
H         -24.269000     10.220000     -5.009000
H         -25.992000      9.018000     -3.825000
H         -28.339000      7.382000      2.173000
H         -27.612000      5.101000      2.698000
H         -25.559000     -0.392000      1.916000
H         -25.787000      0.825000      4.288000
H         -23.380000     12.044000     -8.859000
C         -24.848000     11.289000    -10.316000
H         -22.857000     10.769000    -10.031000
H         -25.808000     11.352000     -9.790000
H         -25.015000     10.409000    -10.949000
C         -24.590000     12.446000    -11.358000
H         -24.398000     13.296000    -10.691000
C         -25.777000     12.632000    -12.314000
H         -23.684000     12.248000    -11.945000
H         -26.743000     12.851000    -11.842000
H         -26.028000     11.765000    -12.937000
C         -25.436000     13.863000    -13.184000
H         -26.325000     14.130000    -13.769000
C         -24.355000     13.654000    -14.255000
H         -25.078000     14.680000    -12.546000
H         -23.349000     13.782000    -13.837000
H         -24.467000     14.458000    -14.993000
H         -24.417000     12.722000    -14.830000
C         -31.592000     -5.122000      0.279000
C         -30.819000     -6.008000     -0.481000
N         -31.054000     -3.973000      0.735000
C         -29.533000     -5.706000     -0.855000
C         -29.733000     -3.695000      0.489000
C         -28.908000     -4.540000     -0.305000
C         -27.516000     -4.211000     -0.707000
C         -26.576000     -5.198000     -0.974000
C         -27.090000     -2.915000     -0.898000
N         -25.302000     -5.005000     -1.378000
N         -27.832000     -1.788000     -0.691000
C         -25.790000     -2.603000     -1.323000
C         -24.874000     -3.736000     -1.537000
S         -26.862000     -0.555000     -1.068000
N         -25.449000     -1.323000     -1.328000
C         -23.393000     -3.571000     -1.802000
S         -22.470000     -2.117000     -2.103000
C         -22.464000     -4.617000     -1.654000
C         -20.971000     -2.967000     -2.354000
S         -22.640000     -6.290000     -1.103000
C         -21.161000     -4.222000     -1.911000
C         -19.785000     -2.331000     -2.736000
C         -20.925000     -6.497000     -1.442000
C         -20.214000     -5.313000     -1.782000
N         -19.854000     -1.034000     -2.685000
S         -18.236000     -3.033000     -3.195000
C         -18.588000     -0.522000     -2.849000
C         -17.634000     -1.407000     -3.103000
C         -33.027000     -5.307000      0.345000
H         -31.300000     -6.880000     -0.915000
H         -28.897000     -6.271000     -1.530000
H         -29.338000     -2.805000      0.977000
H         -26.835000     -6.199000     -0.633000
H         -20.546000     -7.510000     -1.427000
H         -19.167000     -5.195000     -2.036000
H         -18.495000      0.552000     -2.763000
H         -16.555000     -1.332000     -3.131000
H         -33.608000     -4.376000      0.333000
C         -33.590000     -6.268000      1.390000
H         -33.274000     -5.828000     -0.589000
H         -34.678000     -6.224000      1.261000
H         -33.287000     -5.835000      2.352000
C         -33.163000     -7.725000      1.216000
H         -33.210000     -7.901000      0.134000
C         -33.895000     -8.824000      2.022000
H         -32.115000     -7.877000      1.503000
H         -33.237000     -9.699000      1.943000
H         -34.797000     -9.057000      1.443000
C         -34.282000     -8.431000      3.448000
H         -33.412000     -7.953000      3.915000
C         -34.617000     -9.677000      4.222000
H         -35.049000     -7.649000      3.513000
H         -35.082000     -9.349000      5.160000
H         -33.783000    -10.345000      4.471000
H         -35.384000    -10.265000      3.703000
$end

--------------------------------------------------------------

             Standard Nuclear Orientation (Angstroms)
    I     Atom           X                Y                Z
 ----------------------------------------------------------------
    1      C     -10.7263612595    -0.3645768578    -1.0159599758
    2      C      -9.6953140195    -0.0745328569    -1.9557631820
    3      N     -10.5390586995    -0.8448686538     0.2557988621
    4      C      -8.3701146692    -0.3450666611    -1.5223613561
    5      C      -9.3040347836    -1.0798664676     0.6608531236
    6      C      -8.0977117085    -0.8229004579    -0.1848691170
    7      C      -6.7191464340    -1.0283488878     0.4094487498
    8      C      -6.4347894711    -2.0733452638     1.3122425755
    9      C      -5.6338659441    -0.1734439909     0.1346545078
   10      N      -5.2169673743    -2.3593519056     1.7407744195
   11      N      -5.7423442326     0.9166590425    -0.6176863972
   12      C      -4.3805655095    -0.4524525690     0.6508978942
   13      C      -4.1456684042    -1.5905696042     1.4714952157
   14      S      -4.2798074466     1.5898626648    -0.6857674711
   15      N      -3.4790569014     0.5216003408     0.3490731792
   16      C      -2.8571534729    -1.8768844596     2.1447849567
   17      S      -1.3754307754    -0.8780340183     2.0962499828
   18      C      -2.7062671477    -2.8632418164     3.1012542357
   19      C      -0.5545868775    -1.8903426856     3.3529947688
   20      S      -3.7419441753    -4.2454517394     3.5125215740
   21      C      -1.3888188014    -2.8950157476     3.6761327204
   22      C       0.7881134918    -1.8608917565     3.7026536899
   23      C      -2.3648155417    -4.8597523316     4.5225218260
   24      C      -1.2426019433    -4.0464701214     4.4701607144
   25      N       1.4757435834    -1.0725215300     2.8496412380
   26      S       1.3289199317    -2.1080835530     5.3583987217
   27      C       2.6350341488    -0.7909302692     3.5216246804
   28      C       2.7755862303    -1.3797863353     4.7573947422
   29      C     -12.1242404745    -0.2223426329    -1.4570984184
   30      H     -10.0024920085     0.2473308446    -2.9461602947
   31      H      -7.6011982356    -0.0888214591    -2.2461782629
   32      H      -9.1519827567    -1.4156294921     1.6853492790
   33      H      -7.1830841584    -2.8061013224     1.6117598864
   34      H      -2.4084769321    -5.6672915218     5.2418598129
   35      H      -0.3792767585    -4.3030549848     5.0735733702
   36      H       3.4633934856    -0.2926464636     3.0364452720
   37      H       3.6116179506    -1.4602017373     5.4394228397
   38      H     -12.7380025486    -0.4174002036    -0.5693784961
   39      C     -12.4666298932    -1.1553770907    -2.6259885700
   40      H     -12.3292777365     0.7739425457    -1.8679871676
   41      H     -12.0564754492    -2.1643212497    -2.4992999120
   42      H     -11.9836277842    -0.8505459328    -3.5623458350
   43      C     -14.0050638393    -1.1081586568    -2.9752283345
   44      H     -14.4518593257    -1.3870238385    -2.0124921278
   45      C     -14.3568297467    -2.0404706249    -4.1433705092
   46      H     -14.3175966900    -0.0861397248    -3.2250473089
   47      H     -14.1037751835    -3.0990914528    -4.0048557778
   48      H     -13.8615062863    -1.8186753232    -5.0964080288
   49      C     -15.8944407125    -1.9825523053    -4.2880770609
   50      H     -16.2039289983    -2.7556354953    -5.0024959732
   51      C     -16.4674635110    -0.6912297000    -4.8909151831
   52      H     -16.3637811580    -2.0926558415    -3.3030421593
   53      H     -16.5994845769     0.0825855791    -4.1248053006
   54      H     -17.4786649513    -0.9194241924    -5.2500849490
   55      H     -15.9358040259    -0.2852790979    -5.7601880404
   56      C       8.0395811021    -3.6989862053    -2.3399024160
   57      C       8.2588985744    -2.5118110473    -3.0488734948
   58      N       7.1611873458    -3.7252639782    -1.3174959961
   59      C       7.5387743757    -1.3721827064    -2.7889804721
   60      C       6.5148351950    -2.5734844231    -0.9453753790
   61      C       6.6715423679    -1.3464269331    -1.6488373738
   62      C       5.8916192581    -0.1142450799    -1.3643082480
   63      C       6.3952258467     1.1520004440    -1.6327494464
   64      C       4.6041147649    -0.1523377546    -0.8759905970
   65      N       5.7561167570     2.3265896322    -1.4445452741
   66      N       3.9089755109    -1.2762361466    -0.5336810555
   67      C       3.8480369525     1.0076264114    -0.6506054265
   68      C       4.5064060831     2.2929727499    -0.9386607648
   69      S       2.4657708125    -0.7574730850    -0.0323198239
   70      N       2.6817671880     0.8572303542    -0.0407678559
   71      C       3.9116355379     3.6346602605    -0.5686153318
   72      S       2.3272110161     4.0145275002     0.0653766357
   73      C       4.6659922535     4.8206836508    -0.5106889719
   74      C       2.5981850872     5.7347231652     0.0639885803
   75      S       6.3905846850     5.1417378696    -0.7477778452
   76      C       3.9188897184     5.9164638490    -0.1094576679
   77      C       1.6123872620     6.6652575014     0.4094223612
   78      C       6.0249746359     6.8457530392    -0.4994703871
   79      C       4.6984519345     7.1391885986    -0.0785070930
   80      N       0.5491886813     6.1246994907     0.9261203535
   81      S       1.6471341427     8.4233719379     0.3059222041
   82      C      -0.2448008282     7.1243295048     1.4380934911
   83      C       0.1751829524     8.3636939682     1.2249119938
   84      C       8.5461563487    -4.9479057950    -2.8703620073
   85      H       8.8996439716    -2.5383937700    -3.9257085391
   86      H       7.5560691530    -0.4434676445    -3.3515951045
   87      H       5.9036109322    -2.6432494610    -0.0465946827
   88      H       7.4665341821     1.2022627708    -1.8201931688
   89      H       6.8095582176     7.5505977949    -0.7395900943
   90      H       4.2449998318     8.1019080983     0.1269225918
   91      H      -1.1375455966     6.8031754115     1.9571193352
   92      H      -0.1408858850     9.3210795112     1.6175484822
   93      H       7.8774588686    -5.8070318562    -2.7317543203
   94      C       9.9869031063    -5.3428296612    -2.5528735504
   95      H       8.5979021913    -4.7784450613    -3.9536031750
   96      H      10.1288184673    -6.3165908594    -3.0365781702
   97      H      10.0109515457    -5.4360247759    -1.4594942278
   98      C      11.0481467819    -4.3930200966    -3.1070194267
   99      H      10.6915905716    -4.1337752815    -4.1117924332
  100      C      12.5295425814    -4.8388084350    -3.1065269648
  101      H      11.0823594516    -3.4514849492    -2.5447756545
  102      H      13.0901241312    -3.9099685431    -3.2733645548
  103      H      12.6509435165    -5.4450610367    -4.0125366755
  104      C      12.9619354326    -5.6454353893    -1.8817480546
  105      H      12.5858231134    -5.1316742433    -0.9884048909
  106      C      14.4651357168    -5.6713538261    -1.8222994204
  107      H      12.4978828969    -6.6365381523    -1.8016945894
  108      H      14.7370674843    -6.4177276884    -1.0655747865
  109      H      14.9673422690    -4.7297540682    -1.5674279335
  110      H      14.8871442641    -6.0406874218    -2.7651119580
 ----------------------------------------------------------------

    9   -5663.4941637046      9.13E-06 Convergence criterion met
 Total energy in the final basis set = -5663.4941637046

                    Orbital Energies (a.u.)
 --------------------------------------------------------------

 Alpha MOs
 -- Occupied --
-88.986 -88.977 -88.935 -88.925 -88.918 -88.913 -88.912 -88.909
-14.383 -14.377 -14.377 -14.372 -14.352 -14.348 -14.347 -14.336
-14.332 -14.324 -10.265 -10.265 -10.264 -10.262 -10.250 -10.249
-10.249 -10.244 -10.242 -10.237 -10.237 -10.234 -10.232 -10.232
-10.231 -10.230 -10.229 -10.228 -10.227 -10.227 -10.226 -10.225
-10.224 -10.223 -10.222 -10.222 -10.222 -10.222 -10.216 -10.214
-10.211 -10.206 -10.204 -10.204 -10.201 -10.200 -10.198 -10.192
-10.183 -10.182 -10.180 -10.179 -10.179 -10.178 -10.178 -10.177
-10.177 -10.176 -10.170 -10.170  -8.041  -8.032  -7.997  -7.987
 -7.976  -7.972  -7.971  -7.968  -6.006  -6.001  -5.999  -5.998
 -5.992  -5.990  -5.961  -5.957  -5.954  -5.951  -5.948  -5.944
 -5.941  -5.937  -5.936  -5.936  -5.933  -5.932  -5.932  -5.932
 -5.929  -5.929  -5.927  -5.924  -1.036  -1.034  -0.979  -0.977
 -0.961  -0.952  -0.934  -0.928  -0.911  -0.905  -0.901  -0.897
 -0.839  -0.833  -0.832  -0.827  -0.821  -0.813  -0.810  -0.810
 -0.807  -0.799  -0.793  -0.793  -0.788  -0.788  -0.767  -0.766
 -0.749  -0.745  -0.739  -0.738  -0.715  -0.715  -0.710  -0.709
 -0.694  -0.690  -0.676  -0.670  -0.656  -0.653  -0.642  -0.640
 -0.634  -0.629  -0.624  -0.621  -0.612  -0.609  -0.602  -0.600
 -0.594  -0.591  -0.583  -0.581  -0.575  -0.575  -0.567  -0.556
 -0.548  -0.543  -0.538  -0.536  -0.527  -0.525  -0.518  -0.518
 -0.502  -0.501  -0.496  -0.491  -0.489  -0.485  -0.480  -0.472
 -0.471  -0.470  -0.468  -0.467  -0.463  -0.462  -0.451  -0.446
 -0.443  -0.441  -0.439  -0.436  -0.436  -0.434  -0.434  -0.431
 -0.428  -0.425  -0.422  -0.422  -0.417  -0.417  -0.412  -0.411
 -0.408  -0.406  -0.405  -0.403  -0.398  -0.395  -0.393  -0.392
 -0.391  -0.389  -0.388  -0.387  -0.386  -0.385  -0.385  -0.380
 -0.379  -0.377  -0.376  -0.372  -0.363  -0.361  -0.358  -0.356
 -0.356  -0.354  -0.350  -0.348  -0.342  -0.340  -0.340  -0.337
 -0.335  -0.333  -0.332  -0.332  -0.327  -0.326  -0.324  -0.319
 -0.317  -0.311  -0.309  -0.306  -0.305  -0.303  -0.302  -0.300
 -0.299  -0.297  -0.294  -0.291  -0.286  -0.283  -0.283  -0.277
 -0.274  -0.267  -0.264  -0.260  -0.253  -0.253  -0.253  -0.246
 -0.240  -0.236  -0.226  -0.226  -0.194  -0.190

          Ground-State Mulliken Net Atomic Charges

     Atom                 Charge (a.u.)
  ----------------------------------------
      1 C                     0.274592
      2 C                    -0.102301
      3 N                    -0.481583
      4 C                    -0.073307
      5 C                     0.090788
      6 C                     0.013145
      7 C                     0.025342
      8 C                     0.057375
      9 C                     0.243638
     10 N                    -0.529670
     11 N                    -0.549591
     12 C                     0.206380
     13 C                     0.330289
     14 S                     0.600207
     15 N                    -0.581174
     16 C                    -0.219605
     17 S                     0.348827
     18 C                    -0.126996
     19 C                    -0.234063
     20 S                     0.286197
     21 C                     0.169663
     22 C                     0.044964
     23 C                    -0.307442
     24 C                    -0.083153
     25 N                    -0.429762
     26 S                     0.298670
     27 C                     0.131275
     28 C                    -0.304373
     29 C                    -0.235483
     30 H                     0.099673
     31 H                     0.108643
     32 H                     0.104334
     33 H                     0.115926
     34 H                     0.125124
     35 H                     0.106242
     36 H                     0.114321
     37 H                     0.136516
     38 H                     0.116938
     39 C                    -0.192812
     40 H                     0.106478
     41 H                     0.102445
     42 H                     0.087791
     43 C                    -0.174536
     44 H                     0.100586
     45 C                    -0.173315
     46 H                     0.100679
     47 H                     0.093453
     48 H                     0.090337
     49 C                    -0.175550
     50 H                     0.085316
     51 C                    -0.320274
     52 H                     0.098138
     53 H                     0.101725
     54 H                     0.099985
     55 H                     0.099848
     56 C                     0.319426
     57 C                    -0.121994
     58 N                    -0.506570
     59 C                    -0.071503
     60 C                     0.085343
     61 C                     0.024161
     62 C                     0.062529
     63 C                     0.031021
     64 C                     0.216165
     65 N                    -0.525933
     66 N                    -0.552834
     67 C                     0.197308
     68 C                     0.293561
     69 S                     0.647227
     70 N                    -0.558709
     71 C                    -0.236371
     72 S                     0.352804
     73 C                    -0.105980
     74 C                    -0.230228
     75 S                     0.288174
     76 C                     0.130173
     77 C                     0.080900
     78 C                    -0.317555
     79 C                    -0.071585
     80 N                    -0.434084
     81 S                     0.259006
     82 C                     0.132327
     83 C                    -0.308611
     84 C                    -0.253710
     85 H                     0.086160
     86 H                     0.101098
     87 H                     0.118503
     88 H                     0.110712
     89 H                     0.127355
     90 H                     0.105535
     91 H                     0.113104
     92 H                     0.135277
     93 H                     0.118091
     94 C                    -0.167025
     95 H                     0.099032
     96 H                     0.093687
     97 H                     0.106972
     98 C                    -0.189796
     99 H                     0.079376
    100 C                    -0.175804
    101 H                     0.095398
    102 H                     0.093864
    103 H                     0.089830
    104 C                    -0.169395
    105 H                     0.095400
    106 C                    -0.317365
    107 H                     0.102230
    108 H                     0.094350
    109 H                     0.106601
    110 H                     0.101492
  ----------------------------------------
  Sum of atomic charges =     0.000000

                    Cartesian Multipole Moments
 -----------------------------------------------------------------
    Charge (ESU x 10^10)
                 0.0000
    Dipole Moment (Debye)
         X       1.1636      Y       1.6901      Z      -0.0825
       Tot       2.0536
    Quadrupole Moments (Debye-Ang)
        XX    -421.8539     XY      -4.5842     YY    -414.1202
        XZ      16.8650     YZ      -2.1750     ZZ    -415.2623

 Total job time:  80.66s(wall), 943.95s(cpu)
        *  Thank you very much for using Q-Chem.  Have a nice day.  *
