 Q-Chem 4.4, Q-Chem, Inc., Pleasanton, CA (2016)
 Q-Chem 4.4.2 for Intel X86 Linux

User input:
--------------------------------------------------------------
$comment
SP
$end

$rem
MEM_STATIC 5000
MEM_TOTAL 20000
JOBTYPE SP
EXCHANGE B3LYP
BASIS 6-31g(d,p)
$end

$molecule
0 1
C         -22.175000     -3.012000      2.327000
C         -23.515000     -3.374000      2.043000
N         -21.467000     -3.793000      3.218000
C         -24.115000     -4.453000      2.659000
C         -22.129000     -4.743000      3.934000
C         -23.426000     -5.197000      3.605000
C         -24.106000     -6.317000      4.277000
C         -25.538000     -6.293000      4.479000
C         -23.550000     -7.624000      4.527000
N         -26.210000     -7.420000      4.816000
N         -22.230000     -7.899000      4.486000
C         -24.294000     -8.734000      4.840000
C         -25.672000     -8.614000      4.877000
S         -22.091000     -9.454000      4.869000
N         -23.607000     -9.855000      5.079000
C         -26.623000     -9.762000      5.144000
S         -28.271000     -9.705000      5.794000
C         -26.332000    -11.103000      4.655000
C         -28.433000    -11.470000      5.743000
S         -25.359000    -11.663000      3.316000
C         -27.474000    -11.925000      4.831000
C         -29.707000    -12.111000      6.140000
C         -26.191000    -13.234000      3.391000
C         -27.323000    -13.180000      4.184000
N         -29.904000    -13.398000      6.099000
S         -30.982000    -11.102000      6.617000
C         -31.145000    -13.772000      6.504000
C         -31.868000    -12.638000      6.823000
C         -21.442000     -2.003000      1.412000
H         -24.148000     -2.880000      1.312000
H         -25.142000     -4.671000      2.378000
H         -21.576000     -5.188000      4.760000
H         -26.294000     -5.523000      4.326000
H         -25.924000    -14.051000      2.734000
H         -28.002000    -14.018000      4.292000
H         -31.367000    -14.831000      6.522000
H         -32.871000    -12.503000      7.204000
H         -20.523000     -1.709000      1.934000
C         -22.317000     -0.753000      1.050000
H         -21.212000     -2.387000      0.410000
H         -22.654000     -0.368000      2.021000
H         -23.172000     -1.034000      0.423000
C         -21.577000      0.376000      0.386000
H         -20.786000      0.629000      1.102000
C         -22.428000      1.552000      0.003000
H         -21.103000     -0.031000     -0.516000
H         -23.049000      1.933000      0.822000
H         -23.158000      1.215000     -0.744000
C         -21.788000      2.726000     -0.732000
H         -22.394000      3.630000     -0.596000
C         -21.687000      2.398000     -2.203000
H         -20.829000      2.903000     -0.229000
H         -21.196000      1.423000     -2.307000
H         -21.138000      3.120000     -2.820000
H         -22.668000      2.193000     -2.650000
C         -31.592000     -5.122000      0.279000
C         -30.819000     -6.008000     -0.481000
N         -31.054000     -3.973000      0.735000
C         -29.533000     -5.706000     -0.855000
C         -29.733000     -3.695000      0.489000
C         -28.908000     -4.540000     -0.305000
C         -27.516000     -4.211000     -0.707000
C         -26.576000     -5.198000     -0.974000
C         -27.090000     -2.915000     -0.898000
N         -25.302000     -5.005000     -1.378000
N         -27.832000     -1.788000     -0.691000
C         -25.790000     -2.603000     -1.323000
C         -24.874000     -3.736000     -1.537000
S         -26.862000     -0.555000     -1.068000
N         -25.449000     -1.323000     -1.328000
C         -23.393000     -3.571000     -1.802000
S         -22.470000     -2.117000     -2.103000
C         -22.464000     -4.617000     -1.654000
C         -20.971000     -2.967000     -2.354000
S         -22.640000     -6.290000     -1.103000
C         -21.161000     -4.222000     -1.911000
C         -19.785000     -2.331000     -2.736000
C         -20.925000     -6.497000     -1.442000
C         -20.214000     -5.313000     -1.782000
N         -19.854000     -1.034000     -2.685000
S         -18.236000     -3.033000     -3.195000
C         -18.588000     -0.522000     -2.849000
C         -17.634000     -1.407000     -3.103000
C         -33.027000     -5.307000      0.345000
H         -31.300000     -6.880000     -0.915000
H         -28.897000     -6.271000     -1.530000
H         -29.338000     -2.805000      0.977000
H         -26.835000     -6.199000     -0.633000
H         -20.546000     -7.510000     -1.427000
H         -19.167000     -5.195000     -2.036000
H         -18.495000      0.552000     -2.763000
H         -16.555000     -1.332000     -3.131000
H         -33.608000     -4.376000      0.333000
C         -33.590000     -6.268000      1.390000
H         -33.274000     -5.828000     -0.589000
H         -34.678000     -6.224000      1.261000
H         -33.287000     -5.835000      2.352000
C         -33.163000     -7.725000      1.216000
H         -33.210000     -7.901000      0.134000
C         -33.895000     -8.824000      2.022000
H         -32.115000     -7.877000      1.503000
H         -33.237000     -9.699000      1.943000
H         -34.797000     -9.057000      1.443000
C         -34.282000     -8.431000      3.448000
H         -33.412000     -7.953000      3.915000
C         -34.617000     -9.677000      4.222000
H         -35.049000     -7.649000      3.513000
H         -35.082000     -9.349000      5.160000
H         -33.783000    -10.345000      4.471000
H         -35.384000    -10.265000      3.703000
$end

--------------------------------------------------------------

             Standard Nuclear Orientation (Angstroms)
    I     Atom           X                Y                Z
 ----------------------------------------------------------------
    1      C       3.6059136899    -1.5348264978     2.2520553225
    2      C       2.6631776725    -0.5666883800     1.8263119889
    3      N       3.1483440580    -2.8065964405     2.5319432375
    4      C       1.3202245421    -0.8661928213     1.7239841851
    5      C       1.8062097046    -3.0283187808     2.5859300984
    6      C       0.8505327581    -2.1242055603     2.0703461008
    7      C      -0.5934035711    -2.4020835466     1.9915063787
    8      C      -1.5578290853    -1.3418687556     2.1860109406
    9      C      -1.2033566292    -3.5898762856     1.4465378694
   10      N      -2.8536634310    -1.5085652263     1.8278103890
   11      N      -0.5419809613    -4.7477423221     1.2424926111
   12      C      -2.5224080376    -3.6829273271     1.0790465285
   13      C      -3.3183965001    -2.5567500932     1.1920960984
   14      S      -1.6304577905    -5.7827909602     0.6698430593
   15      N      -2.9256616448    -4.8750527104     0.6296529385
   16      C      -4.7705459092    -2.4903963746     0.7672981726
   17      S      -6.0454636455    -1.4061726995     1.3509905472
   18      C      -5.2416480865    -3.2210647103    -0.4015771508
   19      C      -7.2657971927    -2.1552491710     0.3051700686
   20      S      -4.4084608317    -3.7829020841    -1.8310482991
   21      C      -6.5615847872    -2.8071424995    -0.7134417202
   22      C      -8.6481514730    -1.6261000484     0.2794047907
   23      C      -5.9756460369    -3.9546922036    -2.6558565723
   24      C      -6.9945030438    -3.3275748370    -1.9617073029
   25      N      -9.5853833236    -2.1091896783    -0.4855003457
   26      S      -8.9987744009    -0.2890170742     1.2594597292
   27      C     -10.7779732799    -1.4734760377    -0.3529131535
   28      C     -10.6346487797    -0.4481130953     0.5628023722
   29      C       5.1181070187    -1.2669177721     2.0674171597
   30      H       2.9111871881     0.4431616516     1.5136137418
   31      H       0.6640733386    -0.0711995412     1.3795059091
   32      H       1.4982609152    -3.9850254548     3.0054415797
   33      H      -1.4625198146    -0.3046380492     2.5068124440
   34      H      -6.0485840761    -4.3403891499    -3.6639959019
   35      H      -8.0067645533    -3.2596497902    -2.3433639868
   36      H     -11.6092387980    -1.8427776912    -0.9391749782
   37      H     -11.3392456306     0.2678624860     0.9631987317
   38      H       5.6500180336    -2.0258981842     2.6543587295
   39      C       5.5420773945     0.1821663339     2.4911781468
   40      H       5.4543788312    -1.2796490924     1.0228506555
   41      H       5.1535458951     0.2903631414     3.5119483094
   42      H       5.1046752204     0.9355553118     1.8246952992
   43      C       7.0256401103     0.4147455362     2.5810980157
   44      H       7.3658799935    -0.3348737367     3.3054278906
   45      C       7.4259171745     1.8151309524     2.9451927260
   46      H       7.4547592147     0.1632334801     1.6030757870
   47      H       6.9251016977     2.1985215871     3.8417185089
   48      H       7.0829407877     2.4856316297     2.1468982691
   49      C       8.9076753101     2.1744370482     3.0034418204
   50      H       9.0556313918     3.0577631641     3.6365231508
   51      C       9.4066393874     2.4604527935     1.6067114087
   52      H       9.3971432518     1.3317225380     3.5076961098
   53      H       9.1270918298     1.6196193223     0.9606663355
   54      H      10.4873106540     2.6193530320     1.5053490504
   55      H       8.8606845521     3.2859767425     1.1327509382
   56      C      -2.7154680561     5.5076130725    -0.5355010839
   57      C      -2.4728448997     4.7280434427    -1.6728357736
   58      N      -1.8382885445     5.5039502223     0.4882780368
   59      C      -1.3125084246     4.0094244165    -1.8214357726
   60      C      -0.7281227594     4.6995421697     0.4308270631
   61      C      -0.4116333356     3.9123195958    -0.7116269026
   62      C       0.8444625053     3.1345141925    -0.8689513856
   63      C       0.9083402122     1.9949808050    -1.6604318323
   64      C       2.0322463836     3.5266871976    -0.2919394337
   65      N       2.0039063775     1.2413611317    -1.8956618588
   66      N       2.2085856623     4.6038277408     0.5279475761
   67      C       3.2302420467     2.8205950378    -0.4768968690
   68      C       3.1613602424     1.6067304052    -1.3077572368
   69      S       3.7760376766     4.6053976278     0.9105828048
   70      N       4.2728093563     3.2040242481     0.2447273031
   71      C       4.3063293165     0.6266756508    -1.4468597091
   72      S       5.9540381616     0.7495690369    -0.8753714962
   73      C       4.1422733511    -0.6840259159    -1.9308101646
   74      C       6.4472908751    -0.7639269410    -1.5814406752
   75      S       2.7074207405    -1.5929496100    -2.4293697942
   76      C       5.3217922972    -1.4110870751    -1.9304545890
   77      C       7.7650492346    -1.2321381616    -1.5452860228
   78      C       3.7898909663    -2.9179497913    -2.8436495666
   79      C       5.1481927210    -2.7518185833    -2.4558432166
   80      N       8.5388515330    -0.5393609798    -0.7637101920
   81      S       8.4768490236    -2.6346621306    -2.3384780404
   82      C       9.7300638907    -1.2117628946    -0.6198881356
   83      C       9.8629198302    -2.3152683046    -1.3427173749
   84      C      -3.7570480203     6.5133961237    -0.5718002840
   85      H      -3.1450286736     4.8194935307    -2.5213090233
   86      H      -0.9848850282     3.4690516722    -2.7046153735
   87      H      -0.1215982835     4.6650327606     1.3348216211
   88      H      -0.0507816059     1.5673750303    -1.9478368418
   89      H       3.3636246964    -3.7333397567    -3.4123949151
   90      H       5.9878887787    -3.4199133575    -2.6081879027
   91      H      10.4449385534    -0.7714373900     0.0617192783
   92      H      10.5950906871    -3.1118251796    -1.3341744610
   93      H      -3.5108358621     7.4442850009    -0.0452155600
   94      C      -5.1897162732     6.0897761744    -0.2547469516
   95      H      -3.8361584735     6.7800974449    -1.6335996726
   96      H      -5.7812898090     7.0103782807    -0.3244141150
   97      H      -5.1450459795     5.7245347622     0.7793445703
   98      C      -5.7901012032     5.0800991031    -1.2322663363
   99      H      -5.4563206611     5.4184968156    -2.2211983552
  100      C      -7.3118632220     4.8051723472    -1.1884869234
  101      H      -5.3629337534     4.0790228069    -1.0938784070
  102      H      -7.4338265114     3.8752467535    -1.7587441865
  103      H      -7.7686050602     5.6023395163    -1.7876908934
  104      C      -7.9268710384     4.7922330567     0.2112601826
  105      H      -7.2821485934     4.1847070347     0.8583444905
  106      C      -9.2826492744     4.1435969191     0.1408788233
  107      H      -7.9267262868     5.7654207565     0.7181563060
  108      H      -9.7731523858     4.3350327121     1.1033818284
  109      H      -9.3057455442     3.0623163149    -0.0437283741
  110      H      -9.9115449369     4.6335360405    -0.6126753573
 ----------------------------------------------------------------

   10   -5663.4793259504      3.24E-06 Convergence criterion met
 Total energy in the final basis set = -5663.4793259504

                    Orbital Energies (a.u.)
 --------------------------------------------------------------

 Alpha MOs
 -- Occupied --
-88.992 -88.986 -88.933 -88.926 -88.925 -88.923 -88.915 -88.909
-14.393 -14.386 -14.378 -14.375 -14.358 -14.345 -14.337 -14.335
-14.329 -14.327 -10.276 -10.270 -10.265 -10.262 -10.257 -10.254
-10.253 -10.248 -10.246 -10.245 -10.242 -10.240 -10.239 -10.234
-10.233 -10.233 -10.232 -10.232 -10.232 -10.232 -10.230 -10.229
-10.228 -10.228 -10.227 -10.226 -10.223 -10.223 -10.217 -10.212
-10.209 -10.209 -10.209 -10.207 -10.201 -10.197 -10.196 -10.190
-10.182 -10.182 -10.181 -10.179 -10.178 -10.177 -10.171 -10.170
-10.169 -10.163 -10.163 -10.161  -8.048  -8.043  -7.994  -7.987
 -7.985  -7.981  -7.974  -7.970  -6.013  -6.008  -6.007  -6.005
 -6.002  -6.001  -5.958  -5.955  -5.951  -5.951  -5.949  -5.948
 -5.946  -5.946  -5.944  -5.942  -5.941  -5.938  -5.938  -5.935
 -5.934  -5.931  -5.930  -5.926  -1.053  -1.051  -0.987  -0.976
 -0.962  -0.958  -0.933  -0.923  -0.920  -0.914  -0.910  -0.902
 -0.846  -0.843  -0.842  -0.828  -0.818  -0.816  -0.811  -0.809
 -0.806  -0.804  -0.801  -0.791  -0.787  -0.779  -0.774  -0.764
 -0.754  -0.747  -0.745  -0.739  -0.723  -0.720  -0.715  -0.705
 -0.701  -0.686  -0.680  -0.671  -0.659  -0.652  -0.649  -0.644
 -0.637  -0.630  -0.628  -0.619  -0.617  -0.608  -0.607  -0.599
 -0.598  -0.589  -0.588  -0.582  -0.577  -0.571  -0.558  -0.557
 -0.551  -0.549  -0.545  -0.538  -0.534  -0.528  -0.521  -0.512
 -0.508  -0.506  -0.500  -0.499  -0.492  -0.485  -0.482  -0.480
 -0.477  -0.476  -0.475  -0.469  -0.466  -0.459  -0.451  -0.445
 -0.445  -0.443  -0.440  -0.439  -0.438  -0.436  -0.435  -0.431
 -0.431  -0.427  -0.427  -0.421  -0.420  -0.418  -0.416  -0.414
 -0.409  -0.408  -0.406  -0.402  -0.400  -0.399  -0.397  -0.396
 -0.394  -0.392  -0.391  -0.390  -0.390  -0.386  -0.385  -0.384
 -0.380  -0.379  -0.373  -0.370  -0.367  -0.363  -0.362  -0.361
 -0.357  -0.355  -0.352  -0.350  -0.346  -0.345  -0.342  -0.341
 -0.339  -0.336  -0.334  -0.330  -0.327  -0.322  -0.321  -0.320
 -0.314  -0.311  -0.311  -0.308  -0.304  -0.302  -0.300  -0.299
 -0.298  -0.295  -0.292  -0.291  -0.289  -0.285  -0.283  -0.281
 -0.275  -0.269  -0.266  -0.260  -0.258  -0.252  -0.251  -0.245
 -0.242  -0.240  -0.233  -0.228  -0.198  -0.191

          Ground-State Mulliken Net Atomic Charges

     Atom                 Charge (a.u.)
  ----------------------------------------
      1 C                     0.257847
      2 C                    -0.103353
      3 N                    -0.483913
      4 C                    -0.073326
      5 C                     0.076236
      6 C                     0.057712
      7 C                     0.004571
      8 C                     0.036710
      9 C                     0.237160
     10 N                    -0.514783
     11 N                    -0.537130
     12 C                     0.200944
     13 C                     0.286211
     14 S                     0.608261
     15 N                    -0.532306
     16 C                    -0.201278
     17 S                     0.311424
     18 C                    -0.112775
     19 C                    -0.194915
     20 S                     0.260452
     21 C                     0.070919
     22 C                     0.076592
     23 C                    -0.307652
     24 C                    -0.032359
     25 N                    -0.438919
     26 S                     0.268824
     27 C                     0.139290
     28 C                    -0.326797
     29 C                    -0.231182
     30 H                     0.081765
     31 H                     0.096317
     32 H                     0.116036
     33 H                     0.124419
     34 H                     0.130540
     35 H                     0.125454
     36 H                     0.124522
     37 H                     0.123989
     38 H                     0.111157
     39 C                    -0.191475
     40 H                     0.128402
     41 H                     0.088169
     42 H                     0.107632
     43 C                    -0.176150
     44 H                     0.081868
     45 C                    -0.183237
     46 H                     0.113719
     47 H                     0.078113
     48 H                     0.094629
     49 C                    -0.165535
     50 H                     0.087519
     51 C                    -0.339573
     52 H                     0.086667
     53 H                     0.129519
     54 H                     0.089369
     55 H                     0.102439
     56 C                     0.320732
     57 C                    -0.119460
     58 N                    -0.504870
     59 C                    -0.070697
     60 C                     0.084617
     61 C                     0.024375
     62 C                     0.059818
     63 C                     0.030760
     64 C                     0.221137
     65 N                    -0.521809
     66 N                    -0.543050
     67 C                     0.207650
     68 C                     0.292262
     69 S                     0.608872
     70 N                    -0.557846
     71 C                    -0.235042
     72 S                     0.350656
     73 C                    -0.103648
     74 C                    -0.239492
     75 S                     0.301612
     76 C                     0.128535
     77 C                     0.093049
     78 C                    -0.313896
     79 C                    -0.068214
     80 N                    -0.444201
     81 S                     0.270412
     82 C                     0.134590
     83 C                    -0.308185
     84 C                    -0.255044
     85 H                     0.089031
     86 H                     0.102188
     87 H                     0.119094
     88 H                     0.117874
     89 H                     0.131091
     90 H                     0.108154
     91 H                     0.118254
     92 H                     0.140005
     93 H                     0.118853
     94 C                    -0.166646
     95 H                     0.099790
     96 H                     0.094289
     97 H                     0.108409
     98 C                    -0.191209
     99 H                     0.078638
    100 C                    -0.176039
    101 H                     0.098282
    102 H                     0.096503
    103 H                     0.089244
    104 C                    -0.169391
    105 H                     0.097576
    106 C                    -0.323576
    107 H                     0.101750
    108 H                     0.092022
    109 H                     0.112231
    110 H                     0.101224
  ----------------------------------------
  Sum of atomic charges =     0.000000

                    Cartesian Multipole Moments
 -----------------------------------------------------------------
    Charge (ESU x 10^10)
                 0.0000
    Dipole Moment (Debye)
         X      -0.4036      Y       0.0804      Z      -3.6538
       Tot       3.6769
    Quadrupole Moments (Debye-Ang)
        XX    -393.4284     XY     -23.9009     YY    -439.2142
        XZ       2.9073     YZ       9.9298     ZZ    -443.5326

 Total job time:  98.61s(wall), 1191.19s(cpu)
        *  Thank you very much for using Q-Chem.  Have a nice day.  *
