 Q-Chem 4.4, Q-Chem, Inc., Pleasanton, CA (2016)
 Q-Chem 4.4.2 for Intel X86 Linux

User input:
--------------------------------------------------------------
$comment
SP
$end

$rem
MEM_STATIC 5000
MEM_TOTAL 20000
JOBTYPE SP
EXCHANGE B3LYP
BASIS 6-31g(d,p)
$end

$molecule
0 1
C         -28.122000     -0.960000     -4.819000
C         -27.409000     -2.167000     -4.640000
N         -27.455000      0.247000     -4.897000
C         -26.003000     -2.221000     -4.853000
C         -26.106000      0.184000     -5.071000
C         -25.314000     -0.998000     -5.134000
C         -23.806000     -0.874000     -5.392000
C         -23.195000      0.325000     -5.184000
C         -22.930000     -1.922000     -5.845000
N         -21.936000      0.573000     -5.604000
N         -23.406000     -3.157000     -6.103000
C         -21.562000     -1.682000     -6.083000
C         -21.058000     -0.351000     -5.994000
S         -22.043000     -3.893000     -6.534000
N         -20.886000     -2.755000     -6.522000
C         -19.658000      0.025000     -6.223000
S         -18.273000     -1.092000     -6.412000
C         -19.244000      1.379000     -6.317000
C         -17.168000      0.283000     -6.370000
S         -20.131000      2.862000     -6.091000
C         -17.871000      1.487000     -6.421000
C         -15.727000      0.193000     -6.386000
C         -18.569000      3.657000     -6.336000
C         -17.503000      2.840000     -6.443000
N         -15.045000      1.117000     -6.991000
S         -14.816000     -1.067000     -5.698000
C         -13.679000      0.940000     -6.865000
C         -13.335000     -0.295000     -6.234000
C         -29.629000     -0.883000     -4.833000
H         -27.917000     -3.084000     -4.356000
H         -25.492000     -3.166000     -4.697000
H         -25.752000      1.213000     -5.100000
H         -23.828000      1.168000     -4.913000
H         -18.536000      4.730000     -6.466000
H         -16.472000      3.145000     -6.582000
H         -12.967000      1.696000     -7.168000
H         -12.368000     -0.642000     -5.895000
H         -29.908000      0.163000     -5.011000
C         -30.268000     -1.394000     -3.510000
H         -29.938000     -1.552000     -5.646000
H         -29.651000     -1.207000     -2.623000
H         -30.474000     -2.468000     -3.593000
C         -31.637000     -0.725000     -3.257000
H         -31.591000      0.360000     -3.103000
C         -32.231000     -1.452000     -1.976000
H         -32.378000     -0.768000     -4.065000
H         -31.359000     -1.734000     -1.373000
H         -32.781000     -2.385000     -2.151000
C         -33.025000     -0.543000     -1.026000
H         -32.386000      0.284000     -0.692000
C         -33.610000     -1.259000      0.144000
H         -33.807000     -0.074000     -1.636000
H         -34.275000     -0.577000      0.688000
H         -32.888000     -1.573000      0.907000
H         -34.335000     -2.047000     -0.092000
C         -15.335000     -4.107000    -10.876000
C         -15.530000     -3.312000     -9.750000
N         -16.238000     -4.304000    -11.820000
C         -16.807000     -2.777000     -9.520000
C         -17.466000     -3.797000    -11.609000
C         -17.808000     -3.138000    -10.497000
C         -19.203000     -2.747000    -10.215000
C         -19.560000     -1.537000     -9.676000
C         -20.308000     -3.623000    -10.461000
N         -20.826000     -1.115000     -9.453000
N         -20.242000     -4.905000    -10.917000
C         -21.634000     -3.244000    -10.256000
C         -21.868000     -1.893000     -9.812000
S         -21.695000     -5.547000    -11.011000
N         -22.578000     -4.217000    -10.529000
C         -23.235000     -1.473000     -9.406000
S         -24.721000     -2.502000     -9.328000
C         -23.595000     -0.179000     -9.064000
C         -25.709000     -1.134000     -8.785000
S         -22.620000      1.208000     -8.924000
C         -24.938000      0.003000     -8.785000
C         -27.153000     -1.171000     -8.638000
C         -24.100000      2.074000     -8.386000
C         -25.232000      1.378000     -8.441000
N         -27.654000     -2.403000     -8.880000
S         -28.281000      0.115000     -8.431000
C         -28.997000     -2.396000     -8.765000
C         -29.497000     -1.119000     -8.673000
C         -13.904000     -4.663000    -11.065000
H         -14.731000     -3.160000     -9.030000
H         -17.065000     -2.160000     -8.665000
H         -18.230000     -3.970000    -12.365000
H         -18.783000     -0.836000     -9.374000
H         -23.929000      3.110000     -8.123000
H         -26.206000      1.721000     -8.113000
H         -29.597000     -3.293000     -8.846000
H         -30.540000     -0.847000     -8.576000
H         -13.163000     -3.880000    -10.859000
C         -13.734000     -5.272000    -12.492000
H         -13.693000     -5.474000    -10.357000
H         -13.873000     -4.530000    -13.288000
H         -14.549000     -5.989000    -12.653000
C         -12.317000     -5.900000    -12.595000
H         -11.602000     -5.099000    -12.371000
C         -12.058000     -6.658000    -13.966000
H         -12.233000     -6.671000    -11.818000
H         -12.809000     -7.442000    -14.122000
H         -11.094000     -7.173000    -13.881000
C         -11.955000     -5.653000    -15.154000
H         -12.982000     -5.410000    -15.453000
C         -11.004000     -6.250000    -16.263000
H         -11.500000     -4.703000    -14.848000
H         -10.022000     -6.448000    -15.816000
H         -10.943000     -5.550000    -17.106000
H         -11.426000     -7.162000    -16.704000
$end

--------------------------------------------------------------

             Standard Nuclear Orientation (Angstroms)
    I     Atom           X                Y                Z
 ----------------------------------------------------------------
    1      C      -7.1481156247     0.1973876582    -0.6038363170
    2      C      -6.3684027253     0.5975319426    -1.7125253384
    3      N      -6.7120763776    -0.8071590318     0.2379342708
    4      C      -4.9999675504     0.2206334864    -1.8147688016
    5      C      -5.4088774446    -1.1809644063     0.1114902790
    6      C      -4.4689399189    -0.6723546963    -0.8298866969
    7      C      -3.0200842254    -1.1772535716    -0.7863171535
    8      C      -2.7430103178    -2.3387647855    -0.1318649018
    9      C      -1.8768387652    -0.5385648241    -1.3829372182
   10      N      -1.4790821953    -2.7236279026     0.1462557239
   11      N      -2.0061098317     0.6260523315    -2.0502608819
   12      C      -0.5821176508    -1.0779327575    -1.2471157611
   13      C      -0.3786698905    -2.2078546276    -0.4013122519
   14      S      -0.4803279808     0.8549731576    -2.5028213740
   15      N       0.3781226737    -0.3536383261    -1.8423989675
   16      C       0.9191519318    -2.8549952018    -0.1761798575
   17      S       2.4355279431    -2.5398118763    -1.0722257624
   18      C       1.1069731800    -3.8470629431     0.8208521256
   19      C       3.1959512096    -3.9033286423    -0.2500381410
   20      S      -0.0315562626    -4.6214954235     1.8890932227
   21      C       2.3768680274    -4.3878092211     0.7701615009
   22      C       4.5268196366    -4.3970443332    -0.5143694604
   23      C       1.3501830653    -5.5973054272     2.4091752032
   24      C       2.4955038048    -5.4075904292     1.7254043182
   25      N       5.2249715379    -4.8820126342     0.4666069255
   26      S       5.3006129378    -4.3670963546    -2.0280444737
   27      C       6.4477765898    -5.3805926974     0.0551136381
   28      C       6.7238394522    -5.1087814198    -1.3202517408
   29      C      -8.5253469384     0.7447651365    -0.3196078792
   30      H      -6.7867779623     1.2165331471    -2.5008201246
   31      H      -4.4385007185     0.5421733991    -2.6864620282
   32      H      -5.2465819016    -1.9776149043     0.8353729634
   33      H      -3.5617822711    -2.8204024020     0.3995640161
   34      H       1.2520350182    -6.2324176448     3.2788403294
   35      H       3.4352608941    -5.9217339260     1.8921978370
   36      H       7.0855376377    -5.9611789505     0.7081599216
   37      H       7.5306764606    -5.4766913559    -1.9399898474
   38      H      -8.8842598525     0.2802634940     0.6072474193
   39      C      -9.5274940709     0.4790029624    -1.4792813642
   40      H      -8.3843670050     1.8290375191    -0.2274717912
   41      H      -9.3369148257    -0.4561945725    -2.0191999896
   42      H      -9.5049645399     1.3195123194    -2.1834386200
   43      C     -10.9795422119     0.4110944755    -0.9570978395
   44      H     -11.1764868251    -0.4198214289    -0.2687312372
   45      C     -11.8889160948     0.2968832769    -2.2541409935
   46      H     -11.3369201647     1.2491667883    -0.3457797575
   47      H     -11.2801807133    -0.2466101040    -2.9873348152
   48      H     -12.1672580967     1.2383126375    -2.7438863243
   49      C     -13.1246764195    -0.6023597575    -2.1009242028
   50      H     -12.8086788439    -1.6111982825    -1.8073320323
   51      C     -13.9852378023    -0.6558678958    -3.3176213654
   52      H     -13.6799250470    -0.2125603152    -1.2387523194
   53      H     -14.9108253938    -1.1948264204    -3.0807747500
   54      H     -13.5687404848    -1.2226823450    -4.1586328783
   55      H     -14.4233548368     0.2978385546    -3.6350524136
   56      C       7.3132593439     1.1690991815    -0.7542947220
   57      C       6.5735547242    -0.0025709677    -0.8882803070
   58      N       6.8861728223     2.2593549348    -0.1424994169
   59      C       5.2361416822    -0.0034761820    -0.4626284119
   60      C       5.6052079849     2.2699497587     0.2680743707
   61      C       4.7597831754     1.2542196019     0.0647565406
   62      C       3.3190926685     1.3606943503     0.3672528071
   63      C       2.5878569059     0.3572112416     0.9506788179
   64      C       2.5539781104     2.5272572873     0.0468661234
   65      N       1.2818514232     0.4308531101     1.2963601080
   66      N       3.0008921400     3.6384148337    -0.6022969973
   67      C       1.2074467965     2.6642270064     0.3815819979
   68      C       0.6009772553     1.5810649899     1.1137348108
   69      S       1.8225290952     4.6892009828    -0.8010883538
   70      N       0.6150830548     3.8490576528    -0.0155017929
   71      C      -0.8664966044     1.5776909735     1.3512934080
   72      S      -2.0764908742     2.7852472631     0.7589736679
   73      C      -1.5390352337     0.6469395456     2.1274335832
   74      C      -3.4090093702     1.9218751608     1.5472629998
   75      S      -0.9362505619    -0.7367488903     2.9123227166
   76      C      -2.8966667196     0.8725174629     2.2708398307
   77      C      -4.7716572378     2.4159812559     1.6319031543
   78      C      -2.6308570040    -1.0743459458     3.4064251700
   79      C      -3.5234051074    -0.1386061417     3.0955974008
   80      N      -4.9302695854     3.5780960321     0.9598016962
   81      S      -6.0893262251     1.8775786661     2.6029335819
   82      C      -6.1961655524     4.0243792946     1.0833397481
   83      C      -6.8975226238     3.3204719134     2.0329742342
   84      C       8.7784536421     1.0972336738    -1.2448648162
   85      H       6.9992428078    -0.8783707235    -1.3696008273
   86      H       4.5723298384    -0.8589609799    -0.5386389144
   87      H       5.2285842698     3.1690603360     0.7527554483
   88      H       3.0624185178    -0.6020726067     1.1529157455
   89      H      -2.7477477083    -1.9920528655     3.9684363556
   90      H      -4.5910553347    -0.1947170236     3.2713345943
   91      H      -6.5618767786     4.9011544062     0.5649859088
   92      H      -7.9277699830     3.4867481816     2.3196527678
   93      H       9.2434174388     0.1598757193    -0.9135421143
   94      C       9.5797277208     2.3500819304    -0.7711126693
   95      H       8.8338876501     1.0925191952    -2.3404974392
   96      H       9.6348357282     2.4286992071     0.3217200861
   97      H       9.0193478551     3.2439741404    -1.0730499527
   98      C      11.0112383264     2.2756922049    -1.3695485931
   99      H      11.4427004282     1.3250670406    -1.0331645096
  100      C      11.8966912302     3.5557273829    -1.0552730798
  101      H      10.9182111134     2.2498819664    -2.4631233592
  102      H      11.4036795223     4.4654637541    -1.4190205070
  103      H      12.8257995873     3.4630286736    -1.6296515354
  104      C      12.2781060855     3.6190895921     0.4555167595
  105      H      11.4186711633     4.0531198057     0.9810340172
  106      C      13.6656704560     4.3540681675     0.6141440311
  107      H      12.4171729087     2.6192750796     0.8846931328
  108      H      14.4201352642     3.8127454476     0.0301152938
  109      H      13.9275116957     4.4124016691     1.6782898706
  110      H      13.6019353070     5.4028927291     0.2975782877
 ----------------------------------------------------------------

   10   -5663.5300813949      3.82E-06 Convergence criterion met
 Total energy in the final basis set = -5663.5300813949

                    Orbital Energies (a.u.)
 --------------------------------------------------------------

 Alpha MOs
 -- Occupied --
-88.986 -88.979 -88.933 -88.932 -88.930 -88.914 -88.911 -88.901
-14.388 -14.385 -14.379 -14.372 -14.345 -14.342 -14.339 -14.337
-14.332 -14.323 -10.267 -10.264 -10.260 -10.257 -10.253 -10.250
-10.250 -10.249 -10.243 -10.241 -10.241 -10.238 -10.233 -10.232
-10.230 -10.229 -10.228 -10.228 -10.227 -10.226 -10.225 -10.223
-10.223 -10.219 -10.219 -10.218 -10.217 -10.214 -10.213 -10.212
-10.210 -10.204 -10.202 -10.200 -10.200 -10.199 -10.194 -10.189
-10.189 -10.186 -10.184 -10.182 -10.177 -10.176 -10.174 -10.172
-10.172 -10.171 -10.170 -10.167  -8.041  -8.036  -7.993  -7.992
 -7.991  -7.971  -7.971  -7.961  -6.006  -6.001  -6.000  -5.999
 -5.995  -5.993  -5.957  -5.955  -5.955  -5.954  -5.952  -5.952
 -5.950  -5.949  -5.948  -5.936  -5.935  -5.932  -5.932  -5.928
 -5.927  -5.926  -5.922  -5.918  -1.048  -1.026  -0.977  -0.967
 -0.953  -0.951  -0.942  -0.927  -0.918  -0.911  -0.909  -0.885
 -0.848  -0.838  -0.832  -0.824  -0.809  -0.809  -0.807  -0.801
 -0.798  -0.793  -0.791  -0.788  -0.785  -0.776  -0.769  -0.761
 -0.750  -0.745  -0.743  -0.738  -0.728  -0.716  -0.710  -0.702
 -0.692  -0.689  -0.668  -0.666  -0.651  -0.650  -0.644  -0.636
 -0.635  -0.629  -0.620  -0.619  -0.608  -0.604  -0.600  -0.596
 -0.595  -0.587  -0.584  -0.581  -0.578  -0.574  -0.573  -0.556
 -0.554  -0.540  -0.537  -0.535  -0.522  -0.520  -0.516  -0.510
 -0.509  -0.499  -0.497  -0.489  -0.485  -0.480  -0.477  -0.475
 -0.471  -0.469  -0.462  -0.460  -0.459  -0.458  -0.451  -0.448
 -0.444  -0.444  -0.443  -0.438  -0.432  -0.432  -0.431  -0.429
 -0.427  -0.423  -0.421  -0.415  -0.414  -0.413  -0.411  -0.409
 -0.406  -0.406  -0.404  -0.402  -0.401  -0.397  -0.397  -0.394
 -0.394  -0.389  -0.387  -0.387  -0.386  -0.382  -0.380  -0.378
 -0.377  -0.376  -0.372  -0.367  -0.366  -0.359  -0.358  -0.356
 -0.354  -0.351  -0.348  -0.346  -0.344  -0.342  -0.342  -0.338
 -0.337  -0.335  -0.333  -0.329  -0.328  -0.326  -0.325  -0.324
 -0.319  -0.314  -0.305  -0.301  -0.299  -0.299  -0.295  -0.294
 -0.293  -0.291  -0.287  -0.285  -0.281  -0.280  -0.279  -0.276
 -0.271  -0.266  -0.264  -0.259  -0.257  -0.253  -0.250  -0.248
 -0.247  -0.237  -0.233  -0.231  -0.194  -0.188

          Ground-State Mulliken Net Atomic Charges

     Atom                 Charge (a.u.)
  ----------------------------------------
      1 C                     0.261796
      2 C                    -0.117131
      3 N                    -0.492355
      4 C                    -0.068173
      5 C                     0.051274
      6 C                     0.053282
      7 C                     0.072184
      8 C                     0.043037
      9 C                     0.194110
     10 N                    -0.546764
     11 N                    -0.521629
     12 C                     0.190537
     13 C                     0.361801
     14 S                     0.588271
     15 N                    -0.556018
     16 C                    -0.205366
     17 S                     0.317728
     18 C                    -0.119947
     19 C                    -0.237391
     20 S                     0.291534
     21 C                     0.171926
     22 C                     0.051316
     23 C                    -0.317460
     24 C                    -0.042940
     25 N                    -0.420721
     26 S                     0.266076
     27 C                     0.109443
     28 C                    -0.318579
     29 C                    -0.238684
     30 H                     0.091072
     31 H                     0.122214
     32 H                     0.103671
     33 H                     0.105219
     34 H                     0.121746
     35 H                     0.119573
     36 H                     0.121008
     37 H                     0.138925
     38 H                     0.118566
     39 C                    -0.183667
     40 H                     0.115121
     41 H                     0.112954
     42 H                     0.102187
     43 C                    -0.187355
     44 H                     0.099058
     45 C                    -0.177162
     46 H                     0.092563
     47 H                     0.090671
     48 H                     0.090755
     49 C                    -0.174347
     50 H                     0.093977
     51 C                    -0.321699
     52 H                     0.088787
     53 H                     0.097741
     54 H                     0.104866
     55 H                     0.101904
     56 C                     0.295857
     57 C                    -0.124776
     58 N                    -0.499763
     59 C                    -0.054222
     60 C                     0.094574
     61 C                     0.042422
     62 C                     0.049423
     63 C                     0.053338
     64 C                     0.210761
     65 N                    -0.522253
     66 N                    -0.545554
     67 C                     0.199986
     68 C                     0.287652
     69 S                     0.609688
     70 N                    -0.582280
     71 C                    -0.246531
     72 S                     0.364689
     73 C                    -0.110438
     74 C                    -0.233302
     75 S                     0.293949
     76 C                     0.124318
     77 C                     0.058244
     78 C                    -0.316363
     79 C                    -0.055395
     80 N                    -0.430759
     81 S                     0.310859
     82 C                     0.134293
     83 C                    -0.323862
     84 C                    -0.248471
     85 H                     0.092523
     86 H                     0.100142
     87 H                     0.107454
     88 H                     0.120840
     89 H                     0.124253
     90 H                     0.116384
     91 H                     0.117293
     92 H                     0.122907
     93 H                     0.105486
     94 C                    -0.164206
     95 H                     0.112471
     96 H                     0.102220
     97 H                     0.112633
     98 C                    -0.186761
     99 H                     0.086476
    100 C                    -0.175871
    101 H                     0.080354
    102 H                     0.094809
    103 H                     0.083349
    104 C                    -0.175276
    105 H                     0.101038
    106 C                    -0.323290
    107 H                     0.093663
    108 H                     0.105839
    109 H                     0.096459
    110 H                     0.103221
  ----------------------------------------
  Sum of atomic charges =     0.000000

                    Cartesian Multipole Moments
 -----------------------------------------------------------------
    Charge (ESU x 10^10)
                 0.0000
    Dipole Moment (Debye)
         X      -2.0006      Y      -2.1973      Z      -1.6003
       Tot       3.3751
    Quadrupole Moments (Debye-Ang)
        XX    -404.4251     XY     -37.8595     YY    -432.1600
        XZ      -9.7335     YZ      -6.4338     ZZ    -436.3350

 Total job time:  110.01s(wall), 1295.44s(cpu)
        *  Thank you very much for using Q-Chem.  Have a nice day.  *
