 Q-Chem 4.4, Q-Chem, Inc., Pleasanton, CA (2016)
 Q-Chem 4.4.2 for Intel X86 Linux

User input:
--------------------------------------------------------------
$comment
SP
$end

$rem
MEM_STATIC 5000
MEM_TOTAL 20000
JOBTYPE SP
EXCHANGE B3LYP
BASIS 6-31g(d,p)
$end

$molecule
0 1
C         -28.122000     -0.960000     -4.819000
C         -27.409000     -2.167000     -4.640000
N         -27.455000      0.247000     -4.897000
C         -26.003000     -2.221000     -4.853000
C         -26.106000      0.184000     -5.071000
C         -25.314000     -0.998000     -5.134000
C         -23.806000     -0.874000     -5.392000
C         -23.195000      0.325000     -5.184000
C         -22.930000     -1.922000     -5.845000
N         -21.936000      0.573000     -5.604000
N         -23.406000     -3.157000     -6.103000
C         -21.562000     -1.682000     -6.083000
C         -21.058000     -0.351000     -5.994000
S         -22.043000     -3.893000     -6.534000
N         -20.886000     -2.755000     -6.522000
C         -19.658000      0.025000     -6.223000
S         -18.273000     -1.092000     -6.412000
C         -19.244000      1.379000     -6.317000
C         -17.168000      0.283000     -6.370000
S         -20.131000      2.862000     -6.091000
C         -17.871000      1.487000     -6.421000
C         -15.727000      0.193000     -6.386000
C         -18.569000      3.657000     -6.336000
C         -17.503000      2.840000     -6.443000
N         -15.045000      1.117000     -6.991000
S         -14.816000     -1.067000     -5.698000
C         -13.679000      0.940000     -6.865000
C         -13.335000     -0.295000     -6.234000
C         -29.629000     -0.883000     -4.833000
H         -27.917000     -3.084000     -4.356000
H         -25.492000     -3.166000     -4.697000
H         -25.752000      1.213000     -5.100000
H         -23.828000      1.168000     -4.913000
H         -18.536000      4.730000     -6.466000
H         -16.472000      3.145000     -6.582000
H         -12.967000      1.696000     -7.168000
H         -12.368000     -0.642000     -5.895000
H         -29.908000      0.163000     -5.011000
C         -30.268000     -1.394000     -3.510000
H         -29.938000     -1.552000     -5.646000
H         -29.651000     -1.207000     -2.623000
H         -30.474000     -2.468000     -3.593000
C         -31.637000     -0.725000     -3.257000
H         -31.591000      0.360000     -3.103000
C         -32.231000     -1.452000     -1.976000
H         -32.378000     -0.768000     -4.065000
H         -31.359000     -1.734000     -1.373000
H         -32.781000     -2.385000     -2.151000
C         -33.025000     -0.543000     -1.026000
H         -32.386000      0.284000     -0.692000
C         -33.610000     -1.259000      0.144000
H         -33.807000     -0.074000     -1.636000
H         -34.275000     -0.577000      0.688000
H         -32.888000     -1.573000      0.907000
H         -34.335000     -2.047000     -0.092000
C         -31.592000     -5.122000      0.279000
C         -30.819000     -6.008000     -0.481000
N         -31.054000     -3.973000      0.735000
C         -29.533000     -5.706000     -0.855000
C         -29.733000     -3.695000      0.489000
C         -28.908000     -4.540000     -0.305000
C         -27.516000     -4.211000     -0.707000
C         -26.576000     -5.198000     -0.974000
C         -27.090000     -2.915000     -0.898000
N         -25.302000     -5.005000     -1.378000
N         -27.832000     -1.788000     -0.691000
C         -25.790000     -2.603000     -1.323000
C         -24.874000     -3.736000     -1.537000
S         -26.862000     -0.555000     -1.068000
N         -25.449000     -1.323000     -1.328000
C         -23.393000     -3.571000     -1.802000
S         -22.470000     -2.117000     -2.103000
C         -22.464000     -4.617000     -1.654000
C         -20.971000     -2.967000     -2.354000
S         -22.640000     -6.290000     -1.103000
C         -21.161000     -4.222000     -1.911000
C         -19.785000     -2.331000     -2.736000
C         -20.925000     -6.497000     -1.442000
C         -20.214000     -5.313000     -1.782000
N         -19.854000     -1.034000     -2.685000
S         -18.236000     -3.033000     -3.195000
C         -18.588000     -0.522000     -2.849000
C         -17.634000     -1.407000     -3.103000
C         -33.027000     -5.307000      0.345000
H         -31.300000     -6.880000     -0.915000
H         -28.897000     -6.271000     -1.530000
H         -29.338000     -2.805000      0.977000
H         -26.835000     -6.199000     -0.633000
H         -20.546000     -7.510000     -1.427000
H         -19.167000     -5.195000     -2.036000
H         -18.495000      0.552000     -2.763000
H         -16.555000     -1.332000     -3.131000
H         -33.608000     -4.376000      0.333000
C         -33.590000     -6.268000      1.390000
H         -33.274000     -5.828000     -0.589000
H         -34.678000     -6.224000      1.261000
H         -33.287000     -5.835000      2.352000
C         -33.163000     -7.725000      1.216000
H         -33.210000     -7.901000      0.134000
C         -33.895000     -8.824000      2.022000
H         -32.115000     -7.877000      1.503000
H         -33.237000     -9.699000      1.943000
H         -34.797000     -9.057000      1.443000
C         -34.282000     -8.431000      3.448000
H         -33.412000     -7.953000      3.915000
C         -34.617000     -9.677000      4.222000
H         -35.049000     -7.649000      3.513000
H         -35.082000     -9.349000      5.160000
H         -33.783000    -10.345000      4.471000
H         -35.384000    -10.265000      3.703000
$end

--------------------------------------------------------------

             Standard Nuclear Orientation (Angstroms)
    I     Atom           X                Y                Z
 ----------------------------------------------------------------
    1      C       2.3498113017     3.6064934167     1.3323883519
    2      C       2.1519655726     2.2626978792     1.7226826265
    3      N       1.3730723487     4.2876398471     0.6325008195
    4      C       0.8538444236     1.6801741156     1.6968263433
    5      C       0.1422350851     3.7069755798     0.5887442282
    6      C      -0.2225815352     2.4507451242     1.1519057291
    7      C      -1.6804079348     1.9813537851     1.0498373245
    8      C      -2.4990961553     2.5591500079     0.1278356312
    9      C      -2.3043543059     0.9592274502     1.8478584280
   10      N      -3.8356776509     2.3680740575     0.1328243029
   11      N      -1.6120698932     0.3139420713     2.8084384984
   12      C      -3.6665335147     0.6351719868     1.6893533500
   13      C      -4.4751000607     1.4154428501     0.8113467893
   14      S      -2.7491305332    -0.6913492311     3.3392006847
   15      N      -4.1020958158    -0.3227750666     2.5222092348
   16      C      -5.9028055951     1.1799074988     0.5664039280
   17      S      -6.8548967783    -0.2376722726     1.1008428586
   18      C      -6.7073326014     2.0968277553    -0.1585385108
   19      C      -8.2220624584     0.3274200219     0.1391034439
   20      S      -6.2886215893     3.5622733863    -1.0036918642
   21      C      -7.9844537467     1.6096764504    -0.3566652033
   22      C      -9.4668031626    -0.3832478443    -0.0352776422
   23      C      -7.9901840355     3.5896775303    -1.4893133779
   24      C      -8.7214731515     2.5156952899    -1.1328412526
   25      N     -10.5680587730     0.2942629297    -0.1499084923
   26      S      -9.6332093652    -2.0750213234    -0.0680872654
   27      C     -11.6679814473    -0.5116913753    -0.3817894289
   28      C     -11.3650513053    -1.9049586171    -0.2881853585
   29      C       3.6452554405     4.3494061860     1.5493655404
   30      H       2.9787912576     1.6497374269     2.0694502295
   31      H       0.7463339639     0.6424997485     1.9970852465
   32      H      -0.4879688154     4.3679995898    -0.0036140267
   33      H      -2.0948963602     3.3890813788    -0.4488925935
   34      H      -8.3892105373     4.4724893883    -1.9696664505
   35      H      -9.7702663429     2.3516286730    -1.3528912173
   36      H     -12.6328097870    -0.1085394901    -0.6590327016
   37      H     -11.9842467856    -2.7562299550    -0.5378913183
   38      H       3.5105131834     5.3715984902     1.1743876510
   39      C       4.8522107162     3.6699004685     0.8413387454
   40      H       3.8145844566     4.3104994436     2.6327975639
   41      H       4.5843696410     3.1606562154    -0.0921270810
   42      H       5.3242102754     2.9549816684     1.5261077030
   43      C       5.9483659783     4.7013657318     0.4945620853
   44      H       5.6400413413     5.4664031842    -0.2284251999
   45      C       7.1649083780     3.8500924572    -0.0690729045
   46      H       6.3113691271     5.3455260756     1.3051668999
   47      H       6.7079486859     2.9796684649    -0.5559680817
   48      H       7.8625614172     3.4395648105     0.6714413008
   49      C       7.9435005977     4.5139501075    -1.2146313603
   50      H       7.2586329477     4.7333954642    -2.0432483027
   51      C       9.1075206393     3.7147007386    -1.6942549512
   52      H       8.2627432526     5.4937186932    -0.8381706774
   53      H       9.6897145243     4.3159909099    -2.4033285794
   54      H       8.8514718047     2.8181299386    -2.2710120881
   55      H       9.8927194267     3.5225916013    -0.9534297736
   56      C       8.5431686954    -0.2805077917    -0.0410357634
   57      C       7.8468550578    -0.9980772390     0.9389470969
   58      N       7.8959086086     0.1848463986    -1.1282711830
   59      C       6.4874930365    -1.1785514757     0.8723141845
   60      C       6.5606448149    -0.0848701140    -1.2930880636
   61      C       5.7937080213    -0.7790779214    -0.3158626677
   62      C       4.3227198364    -0.9739823278    -0.3914605010
   63      C       3.6935086427    -2.0564463899     0.2097240197
   64      C       3.4889305115    -0.0665174650    -1.0069894477
   65      N       2.3661942659    -2.3042561310     0.2289041502
   66      N       3.8799181271     1.0625717899    -1.6671622577
   67      C       2.0952887532    -0.2236357173    -1.0393237068
   68      C       1.5506537042    -1.4325522267    -0.3986720567
   69      S       2.5179305241     1.7558697344    -2.1845071419
   70      N       1.4101969617     0.6299499396    -1.7854783581
   71      C       0.1016478231    -1.8546556943    -0.5127843666
   72      S      -1.2570125447    -0.9992969914    -1.2049183812
   73      C      -0.3457324434    -3.1558178377    -0.2197161602
   74      C      -2.4123569386    -2.2320209830    -0.7829315425
   75      S       0.5154789372    -4.6252052643     0.2626960584
   76      C      -1.7043523503    -3.3209336540    -0.4359838553
   77      C      -3.7869790721    -2.1020675524    -1.0077472363
   78      C      -1.0551046211    -5.4126722993     0.3729591749
   79      C      -2.1611269661    -4.6573725945    -0.1058037399
   80      N      -4.0961801130    -1.0750182833    -1.7420057161
   81      S      -5.1080356266    -3.1522080316    -0.5028704656
   82      C      -5.4227529898    -1.1714444279    -2.0922947411
   83      C      -6.0899984593    -2.1857000300    -1.5594476176
   84      C       9.8836866655     0.1902849622     0.2403389947
   85      H       8.3692014055    -1.2810341702     1.8484473268
   86      H       5.8469357180    -1.6190257740     1.6306114311
   87      H       6.1285457945     0.2277441716    -2.2427362854
   88      H       4.3480129057    -2.8714632321     0.5142477735
   89      H      -1.0787701028    -6.3842057610     0.8479304138
   90      H      -3.2107268551    -4.9262360535    -0.1322898362
   91      H      -5.7943774574    -0.4070811380    -2.7609987236
   92      H      -7.0706892113    -2.5992463666    -1.7540628183
   93      H      10.1104848690     1.1868631223    -0.1594866495
   94      C      11.0552935330    -0.7576991790    -0.0070037153
   95      H       9.9091482985     0.2913988809     1.3330117182
   96      H      11.9497750510    -0.1796354632     0.2538911951
   97      H      11.0174441234    -0.9649777107    -1.0841968422
   98      C      11.0522060261    -2.0184635644     0.8566615160
   99      H      10.7434778137    -1.6731378350     1.8513202672
  100      C      12.3246617131    -2.8967559044     0.9088159986
  101      H      10.2840498098    -2.7308429104     0.5307340782
  102      H      11.9795659941    -3.8450666197     1.3406096207
  103      H      12.9712858890    -2.4272849922     1.6602201760
  104      C      13.0776163012    -3.0239523491    -0.4157875091
  105      H      12.3439666899    -3.2389269423    -1.2025639527
  106      C      14.0335036686    -4.1821501499    -0.3226521514
  107      H      13.5411234532    -2.0937136039    -0.7677178955
  108      H      14.6928010445    -4.1168156858    -1.1971299259
  109      H      13.5938566049    -5.1871753664    -0.3022616267
  110      H      14.6902961199    -4.0775192585     0.5497411387
 ----------------------------------------------------------------

   10   -5663.5132167506      3.52E-06 Convergence criterion met
 Total energy in the final basis set = -5663.5132167506

                    Orbital Energies (a.u.)
 --------------------------------------------------------------

 Alpha MOs
 -- Occupied --
-88.986 -88.979 -88.930 -88.928 -88.928 -88.918 -88.914 -88.909
-14.388 -14.386 -14.386 -14.381 -14.355 -14.342 -14.339 -14.338
-14.331 -14.330 -10.272 -10.266 -10.264 -10.256 -10.256 -10.253
-10.252 -10.250 -10.242 -10.241 -10.241 -10.239 -10.238 -10.238
-10.231 -10.230 -10.230 -10.229 -10.228 -10.228 -10.227 -10.226
-10.225 -10.223 -10.222 -10.222 -10.220 -10.217 -10.217 -10.215
-10.213 -10.212 -10.209 -10.204 -10.202 -10.199 -10.198 -10.187
-10.183 -10.182 -10.181 -10.180 -10.179 -10.179 -10.178 -10.175
-10.171 -10.165 -10.164 -10.158  -8.042  -8.036  -7.992  -7.989
 -7.986  -7.977  -7.973  -7.968  -6.007  -6.001  -6.001  -6.000
 -5.996  -5.994  -5.955  -5.953  -5.952  -5.950  -5.949  -5.949
 -5.947  -5.945  -5.943  -5.942  -5.938  -5.938  -5.934  -5.934
 -5.933  -5.930  -5.929  -5.924  -1.048  -1.044  -0.982  -0.976
 -0.959  -0.952  -0.934  -0.926  -0.918  -0.917  -0.909  -0.909
 -0.845  -0.844  -0.839  -0.823  -0.816  -0.812  -0.809  -0.805
 -0.800  -0.799  -0.797  -0.791  -0.788  -0.779  -0.771  -0.766
 -0.752  -0.747  -0.744  -0.739  -0.724  -0.720  -0.714  -0.706
 -0.699  -0.688  -0.676  -0.664  -0.658  -0.649  -0.646  -0.643
 -0.635  -0.633  -0.627  -0.619  -0.616  -0.606  -0.604  -0.598
 -0.595  -0.593  -0.587  -0.580  -0.579  -0.576  -0.564  -0.558
 -0.552  -0.548  -0.541  -0.535  -0.530  -0.524  -0.521  -0.509
 -0.507  -0.498  -0.497  -0.495  -0.490  -0.484  -0.483  -0.476
 -0.474  -0.472  -0.472  -0.468  -0.466  -0.454  -0.448  -0.446
 -0.444  -0.443  -0.442  -0.440  -0.438  -0.435  -0.435  -0.429
 -0.428  -0.426  -0.424  -0.421  -0.418  -0.417  -0.415  -0.412
 -0.410  -0.408  -0.404  -0.399  -0.398  -0.397  -0.396  -0.394
 -0.392  -0.391  -0.390  -0.389  -0.388  -0.384  -0.381  -0.380
 -0.377  -0.377  -0.376  -0.367  -0.365  -0.361  -0.360  -0.359
 -0.357  -0.355  -0.354  -0.350  -0.348  -0.346  -0.343  -0.341
 -0.339  -0.337  -0.336  -0.334  -0.330  -0.329  -0.325  -0.321
 -0.317  -0.315  -0.309  -0.306  -0.304  -0.303  -0.301  -0.299
 -0.294  -0.292  -0.289  -0.287  -0.285  -0.283  -0.281  -0.281
 -0.277  -0.268  -0.264  -0.257  -0.256  -0.256  -0.251  -0.251
 -0.244  -0.241  -0.231  -0.229  -0.195  -0.192

          Ground-State Mulliken Net Atomic Charges

     Atom                 Charge (a.u.)
  ----------------------------------------
      1 C                     0.255378
      2 C                    -0.130431
      3 N                    -0.489397
      4 C                    -0.082971
      5 C                     0.052779
      6 C                     0.058084
      7 C                     0.071045
      8 C                     0.062978
      9 C                     0.196602
     10 N                    -0.553373
     11 N                    -0.527488
     12 C                     0.181184
     13 C                     0.352532
     14 S                     0.588665
     15 N                    -0.549774
     16 C                    -0.210913
     17 S                     0.332715
     18 C                    -0.125367
     19 C                    -0.227090
     20 S                     0.292438
     21 C                     0.171760
     22 C                     0.053149
     23 C                    -0.318712
     24 C                    -0.045051
     25 N                    -0.420032
     26 S                     0.250325
     27 C                     0.109031
     28 C                    -0.316294
     29 C                    -0.235623
     30 H                     0.093269
     31 H                     0.128376
     32 H                     0.106202
     33 H                     0.106548
     34 H                     0.121392
     35 H                     0.117907
     36 H                     0.120610
     37 H                     0.137595
     38 H                     0.122230
     39 C                    -0.193902
     40 H                     0.112495
     41 H                     0.126974
     42 H                     0.100390
     43 C                    -0.188566
     44 H                     0.095551
     45 C                    -0.185162
     46 H                     0.091002
     47 H                     0.112398
     48 H                     0.085208
     49 C                    -0.174054
     50 H                     0.090347
     51 C                    -0.323702
     52 H                     0.082703
     53 H                     0.086742
     54 H                     0.128940
     55 H                     0.093584
     56 C                     0.323534
     57 C                    -0.121257
     58 N                    -0.505201
     59 C                    -0.073172
     60 C                     0.083667
     61 C                     0.026328
     62 C                     0.060670
     63 C                     0.030637
     64 C                     0.226259
     65 N                    -0.526149
     66 N                    -0.559327
     67 C                     0.216499
     68 C                     0.290707
     69 S                     0.619108
     70 N                    -0.552358
     71 C                    -0.238025
     72 S                     0.353028
     73 C                    -0.107549
     74 C                    -0.241395
     75 S                     0.291447
     76 C                     0.130858
     77 C                     0.083367
     78 C                    -0.317494
     79 C                    -0.071275
     80 N                    -0.436136
     81 S                     0.262750
     82 C                     0.136091
     83 C                    -0.309468
     84 C                    -0.263002
     85 H                     0.088395
     86 H                     0.100655
     87 H                     0.121987
     88 H                     0.114060
     89 H                     0.129247
     90 H                     0.108544
     91 H                     0.121854
     92 H                     0.143165
     93 H                     0.126858
     94 C                    -0.166850
     95 H                     0.098422
     96 H                     0.094527
     97 H                     0.107635
     98 C                    -0.189387
     99 H                     0.078740
    100 C                    -0.176034
    101 H                     0.095067
    102 H                     0.094051
    103 H                     0.090205
    104 C                    -0.169297
    105 H                     0.095460
    106 C                    -0.317382
    107 H                     0.102382
    108 H                     0.094936
    109 H                     0.106781
    110 H                     0.101605
  ----------------------------------------
  Sum of atomic charges =     0.000000

                    Cartesian Multipole Moments
 -----------------------------------------------------------------
    Charge (ESU x 10^10)
                 0.0000
    Dipole Moment (Debye)
         X      -1.4191      Y      -4.1863      Z       0.7629
       Tot       4.4856
    Quadrupole Moments (Debye-Ang)
        XX    -385.5398     XY      13.4557     YY    -438.7179
        XZ      30.1008     YZ      -6.4173     ZZ    -446.4399

 Total job time:  106.56s(wall), 1272.38s(cpu)
        *  Thank you very much for using Q-Chem.  Have a nice day.  *
