 Q-Chem 4.4, Q-Chem, Inc., Pleasanton, CA (2016)
 Q-Chem 4.4.2 for Intel X86 Linux

User input:
--------------------------------------------------------------
$comment
SP
$end

$rem
MEM_STATIC 5000
MEM_TOTAL 20000
JOBTYPE SP
EXCHANGE B3LYP
BASIS 6-31g(d,p)
$end

$molecule
0 1
C         -27.129000     20.070000     -4.964000
C         -26.271000     19.040000     -5.459000
N         -27.905000     20.805000     -5.804000
C         -26.319000     18.784000     -6.858000
C         -27.831000     20.612000     -7.166000
C         -27.007000     19.588000     -7.745000
C         -26.833000     19.406000     -9.171000
C         -26.712000     18.145000     -9.808000
C         -26.748000     20.515000    -10.062000
N         -26.535000     17.931000    -11.123000
N         -26.732000     21.765000     -9.704000
C         -26.459000     20.316000    -11.429000
C         -26.356000     18.997000    -11.908000
S         -26.352000     22.656000    -11.043000
N         -26.203000     21.459000    -12.125000
C         -26.056000     18.661000    -13.296000
S         -25.089000     17.339000    -13.940000
C         -26.588000     19.336000    -14.381000
C         -25.384000     17.745000    -15.597000
S         -27.842000     20.476000    -14.378000
C         -26.144000     18.900000    -15.595000
C         -24.712000     17.204000    -16.728000
C         -27.658000     20.669000    -16.078000
C         -26.797000     19.686000    -16.614000
N         -25.209000     17.556000    -17.883000
S         -23.096000     16.692000    -16.655000
C         -24.319000     17.243000    -18.853000
C         -23.159000     16.722000    -18.436000
C         -27.072000     20.590000     -3.534000
H         -25.507000     18.618000     -4.813000
H         -25.580000     18.122000     -7.299000
H         -28.554000     21.176000     -7.756000
H         -26.897000     17.238000     -9.234000
H         -28.351000     21.366000    -16.530000
H         -26.764000     19.459000    -17.673000
H         -24.531000     17.423000    -19.898000
H         -22.339000     16.243000    -18.956000
H         -28.114000     20.698000     -3.209000
C         -26.227000     21.840000     -3.514000
H         -26.644000     19.847000     -2.850000
H         -26.557000     22.547000     -2.743000
H         -26.388000     22.412000     -4.436000
C         -24.688000     21.471000     -3.414000
H         -24.567000     20.669000     -2.675000
C         -24.008000     22.761000     -2.847000
H         -24.314000     21.020000     -4.341000
H         -24.448000     22.956000     -1.861000
H         -24.196000     23.542000     -3.594000
C         -22.453000     22.623000     -2.616000
H         -22.209000     21.863000     -1.864000
C         -21.855000     23.972000     -2.103000
H         -21.993000     22.324000     -3.567000
H         -22.158000     24.328000     -1.111000
H         -22.140000     24.788000     -2.778000
H         -20.759000     23.995000     -2.148000
C         -23.853000     22.864000     -7.530000
C         -22.954000     22.217000     -6.671000
N         -23.969000     22.497000     -8.807000
C         -22.213000     21.170000     -7.124000
C         -23.292000     21.446000     -9.265000
C         -22.450000     20.647000     -8.468000
C         -21.550000     19.585000     -9.061000
C         -20.121000     19.741000     -9.021000
C         -22.085000     18.595000     -9.907000
N         -19.296000     18.771000     -9.633000
N         -23.423000     18.461000    -10.136000
C         -21.251000     17.644000    -10.363000
C         -19.821000     17.756000    -10.264000
S         -23.523000     16.986000    -10.809000
N         -21.954000     16.638000    -10.859000
C         -18.756000     16.912000    -10.820000
S         -17.093000     16.890000    -10.213000
C         -18.809000     16.277000    -11.996000
C         -16.525000     16.140000    -11.702000
S         -20.089000     16.286000    -13.212000
C         -17.613000     15.801000    -12.507000
C         -15.090000     15.952000    -11.998000
C         -18.926000     15.670000    -14.463000
C         -17.681000     15.396000    -13.897000
N         -14.261000     16.501000    -11.141000
S         -14.332000     15.182000    -13.358000
C         -12.950000     16.373000    -11.527000
C         -12.824000     15.581000    -12.661000
C         -24.634000     24.065000     -7.063000
H         -22.839000     22.580000     -5.654000
H         -21.369000     20.773000     -6.568000
H         -23.493000     21.279000    -10.322000
H         -19.623000     20.520000     -8.446000
H         -19.276000     15.653000    -15.487000
H         -16.831000     15.123000    -14.512000
H         -12.279000     16.840000    -10.818000
H         -11.883000     15.333000    -13.133000
H         -24.939000     23.853000     -6.031000
C         -25.953000     24.321000     -7.764000
H         -23.947000     24.919000     -7.073000
H         -26.673000     23.511000     -7.595000
H         -25.795000     24.529000     -8.829000
C         -26.691000     25.556000     -7.258000
H         -26.807000     25.674000     -6.174000
C         -28.110000     25.562000     -7.956000
H         -26.192000     26.512000     -7.457000
H         -28.716000     24.873000     -7.356000
H         -28.100000     25.211000     -8.995000
C         -28.717000     26.992000     -7.912000
H         -28.557000     27.507000     -6.957000
C         -30.208000     26.865000     -8.234000
H         -28.243000     27.577000     -8.710000
H         -30.321000     26.343000     -9.192000
H         -30.672000     27.859000     -8.260000
H         -30.585000     26.233000     -7.420000
$end

--------------------------------------------------------------

             Standard Nuclear Orientation (Angstroms)
    I     Atom           X                Y                Z
 ----------------------------------------------------------------
    1      C      -5.8083203436    -1.8527696982    -2.9937636370
    2      C      -4.4324237928    -1.9848604679    -3.3564614591
    3      N      -6.2675303482    -0.7383880065    -2.3650501754
    4      C      -3.5887900478    -0.8716392237    -3.0843189125
    5      C      -5.3957827967     0.2659905541    -2.0058163886
    6      C      -4.0011855039     0.2198887997    -2.3460604469
    7      C      -3.0350061764     1.2088968224    -1.9156691852
    8      C      -1.9511370735     1.6663032877    -2.7072107781
    9      C      -3.0933433415     1.7971352187    -0.6189196473
   10      N      -1.0247803264     2.5694250077    -2.3430894575
   11      N      -3.9328372312     1.4663763434     0.3174395657
   12      C      -2.0730518955     2.6678484013    -0.1799721345
   13      C      -1.0540703889     3.0177251093    -1.0849991940
   14      S      -3.4430838631     2.2172844580     1.7057769317
   15      N      -2.1390134337     2.9957314722     1.1408392704
   16      C       0.0570472571     3.9025318674    -0.7503731677
   17      S       1.7384768466     3.8256323985    -1.2645618561
   18      C      -0.0788451113     5.0507418895     0.0105611327
   19      C       2.2047348204     5.2706494225    -0.4326728599
   20      S      -1.5154584954     5.8098322750     0.4922755413
   21      C       1.0886624864     5.7135180724     0.2528042763
   22      C       3.5351848285     5.7275709249    -0.2216005580
   23      C      -0.5958833157     6.9888258803     1.3440152713
   24      C       0.7788546844     6.8845351665     1.0372174909
   25      N       3.6302887724     6.9189173834     0.3043146973
   26      S       4.8399628979     4.6552356417    -0.0585661132
   27      C       4.8997627629     7.1043301796     0.7344622096
   28      C       5.7245793373     6.0605645503     0.5889942423
   29      C      -6.8019216942    -3.0052309136    -3.0497859811
   30      H      -4.0439782432    -2.9542490391    -3.6539372615
   31      H      -2.5149729812    -0.9824396679    -3.2004488794
   32      H      -5.8616952013     1.1609467002    -1.5924108641
   33      H      -1.8982352566     1.3778490174    -3.7561843391
   34      H      -1.1851925779     7.7538301395     1.8317089015
   35      H       1.4810436995     7.6840164097     1.2418130155
   36      H       5.2167769039     8.0350611686     1.1845853712
   37      H       6.7972384584     5.9517518740     0.6880054104
   38      H      -7.7226868528    -2.5910157794    -3.4783537647
   39      C      -6.9122565858    -3.6077607747    -1.6707613336
   40      H      -6.4869650890    -3.7767468213    -3.7629861922
   41      H      -7.9129427551    -4.0137222062    -1.4783749862
   42      H      -6.8336601393    -2.8184414847    -0.9131422625
   43      C      -5.7484644912    -4.6567350703    -1.4259698147
   44      H      -5.6352232168    -5.2716176890    -2.3276691987
   45      C      -6.2788847179    -5.5746052704    -0.2752493105
   46      H      -4.7713443748    -4.1687053570    -1.3276373319
   47      H      -7.1957224257    -6.0562092568    -0.6375850911
   48      H      -6.4212712556    -4.9098974002     0.5856824645
   49      C      -5.2958789522    -6.7427940589     0.1240809025
   50      H      -5.1300622212    -7.4479799134    -0.6992402513
   51      C      -5.8833494113    -7.5688858270     1.3127881206
   52      H      -4.3293116184    -6.2970272139     0.3932305061
   53      H      -6.7975132444    -8.1487627582     1.1376989120
   54      H      -6.1467227486    -6.8985549640     2.1398292437
   55      H      -5.1441213521    -8.2372707422     1.7716709831
   56      C      -3.7527377168    -2.0856874387     1.5716823862
   57      C      -3.2684406553    -3.2966641699     1.0581819357
   58      N      -2.9601231050    -1.0184080965     1.6791574203
   59      C      -1.9834500884    -3.3853998559     0.6206613977
   60      C      -1.7128590813    -1.0621657320     1.2153560355
   61      C      -1.1532565908    -2.1834915645     0.5734468285
   62      C       0.3192856268    -2.2661418857     0.2353915940
   63      C       1.1643038333    -3.2179166341     0.9047540213
   64      C       0.9350086990    -1.2381720335    -0.5036646160
   65      N       2.5484822803    -3.2413305447     0.6226710273
   66      N       0.2387687467    -0.2005284080    -1.0506441726
   67      C       2.2325822197    -1.3877051414    -0.8227818484
   68      C       3.0703051926    -2.3837588783    -0.2117645215
   69      S       1.3080871461     0.4339158135    -2.0959157595
   70      N       2.5600571791    -0.5199926317    -1.7672902662
   71      C       4.5175793471    -2.6084894175    -0.3146756796
   72      S       5.3120322914    -4.1385219932     0.0882471871
   73      C       5.4402339284    -1.6491912557    -0.4468330120
   74      C       6.8733234005    -3.3327094300     0.2118642794
   75      S       5.2291168653     0.1031030103    -0.4919039669
   76      C       6.7561520885    -2.0058688083    -0.2034125539
   77      C       8.0819220923    -4.0179708448     0.7137517126
   78      C       6.9886478687     0.3403065177    -0.1113633726
   79      C       7.6605030637    -0.8812665960    -0.0686231708
   80      N       7.8886464855    -5.2265048120     1.1882843142
   81      S       9.7116637683    -3.4320770059     0.8469225771
   82      C       9.0308317732    -5.7655079294     1.7258616648
   83      C      10.1330779237    -4.9473187507     1.5144003404
   84      C      -5.1530880437    -1.9877242625     2.1192891594
   85      H      -3.9220434461    -4.1637289556     1.0412985406
   86      H      -1.5074934454    -4.3379192499     0.4079336890
   87      H      -1.1987822173    -0.1165308359     1.3797902812
   88      H       0.7789265712    -4.0065710044     1.5489423867
   89      H       7.3070673380     1.3505636070     0.1107957033
   90      H       8.6944564078    -0.9439952106     0.2511573839
   91      H       8.8543147110    -6.7563010561     2.1235823039
   92      H      11.1385684867    -5.1789417084     1.8386048024
   93      H      -5.7895189886    -2.5761377691     1.4471893174
   94      C      -5.7931276598    -0.6145397021     2.0817198532
   95      H      -5.1431272767    -2.4514888580     3.1123693088
   96      H      -5.9323762531    -0.2532100502     1.0555075399
   97      H      -5.2347082523     0.0934952901     2.7056647347
   98      C      -7.2035379258    -0.5752836313     2.6606039887
   99      H      -7.9164399158    -1.3367701671     2.3224546009
  100      C      -7.7794086975     0.8688389100     2.3713222230
  101      H      -7.2722972690    -0.7774009638     3.7362241525
  102      H      -8.1349693763     0.8221112487     1.3352960991
  103      H      -7.0375279783     1.6722672263     2.4546165142
  104      C      -8.9614887708     1.1713852689     3.3338384052
  105      H      -9.6327569410     0.3174677037     3.4857391473
  106      C      -9.7137925952     2.3781113408     2.7674947434
  107      H      -8.5338270176     1.4583585983     4.3025781706
  108      H      -9.0060364270     3.2044806771     2.6288876497
  109      H     -10.5334532434     2.6587640428     3.4408434514
  110      H     -10.0606840391     2.0184574018     1.7905278195
 ----------------------------------------------------------------

    9   -5663.4812487144      6.60E-06 Convergence criterion met
 Total energy in the final basis set = -5663.4812487144

                    Orbital Energies (a.u.)
 --------------------------------------------------------------

 Alpha MOs
 -- Occupied --
-88.987 -88.983 -88.932 -88.923 -88.922 -88.918 -88.903 -88.900
-14.382 -14.377 -14.376 -14.369 -14.347 -14.345 -14.336 -14.335
-14.331 -14.325 -10.266 -10.261 -10.260 -10.256 -10.249 -10.249
-10.247 -10.247 -10.245 -10.240 -10.235 -10.235 -10.233 -10.233
-10.232 -10.230 -10.230 -10.229 -10.229 -10.228 -10.227 -10.225
-10.225 -10.224 -10.222 -10.222 -10.221 -10.218 -10.215 -10.213
-10.212 -10.210 -10.209 -10.209 -10.205 -10.199 -10.195 -10.193
-10.189 -10.187 -10.185 -10.185 -10.184 -10.182 -10.177 -10.174
-10.173 -10.171 -10.171 -10.167  -8.042  -8.038  -7.994  -7.986
 -7.982  -7.976  -7.963  -7.963  -6.007  -6.003  -6.002  -6.000
 -5.997  -5.995  -5.958  -5.954  -5.951  -5.949  -5.946  -5.946
 -5.943  -5.943  -5.941  -5.939  -5.937  -5.933  -5.928  -5.927
 -5.924  -5.923  -5.919  -5.919  -1.047  -1.035  -0.983  -0.971
 -0.960  -0.956  -0.944  -0.928  -0.919  -0.910  -0.904  -0.901
 -0.851  -0.839  -0.834  -0.830  -0.812  -0.808  -0.807  -0.806
 -0.806  -0.804  -0.795  -0.794  -0.785  -0.779  -0.768  -0.766
 -0.750  -0.748  -0.738  -0.738  -0.725  -0.722  -0.710  -0.708
 -0.691  -0.690  -0.673  -0.668  -0.652  -0.651  -0.644  -0.644
 -0.635  -0.633  -0.628  -0.624  -0.609  -0.608  -0.601  -0.595
 -0.594  -0.588  -0.584  -0.581  -0.578  -0.575  -0.574  -0.571
 -0.548  -0.546  -0.541  -0.537  -0.524  -0.524  -0.518  -0.512
 -0.507  -0.506  -0.504  -0.500  -0.485  -0.484  -0.482  -0.476
 -0.475  -0.474  -0.471  -0.469  -0.463  -0.461  -0.452  -0.450
 -0.447  -0.444  -0.441  -0.438  -0.436  -0.433  -0.432  -0.430
 -0.428  -0.428  -0.424  -0.421  -0.419  -0.416  -0.415  -0.414
 -0.412  -0.407  -0.404  -0.403  -0.403  -0.398  -0.396  -0.395
 -0.394  -0.393  -0.389  -0.388  -0.383  -0.382  -0.381  -0.381
 -0.379  -0.376  -0.376  -0.373  -0.369  -0.364  -0.356  -0.356
 -0.352  -0.349  -0.347  -0.346  -0.343  -0.341  -0.340  -0.338
 -0.336  -0.335  -0.332  -0.331  -0.330  -0.328  -0.325  -0.324
 -0.320  -0.311  -0.306  -0.304  -0.302  -0.301  -0.295  -0.294
 -0.292  -0.291  -0.290  -0.288  -0.285  -0.283  -0.283  -0.278
 -0.278  -0.272  -0.264  -0.263  -0.252  -0.251  -0.249  -0.248
 -0.244  -0.241  -0.232  -0.223  -0.193  -0.191

          Ground-State Mulliken Net Atomic Charges

     Atom                 Charge (a.u.)
  ----------------------------------------
      1 C                     0.252420
      2 C                    -0.122217
      3 N                    -0.481013
      4 C                    -0.093643
      5 C                     0.094379
      6 C                     0.050007
      7 C                     0.073796
      8 C                     0.041050
      9 C                     0.258766
     10 N                    -0.515989
     11 N                    -0.569457
     12 C                     0.202171
     13 C                     0.247055
     14 S                     0.631534
     15 N                    -0.543928
     16 C                    -0.203153
     17 S                     0.307238
     18 C                    -0.115520
     19 C                    -0.239115
     20 S                     0.273907
     21 C                     0.160537
     22 C                     0.067808
     23 C                    -0.296119
     24 C                    -0.082560
     25 N                    -0.431446
     26 S                     0.265821
     27 C                     0.140716
     28 C                    -0.314356
     29 C                    -0.215735
     30 H                     0.097562
     31 H                     0.103527
     32 H                     0.116734
     33 H                     0.107514
     34 H                     0.131339
     35 H                     0.120569
     36 H                     0.112054
     37 H                     0.130144
     38 H                     0.114276
     39 C                    -0.183939
     40 H                     0.093136
     41 H                     0.093918
     42 H                     0.122747
     43 C                    -0.196287
     44 H                     0.087715
     45 C                    -0.172622
     46 H                     0.103771
     47 H                     0.101784
     48 H                     0.098862
     49 C                    -0.187262
     50 H                     0.097536
     51 C                    -0.325288
     52 H                     0.091896
     53 H                     0.106242
     54 H                     0.099575
     55 H                     0.099322
     56 C                     0.294065
     57 C                    -0.113381
     58 N                    -0.491256
     59 C                    -0.089718
     60 C                     0.102250
     61 C                     0.012639
     62 C                    -0.018106
     63 C                     0.062220
     64 C                     0.230696
     65 N                    -0.509360
     66 N                    -0.569302
     67 C                     0.217744
     68 C                     0.313029
     69 S                     0.634227
     70 N                    -0.557809
     71 C                    -0.215079
     72 S                     0.353656
     73 C                    -0.111253
     74 C                    -0.225800
     75 S                     0.256682
     76 C                     0.119948
     77 C                     0.068800
     78 C                    -0.304034
     79 C                    -0.076093
     80 N                    -0.421740
     81 S                     0.286080
     82 C                     0.120114
     83 C                    -0.325546
     84 C                    -0.248477
     85 H                     0.094831
     86 H                     0.097693
     87 H                     0.106331
     88 H                     0.120683
     89 H                     0.135973
     90 H                     0.111479
     91 H                     0.120680
     92 H                     0.133395
     93 H                     0.112868
     94 C                    -0.167649
     95 H                     0.117561
     96 H                     0.130136
     97 H                     0.103647
     98 C                    -0.193185
     99 H                     0.085947
    100 C                    -0.178236
    101 H                     0.083715
    102 H                     0.100224
    103 H                     0.091435
    104 C                    -0.184326
    105 H                     0.092469
    106 C                    -0.308845
    107 H                     0.091784
    108 H                     0.100183
    109 H                     0.094264
    110 H                     0.103973
  ----------------------------------------
  Sum of atomic charges =     0.000000

                    Cartesian Multipole Moments
 -----------------------------------------------------------------
    Charge (ESU x 10^10)
                 0.0000
    Dipole Moment (Debye)
         X       2.1359      Y      -1.3261      Z       1.6155
       Tot       2.9884
    Quadrupole Moments (Debye-Ang)
        XX    -396.9448     XY      17.2965     YY    -427.5135
        XZ       9.5296     YZ      10.5116     ZZ    -447.4293

 Total job time:  96.51s(wall), 1166.93s(cpu)
        *  Thank you very much for using Q-Chem.  Have a nice day.  *
