 Q-Chem 4.4, Q-Chem, Inc., Pleasanton, CA (2016)
 Q-Chem 4.4.2 for Intel X86 Linux

User input:
--------------------------------------------------------------
$comment
SP
$end

$rem
MEM_STATIC 5000
MEM_TOTAL 20000
JOBTYPE SP
EXCHANGE B3LYP
BASIS 6-31g(d,p)
$end

$molecule
0 1
C         -18.443000     21.792000     -5.629000
C         -19.268000     21.973000     -4.432000
N         -18.163000     20.596000     -6.155000
C         -19.687000     20.812000     -3.802000
C         -18.681000     19.503000     -5.563000
C         -19.416000     19.589000     -4.395000
C         -20.113000     18.355000     -3.855000
C         -21.266000     17.900000     -4.551000
C         -19.608000     17.480000     -2.851000
N         -21.904000     16.717000     -4.307000
N         -18.526000     17.807000     -2.059000
C         -20.318000     16.347000     -2.529000
C         -21.479000     15.984000     -3.245000
S         -18.355000     16.496000     -1.105000
N         -19.706000     15.644000     -1.465000
C         -22.366000     14.988000     -2.729000
S         -22.607000     14.421000     -1.016000
C         -23.312000     14.362000     -3.492000
C         -23.864000     13.358000     -1.476000
S         -23.557000     14.571000     -5.204000
C         -24.136000     13.482000     -2.847000
C         -24.425000     12.315000     -0.602000
C         -24.762000     13.281000     -5.101000
C         -24.980000     12.841000     -3.821000
N         -25.061000     11.352000     -1.183000
S         -24.097000     12.160000      1.131000
C         -25.324000     10.378000     -0.282000
C         -24.676000     10.557000      0.927000
C         -17.821000     23.029000     -6.185000
H         -19.464000     22.912000     -3.924000
H         -20.222000     20.923000     -2.863000
H         -18.481000     18.501000     -5.941000
H         -21.575000     18.343000     -5.496000
H         -25.111000     12.875000     -6.041000
H         -25.624000     12.005000     -3.572000
H         -25.791000      9.483000     -0.673000
H         -24.639000      9.997000      1.852000
H         -16.938000     23.260000     -5.578000
C         -18.624000     24.309000     -6.346000
H         -17.282000     22.761000     -7.103000
H         -17.965000     25.164000     -6.544000
H         -19.137000     24.585000     -5.416000
C         -19.696000     24.279000     -7.469000
H         -20.521000     23.650000     -7.115000
C         -19.126000     23.681000     -8.777000
H         -20.050000     25.293000     -7.696000
H         -19.928000     23.576000     -9.517000
H         -18.821000     22.635000     -8.651000
C         -18.029000     24.485000     -9.422000
H         -17.260000     24.694000     -8.668000
C         -18.452000     25.818000    -10.027000
H         -17.580000     23.870000    -10.211000
H         -17.581000     26.269000    -10.518000
H         -18.812000     26.536000     -9.280000
H         -19.185000     25.716000    -10.837000
C         -23.853000     22.864000     -7.530000
C         -22.954000     22.217000     -6.671000
N         -23.969000     22.497000     -8.807000
C         -22.213000     21.170000     -7.124000
C         -23.292000     21.446000     -9.265000
C         -22.450000     20.647000     -8.468000
C         -21.550000     19.585000     -9.061000
C         -20.121000     19.741000     -9.021000
C         -22.085000     18.595000     -9.907000
N         -19.296000     18.771000     -9.633000
N         -23.423000     18.461000    -10.136000
C         -21.251000     17.644000    -10.363000
C         -19.821000     17.756000    -10.264000
S         -23.523000     16.986000    -10.809000
N         -21.954000     16.638000    -10.859000
C         -18.756000     16.912000    -10.820000
S         -17.093000     16.890000    -10.213000
C         -18.809000     16.277000    -11.996000
C         -16.525000     16.140000    -11.702000
S         -20.089000     16.286000    -13.212000
C         -17.613000     15.801000    -12.507000
C         -15.090000     15.952000    -11.998000
C         -18.926000     15.670000    -14.463000
C         -17.681000     15.396000    -13.897000
N         -14.261000     16.501000    -11.141000
S         -14.332000     15.182000    -13.358000
C         -12.950000     16.373000    -11.527000
C         -12.824000     15.581000    -12.661000
C         -24.634000     24.065000     -7.063000
H         -22.839000     22.580000     -5.654000
H         -21.369000     20.773000     -6.568000
H         -23.493000     21.279000    -10.322000
H         -19.623000     20.520000     -8.446000
H         -19.276000     15.653000    -15.487000
H         -16.831000     15.123000    -14.512000
H         -12.279000     16.840000    -10.818000
H         -11.883000     15.333000    -13.133000
H         -24.939000     23.853000     -6.031000
C         -25.953000     24.321000     -7.764000
H         -23.947000     24.919000     -7.073000
H         -26.673000     23.511000     -7.595000
H         -25.795000     24.529000     -8.829000
C         -26.691000     25.556000     -7.258000
H         -26.807000     25.674000     -6.174000
C         -28.110000     25.562000     -7.956000
H         -26.192000     26.512000     -7.457000
H         -28.716000     24.873000     -7.356000
H         -28.100000     25.211000     -8.995000
C         -28.717000     26.992000     -7.912000
H         -28.557000     27.507000     -6.957000
C         -30.208000     26.865000     -8.234000
H         -28.243000     27.577000     -8.710000
H         -30.321000     26.343000     -9.192000
H         -30.672000     27.859000     -8.260000
H         -30.585000     26.233000     -7.420000
$end

--------------------------------------------------------------

             Standard Nuclear Orientation (Angstroms)
    I     Atom           X                Y                Z
 ----------------------------------------------------------------
    1      C      -1.7647763019    -1.3380735678     4.0765568652
    2      C      -0.6420615901    -2.2542858869     4.2916421090
    3      N      -1.6430570474    -0.1574035084     3.4628023264
    4      C       0.6029897575    -1.7926795753     3.8952221864
    5      C      -0.4284073343     0.1992865635     3.0036343102
    6      C       0.6900952506    -0.5830726045     3.2243402227
    7      C       2.0012931647    -0.2234247527     2.5523443501
    8      C       2.1053298116    -0.4630056783     1.1549799180
    9      C       3.0617688093     0.5285585241     3.1342193871
   10      N       3.1395403028    -0.0396966185     0.3693037125
   11      N       3.1242873514     0.7975822484     4.4864895774
   12      C       4.1554864539     0.8522193262     2.3657804506
   13      C       4.1985287147     0.5435082178     0.9891211553
   14      S       4.4921452865     1.6734507345     4.6275465314
   15      N       5.1346217246     1.5309268402     3.1283414200
   16      C       5.4328860846     0.6112388742     0.2702223853
   17      S       7.1433053617     0.5084957688     0.8849164156
   18      C       5.5020665886     0.6442625317    -1.0947261471
   19      C       7.7860118467     0.6040346897    -0.6960385770
   20      S       4.1509914421     0.7056974367    -2.1926659000
   21      C       6.7534278840     0.6375545499    -1.6455899336
   22      C       9.2081556609     0.8351136469    -0.9969629651
   23      C       5.3311217842     0.8806628215    -3.4978147382
   24      C       6.6310748992     0.7920512836    -3.0714417865
   25      N       9.4865195499     1.2752433867    -2.1794287606
   26      S      10.5180240046     0.7814455178     0.1931053751
   27      C      10.7887484909     1.6375830372    -2.2299833151
   28      C      11.4046525113     1.6516775670    -0.9913996151
   29      C      -3.0636222776    -1.7439027083     4.6885134324
   30      H      -0.6723139982    -3.1868161603     4.8463249742
   31      H       1.4605969222    -2.4174337603     4.1285870497
   32      H      -0.2656929620     1.1529646629     2.5027250212
   33      H       1.2485673708    -0.7826125391     0.5645863420
   34      H       4.9379718054     1.1660256642    -4.4643746909
   35      H       7.4891071681     0.9524381141    -3.7146289212
   36      H      11.1193937954     2.0927492781    -3.1549116235
   37      H      12.4028268139     1.8906388906    -0.6491430632
   38      H      -3.0242766720    -1.4891493823     5.7539014679
   39      C      -3.5784714446    -3.1685597398     4.5684606195
   40      H      -3.8239328665    -1.0044283490     4.4053624472
   41      H      -4.4122022318    -3.3446658341     5.2601177730
   42      H      -2.8221850013    -3.9001484758     4.8799951070
   43      C      -4.0570509085    -3.5802409497     3.1497664036
   44      H      -3.1627267910    -3.7110410887     2.5295586187
   45      C      -4.9573897407    -2.4910715778     2.5201093012
   46      H      -4.6410748547    -4.5088405152     3.1905079947
   47      H      -5.1944390418    -2.7594222098     1.4839507384
   48      H      -4.4176723600    -1.5477267867     2.3723840357
   49      C      -6.2647032505    -2.2552203773     3.2280327422
   50      H      -6.0598090077    -2.0881153093     4.2927638094
   51      C      -7.2850415006    -3.3825852334     3.1290310420
   52      H      -6.7112352343    -1.3426270339     2.8155650745
   53      H      -8.2082941365    -3.0605793953     3.6260620375
   54      H      -6.9563922155    -4.3063750417     3.6206966170
   55      H      -7.6021649066    -3.5943347010     2.1002512267
   56      C      -1.9020198034    -5.1433516350    -0.3429575937
   57      C      -1.2119910254    -4.2802908332     0.5194096935
   58      N      -2.6587372207    -4.6664745749    -1.3323215408
   59      C      -1.2737467042    -2.9347702941     0.3289898547
   60      C      -2.6997995851    -3.3573629542    -1.5715591777
   61      C      -1.9580351366    -2.4038482189    -0.8482548485
   62      C      -2.1762878627    -0.9162299715    -1.0181097790
   63      C      -2.7288847340    -0.1373210321     0.0570248926
   64      C      -2.1246750287    -0.3346092287    -2.2991618571
   65      N      -2.9838330659     1.2385836088    -0.1378000727
   66      N      -1.7621157343    -1.0312928631    -3.4144302874
   67      C      -2.2718049227     0.9989804299    -2.3873912000
   68      C      -2.7559097243     1.7984293825    -1.2947938757
   69      S      -1.4744903337     0.1484883801    -4.4932916534
   70      N      -1.8814406250     1.4102618067    -3.5835200995
   71      C      -3.1178473600     3.2202344493    -1.2385044452
   72      S      -3.2195416207     4.1563474253     0.2607796418
   73      C      -3.6776852434     3.9143103819    -2.2354247750
   74      C      -4.1797201680     5.3965909621    -0.5405306143
   75      S      -4.1758165208     3.3622979782    -3.8367631329
   76      C      -4.2439119808     5.1355199724    -1.9096220464
   77      C      -4.8143502288     6.5080709392     0.1970613775
   78      C      -5.2307118765     4.8274478139    -4.0305613456
   79      C      -5.0851465690     5.6955462320    -2.9485849698
   80      N      -4.7291488075     6.4379115673     1.5050787246
   81      S      -5.7307193615     7.8553168294    -0.4048191125
   82      C      -5.4215209313     7.4459083850     2.1285081574
   83      C      -5.9292219926     8.3608023002     1.2151053129
   84      C      -1.8962095622    -6.6317259718    -0.1080979023
   85      H      -0.6544102733    -4.6983642592     1.3522369957
   86      H      -0.9305749933    -2.2265980443     1.0771918605
   87      H      -3.3610919101    -3.1307368130    -2.4063478054
   88      H      -2.8668565404    -0.5265802540     1.0644528249
   89      H      -5.8928489105     4.8411444625    -4.8865706621
   90      H      -5.7170961670     6.5695948657    -2.8393481103
   91      H      -5.3525493770     7.3689584115     3.2056955256
   92      H      -6.4953721852     9.2427484422     1.4823392218
   93      H      -0.8776857618    -6.8910444168     0.2055200372
   94      C      -2.1110149418    -7.5039149903    -1.3286891381
   95      H      -2.5934827356    -6.8302090688     0.7139724000
   96      H      -1.3019753069    -7.3935472642    -2.0610379855
   97      H      -3.1014138804    -7.3274085850    -1.7650472839
   98      C      -2.1079123708    -8.9988519473    -1.0269295175
   99      H      -1.2886653713    -9.3953524601    -0.4153269527
  100      C      -2.1540418604    -9.7490161358    -2.4183053691
  101      H      -2.9392641738    -9.3510215044    -0.4045399429
  102      H      -1.1143772527    -9.7501383948    -2.7662324362
  103      H      -2.7788665790    -9.2560473253    -3.1728899057
  104      C      -2.6575059603   -11.2057994118    -2.2193295239
  105      H      -2.2435895058   -11.6949870078    -1.3292628610
  106      C      -2.3170100152   -11.9842395424    -3.4925095875
  107      H      -3.7497466396   -11.1678091108    -2.1230381145
  108      H      -2.7460792732   -11.4594753832    -4.3547967491
  109      H      -2.6960714360   -13.0111719143    -3.4168105597
  110      H      -1.2217471039   -11.9294171652    -3.5317863244
 ----------------------------------------------------------------

   10   -5663.4935407270      4.32E-06 Convergence criterion met
 Total energy in the final basis set = -5663.4935407270

                    Orbital Energies (a.u.)
 --------------------------------------------------------------

 Alpha MOs
 -- Occupied --
-88.991 -88.986 -88.929 -88.928 -88.927 -88.915 -88.901 -88.900
-14.390 -14.383 -14.375 -14.374 -14.351 -14.343 -14.341 -14.337
-14.333 -14.318 -10.270 -10.263 -10.261 -10.256 -10.256 -10.255
-10.247 -10.244 -10.242 -10.241 -10.241 -10.238 -10.237 -10.235
-10.232 -10.232 -10.231 -10.229 -10.227 -10.226 -10.226 -10.224
-10.223 -10.222 -10.219 -10.219 -10.219 -10.217 -10.212 -10.212
-10.210 -10.208 -10.207 -10.206 -10.206 -10.204 -10.192 -10.191
-10.185 -10.183 -10.181 -10.175 -10.174 -10.172 -10.171 -10.171
-10.171 -10.168 -10.167 -10.166  -8.046  -8.041  -7.991  -7.990
 -7.986  -7.973  -7.961  -7.960  -6.011  -6.006  -6.006  -6.005
 -6.001  -5.999  -5.955  -5.953  -5.951  -5.950  -5.950  -5.948
 -5.947  -5.946  -5.943  -5.938  -5.934  -5.930  -5.926  -5.925
 -5.922  -5.921  -5.918  -5.916  -1.045  -1.028  -0.985  -0.969
 -0.955  -0.952  -0.946  -0.938  -0.913  -0.907  -0.898  -0.891
 -0.844  -0.835  -0.834  -0.827  -0.817  -0.813  -0.810  -0.809
 -0.804  -0.800  -0.800  -0.791  -0.785  -0.782  -0.765  -0.763
 -0.748  -0.745  -0.736  -0.735  -0.727  -0.719  -0.709  -0.706
 -0.692  -0.687  -0.669  -0.665  -0.660  -0.649  -0.643  -0.640
 -0.636  -0.631  -0.629  -0.620  -0.618  -0.605  -0.601  -0.598
 -0.593  -0.590  -0.585  -0.579  -0.576  -0.573  -0.569  -0.551
 -0.545  -0.543  -0.539  -0.533  -0.522  -0.521  -0.515  -0.511
 -0.509  -0.501  -0.500  -0.498  -0.496  -0.480  -0.476  -0.474
 -0.473  -0.472  -0.467  -0.465  -0.465  -0.461  -0.459  -0.450
 -0.447  -0.445  -0.439  -0.437  -0.435  -0.431  -0.429  -0.427
 -0.425  -0.423  -0.421  -0.421  -0.416  -0.415  -0.414  -0.412
 -0.411  -0.410  -0.408  -0.401  -0.399  -0.397  -0.396  -0.394
 -0.392  -0.390  -0.388  -0.386  -0.385  -0.384  -0.380  -0.379
 -0.377  -0.376  -0.373  -0.371  -0.365  -0.362  -0.355  -0.351
 -0.350  -0.348  -0.347  -0.344  -0.344  -0.343  -0.338  -0.337
 -0.336  -0.334  -0.334  -0.329  -0.328  -0.325  -0.321  -0.316
 -0.314  -0.310  -0.303  -0.302  -0.302  -0.301  -0.300  -0.297
 -0.294  -0.293  -0.292  -0.289  -0.288  -0.288  -0.280  -0.279
 -0.275  -0.268  -0.260  -0.259  -0.252  -0.250  -0.249  -0.248
 -0.244  -0.238  -0.238  -0.227  -0.193  -0.190

          Ground-State Mulliken Net Atomic Charges

     Atom                 Charge (a.u.)
  ----------------------------------------
      1 C                     0.279622
      2 C                    -0.109347
      3 N                    -0.487524
      4 C                    -0.066636
      5 C                     0.082219
      6 C                     0.038661
      7 C                    -0.055346
      8 C                     0.066321
      9 C                     0.224939
     10 N                    -0.505321
     11 N                    -0.534405
     12 C                     0.186675
     13 C                     0.271911
     14 S                     0.621170
     15 N                    -0.544749
     16 C                    -0.188021
     17 S                     0.317816
     18 C                    -0.126144
     19 C                    -0.252553
     20 S                     0.282990
     21 C                     0.182721
     22 C                     0.082490
     23 C                    -0.308186
     24 C                    -0.061467
     25 N                    -0.409151
     26 S                     0.265592
     27 C                     0.114950
     28 C                    -0.307301
     29 C                    -0.246719
     30 H                     0.099869
     31 H                     0.103629
     32 H                     0.118477
     33 H                     0.120111
     34 H                     0.128122
     35 H                     0.118542
     36 H                     0.113668
     37 H                     0.135402
     38 H                     0.118313
     39 C                    -0.186784
     40 H                     0.125274
     41 H                     0.098410
     42 H                     0.085249
     43 C                    -0.182978
     44 H                     0.098007
     45 C                    -0.186265
     46 H                     0.092804
     47 H                     0.088580
     48 H                     0.103159
     49 C                    -0.170282
     50 H                     0.090190
     51 C                    -0.317470
     52 H                     0.096017
     53 H                     0.099212
     54 H                     0.100168
     55 H                     0.103639
     56 C                     0.282607
     57 C                    -0.117653
     58 N                    -0.482955
     59 C                    -0.083420
     60 C                     0.103973
     61 C                     0.013796
     62 C                    -0.027067
     63 C                     0.056681
     64 C                     0.225822
     65 N                    -0.509611
     66 N                    -0.543204
     67 C                     0.222432
     68 C                     0.310668
     69 S                     0.607762
     70 N                    -0.554937
     71 C                    -0.214672
     72 S                     0.355875
     73 C                    -0.109135
     74 C                    -0.225944
     75 S                     0.247505
     76 C                     0.120769
     77 C                     0.069134
     78 C                    -0.302981
     79 C                    -0.076380
     80 N                    -0.421217
     81 S                     0.284772
     82 C                     0.119708
     83 C                    -0.325506
     84 C                    -0.235851
     85 H                     0.083694
     86 H                     0.107366
     87 H                     0.107042
     88 H                     0.141447
     89 H                     0.137507
     90 H                     0.111488
     91 H                     0.120531
     92 H                     0.132512
     93 H                     0.100683
     94 C                    -0.159383
     95 H                     0.118876
     96 H                     0.099069
     97 H                     0.119107
     98 C                    -0.191028
     99 H                     0.082665
    100 C                    -0.175823
    101 H                     0.085910
    102 H                     0.091697
    103 H                     0.098172
    104 C                    -0.184953
    105 H                     0.091190
    106 C                    -0.308143
    107 H                     0.093592
    108 H                     0.101968
    109 H                     0.094079
    110 H                     0.101498
  ----------------------------------------
  Sum of atomic charges =     0.000000

                    Cartesian Multipole Moments
 -----------------------------------------------------------------
    Charge (ESU x 10^10)
                 0.0000
    Dipole Moment (Debye)
         X       1.7681      Y       0.7518      Z       1.4678
       Tot       2.4178
    Quadrupole Moments (Debye-Ang)
        XX    -392.5199     XY     -14.2082     YY    -422.9879
        XZ       4.2598     YZ     -17.4036     ZZ    -421.6244

 Total job time:  95.32s(wall), 1138.75s(cpu)
        *  Thank you very much for using Q-Chem.  Have a nice day.  *
