 Q-Chem 4.4, Q-Chem, Inc., Pleasanton, CA (2016)
 Q-Chem 4.4.2 for Intel X86 Linux

User input:
--------------------------------------------------------------
$comment
SP
$end

$rem
MEM_STATIC 5000
MEM_TOTAL 20000
JOBTYPE SP
EXCHANGE B3LYP
BASIS 6-31g(d,p)
$end

$molecule
0 1
C         -13.976000     12.100000     -7.671000
C         -14.325000     12.909000     -6.583000
N         -13.410000     12.557000     -8.794000
C         -14.010000     14.252000     -6.628000
C         -12.971000     13.853000     -8.789000
C         -13.253000     14.778000     -7.721000
C         -12.775000     16.205000     -7.771000
C         -11.577000     16.663000     -8.423000
C         -13.650000     17.279000     -7.465000
N         -11.153000     17.895000     -8.556000
N         -14.850000     17.168000     -6.858000
C         -13.195000     18.627000     -7.530000
C         -11.890000     18.887000     -8.042000
S         -15.384000     18.681000     -6.676000
N         -14.095000     19.576000     -7.105000
C         -11.411000     20.256000     -8.151000
S         -12.050000     21.726000     -7.368000
C         -10.275000     20.636000     -8.862000
C         -10.695000     22.742000     -7.918000
S          -9.216000     19.712000     -9.943000
C          -9.901000     22.025000     -8.664000
C         -10.618000     24.163000     -7.595000
C          -8.244000     21.229000    -10.052000
C          -8.809000     22.357000     -9.468000
N         -11.226000     24.591000     -6.481000
S          -9.807000     25.425000     -8.516000
C         -11.333000     25.965000     -6.461000
C         -10.707000     26.603000     -7.553000
C         -14.393000     10.620000     -7.587000
H         -14.619000     12.503000     -5.619000
H         -14.160000     14.900000     -5.770000
H         -12.474000     14.095000     -9.728000
H         -10.855000     15.985000     -8.876000
H          -7.233000     21.096000    -10.415000
H          -8.386000     23.354000     -9.510000
H         -11.915000     26.476000     -5.707000
H         -10.648000     27.657000     -7.792000
H         -15.408000     10.529000     -7.181000
C         -13.406000      9.754000     -6.693000
H         -14.464000     10.257000     -8.619000
H         -13.600000      9.953000     -5.632000
H         -12.422000     10.224000     -6.813000
C         -13.547000      8.193000     -6.925000
H         -14.275000      7.838000     -6.185000
C         -12.167000      7.562000     -6.620000
H         -13.884000      7.914000     -7.931000
H         -11.819000      7.710000     -5.590000
H         -11.402000      8.097000     -7.195000
C         -12.076000      6.054000     -6.989000
H         -12.767000      5.459000     -6.380000
C         -10.614000      5.682000     -6.714000
H         -12.388000      5.938000     -8.034000
H         -10.457000      4.615000     -6.910000
H         -10.480000      5.759000     -5.628000
H          -9.840000      6.326000     -7.149000
C         -23.853000     22.864000     -7.530000
C         -22.954000     22.217000     -6.671000
N         -23.969000     22.497000     -8.807000
C         -22.213000     21.170000     -7.124000
C         -23.292000     21.446000     -9.265000
C         -22.450000     20.647000     -8.468000
C         -21.550000     19.585000     -9.061000
C         -20.121000     19.741000     -9.021000
C         -22.085000     18.595000     -9.907000
N         -19.296000     18.771000     -9.633000
N         -23.423000     18.461000    -10.136000
C         -21.251000     17.644000    -10.363000
C         -19.821000     17.756000    -10.264000
S         -23.523000     16.986000    -10.809000
N         -21.954000     16.638000    -10.859000
C         -18.756000     16.912000    -10.820000
S         -17.093000     16.890000    -10.213000
C         -18.809000     16.277000    -11.996000
C         -16.525000     16.140000    -11.702000
S         -20.089000     16.286000    -13.212000
C         -17.613000     15.801000    -12.507000
C         -15.090000     15.952000    -11.998000
C         -18.926000     15.670000    -14.463000
C         -17.681000     15.396000    -13.897000
N         -14.261000     16.501000    -11.141000
S         -14.332000     15.182000    -13.358000
C         -12.950000     16.373000    -11.527000
C         -12.824000     15.581000    -12.661000
C         -24.634000     24.065000     -7.063000
H         -22.839000     22.580000     -5.654000
H         -21.369000     20.773000     -6.568000
H         -23.493000     21.279000    -10.322000
H         -19.623000     20.520000     -8.446000
H         -19.276000     15.653000    -15.487000
H         -16.831000     15.123000    -14.512000
H         -12.279000     16.840000    -10.818000
H         -11.883000     15.333000    -13.133000
H         -24.939000     23.853000     -6.031000
C         -25.953000     24.321000     -7.764000
H         -23.947000     24.919000     -7.073000
H         -26.673000     23.511000     -7.595000
H         -25.795000     24.529000     -8.829000
C         -26.691000     25.556000     -7.258000
H         -26.807000     25.674000     -6.174000
C         -28.110000     25.562000     -7.956000
H         -26.192000     26.512000     -7.457000
H         -28.716000     24.873000     -7.356000
H         -28.100000     25.211000     -8.995000
C         -28.717000     26.992000     -7.912000
H         -28.557000     27.507000     -6.957000
C         -30.208000     26.865000     -8.234000
H         -28.243000     27.577000     -8.710000
H         -30.321000     26.343000     -9.192000
H         -30.672000     27.859000     -8.260000
H         -30.585000     26.233000     -7.420000
$end

--------------------------------------------------------------

             Standard Nuclear Orientation (Angstroms)
    I     Atom           X                Y                Z
 ----------------------------------------------------------------
    1      C      -5.5324094184    -3.5986598689    -1.7576495868
    2      C      -4.8038886050    -2.9848916471    -2.7835989006
    3      N      -5.7340317148    -3.0543323679    -0.5520833211
    4      C      -4.3152127328    -1.7105415702    -2.5783508227
    5      C      -5.3750451944    -1.7437758816    -0.3910480010
    6      C      -4.6371455814    -1.0000378348    -1.3800529954
    7      C      -4.2367739365     0.4328721851    -1.1481383110
    8      C      -4.9676373910     1.3877132397    -0.3580818754
    9      C      -2.9149245632     0.8736994940    -1.4148263649
   10      N      -4.6303326436     2.6194945892    -0.0678591777
   11      N      -1.9882263136     0.1977710866    -2.1255451152
   12      C      -2.5393859310     2.2269056770    -1.1778500745
   13      C      -3.4711424227     3.0957840840    -0.5378116740
   14      S      -0.7028750709     1.1725317976    -2.1973973187
   15      N      -1.2679265380     2.5662970788    -1.5771375501
   16      C      -3.1032896773     4.4738733132    -0.2531409275
   17      S      -1.7617438687     5.4326487629    -0.9338130076
   18      C      -3.8255626272     5.3226288296     0.5825341644
   19      C      -2.3126324125     6.9469396114    -0.1760359702
   20      S      -5.2074322007     5.0071328949     1.6477650301
   21      C      -3.3629675108     6.6987523019     0.5562482919
   22      C      -1.5871977544     8.2015062377    -0.3472263235
   23      C      -5.1660250380     6.7793813767     1.9874336418
   24      C      -4.0744500824     7.4716930608     1.4757368093
   25      N      -0.8567157614     8.3617740027    -1.4583313147
   26      S      -1.5451633884     9.5702092307     0.7588890543
   27      C      -0.0013543080     9.4369842180    -1.3487650016
   28      C      -0.1521018805    10.1675240475    -0.1508623649
   29      C      -6.0133633762    -5.0371578817    -2.0236416123
   30      H      -4.7976501203    -3.3574834208    -3.8042381373
   31      H      -3.8390041078    -1.1491155344    -3.3762193281
   32      H      -5.6415276969    -1.3909403718     0.6048376244
   33      H      -5.9398452301     1.1696305334     0.0817235940
   34      H      -6.0748953898     7.1813910705     2.4162947962
   35      H      -3.8685152180     8.5210816987     1.6520215739
   36      H       0.7580256520     9.6336014076    -2.0924347919
   37      H       0.3899256298    11.0374687103     0.1968738308
   38      H      -5.2266816496    -5.6203397820    -2.5179823169
   39      C      -7.3258862842    -5.0902317318    -2.9168536714
   40      H      -6.1451474683    -5.5082973583    -1.0425735481
   41      H      -7.0660921248    -4.8967831209    -3.9647289644
   42      H      -7.8786276636    -4.1751568259    -2.6705390678
   43      C      -8.0774012175    -6.4837336538    -2.8551795401
   44      H      -7.6800283695    -7.0828464790    -3.6838939917
   45      C      -9.5780579092    -6.2020855563    -3.1087339585
   46      H      -7.9419049632    -7.0292322809    -1.9130977958
   47      H      -9.7960670894    -5.7553215795    -4.0868862710
   48      H      -9.9075752819    -5.4130243877    -2.4225300725
   49      C     -10.4909059668    -7.4414601991    -2.8870023225
   50      H     -10.2566636444    -8.2346958946    -3.6069291699
   51      C     -11.9147074441    -6.9050618313    -3.0781021510
   52      H     -10.2847343241    -7.8439181786    -1.8878297506
   53      H     -12.6381924012    -7.7224644228    -2.9782196187
   54      H     -11.9954302316    -6.6277448905    -4.1363365985
   55      H     -12.1924738926    -6.0032161602    -2.5190340106
   56      C       8.6681918859    -0.1690094247    -1.6193512661
   57      C       7.5513074778    -0.0948052825    -2.4630063877
   58      N       8.5743355078    -0.6998543401    -0.3994050968
   59      C       6.3574005748    -0.6063299606    -2.0587443308
   60      C       7.4313547523    -1.2506613511     0.0042044044
   61      C       6.2776483503    -1.3411196303    -0.7978883819
   62      C       4.9450610542    -1.7952268639    -0.2433699254
   63      C       3.8460188333    -0.8724258944    -0.1510575898
   64      C       4.8461931436    -3.0150892509     0.4524762452
   65      N       2.6272222597    -1.2946211398     0.4254448710
   66      N       5.8841886416    -3.8938614548     0.5571937688
   67      C       3.6287351162    -3.3965693340     0.8769310691
   68      C       2.5036273420    -2.5018575280     0.9063976744
   69      S       5.1517339106    -5.2506933482     1.0681451171
   70      N       3.6562940056    -4.6773018931     1.2104361210
   71      C       1.1553762747    -2.6805181671     1.4595671200
   72      S      -0.2436902465    -1.7020672923     0.9907934486
   73      C       0.8585169604    -3.3843052103     2.5575508837
   74      C      -1.1163670565    -2.1979526736     2.4381281970
   75      S       1.9395711970    -4.2404032863     3.6600729116
   76      C      -0.3935669230    -3.1817143545     3.1137485949
   77      C      -2.4084977609    -1.5984630845     2.8295301328
   78      C       0.6452631940    -4.2666738947     4.9332982052
   79      C      -0.5471540594    -3.7319072448     4.4458325919
   80      N      -2.7998059153    -0.5780631026     2.1023762252
   81      S      -3.4514662482    -1.9892784546     4.1624007496
   82      C      -3.9545311328    -0.0092248215     2.5789616657
   83      C      -4.4880109310    -0.7380664069     3.6340849990
   84      C       9.9810711591     0.4490742712    -2.0252718973
   85      H       7.6467575833     0.3987006662    -3.4256195789
   86      H       5.4291638532    -0.3956125604    -2.5812917123
   87      H       7.5171053262    -1.6353733313     1.0191834836
   88      H       3.8609521194     0.1182999015    -0.6023993607
   89      H       0.9379722527    -4.6058685655     5.9185054840
   90      H      -1.3976707477    -3.5665841756     5.0974027306
   91      H      -4.2588041336     0.8373149988     1.9774641399
   92      H      -5.4017262240    -0.4834768010     4.1537748063
   93      H      10.1039219018     0.2389594494    -3.0947355277
   94      C      11.2263965207    -0.1587745580    -1.4117716573
   95      H       9.8877894213     1.5305922859    -1.8736068013
   96      H      11.3697819015    -1.2017934077    -1.7193644265
   97      H      11.2236598163    -0.0373850977    -0.3219505209
   98      C      12.5221241999     0.5160842192    -1.8494478071
   99      H      12.6717314108     0.6888532148    -2.9219237073
  100      C      13.7108629308    -0.3525202403    -1.2721891798
  101      H      12.6439294850     1.5534487981    -1.5154175643
  102      H      13.8222240279    -1.1773996681    -1.9857223855
  103      H      13.5186507742    -0.7699456666    -0.2763817183
  104      C      15.0120513869     0.4957854739    -1.2214839827
  105      H      15.1557089443     1.1313537980    -2.1036775055
  106      C      16.1819695790    -0.4736941028    -1.0362954998
  107      H      14.9544514860     1.1366015273    -0.3328096683
  108      H      15.9954440155    -1.0894591353    -0.1480057729
  109      H      17.1219907899     0.0854447648    -0.9483645617
  110      H      16.1326738962    -1.0975940441    -1.9376654565
 ----------------------------------------------------------------

    9   -5663.4954552282      8.19E-06 Convergence criterion met
 Total energy in the final basis set = -5663.4954552282

                    Orbital Energies (a.u.)
 --------------------------------------------------------------

 Alpha MOs
 -- Occupied --
-88.989 -88.984 -88.930 -88.930 -88.917 -88.915 -88.913 -88.902
-14.387 -14.379 -14.379 -14.376 -14.348 -14.346 -14.344 -14.334
-14.327 -14.320 -10.272 -10.265 -10.260 -10.259 -10.253 -10.252
-10.251 -10.248 -10.245 -10.239 -10.238 -10.236 -10.235 -10.235
-10.233 -10.233 -10.232 -10.230 -10.228 -10.228 -10.227 -10.227
-10.226 -10.225 -10.225 -10.225 -10.221 -10.221 -10.219 -10.215
-10.210 -10.209 -10.207 -10.206 -10.204 -10.202 -10.193 -10.191
-10.185 -10.183 -10.182 -10.181 -10.177 -10.175 -10.174 -10.173
-10.173 -10.172 -10.170 -10.168  -8.045  -8.040  -7.992  -7.990
 -7.976  -7.973  -7.972  -7.962  -6.010  -6.005  -6.005  -6.003
 -5.999  -5.998  -5.955  -5.954  -5.952  -5.951  -5.949  -5.947
 -5.940  -5.938  -5.936  -5.936  -5.934  -5.933  -5.932  -5.929
 -5.928  -5.927  -5.923  -5.918  -1.049  -1.035  -0.970  -0.967
 -0.961  -0.956  -0.940  -0.931  -0.910  -0.909  -0.902  -0.902
 -0.838  -0.836  -0.830  -0.825  -0.810  -0.809  -0.806  -0.803
 -0.800  -0.798  -0.794  -0.793  -0.784  -0.780  -0.766  -0.762
 -0.747  -0.746  -0.740  -0.737  -0.721  -0.712  -0.708  -0.708
 -0.690  -0.689  -0.673  -0.669  -0.651  -0.647  -0.644  -0.640
 -0.632  -0.628  -0.622  -0.621  -0.607  -0.604  -0.599  -0.598
 -0.592  -0.590  -0.581  -0.578  -0.577  -0.575  -0.574  -0.570
 -0.548  -0.548  -0.537  -0.535  -0.524  -0.518  -0.517  -0.514
 -0.503  -0.501  -0.499  -0.493  -0.484  -0.483  -0.476  -0.475
 -0.474  -0.469  -0.468  -0.464  -0.464  -0.462  -0.451  -0.450
 -0.450  -0.440  -0.438  -0.435  -0.434  -0.430  -0.429  -0.428
 -0.426  -0.424  -0.423  -0.423  -0.416  -0.414  -0.414  -0.413
 -0.411  -0.404  -0.402  -0.398  -0.398  -0.397  -0.395  -0.394
 -0.392  -0.389  -0.388  -0.386  -0.383  -0.383  -0.380  -0.379
 -0.378  -0.374  -0.374  -0.370  -0.364  -0.361  -0.358  -0.352
 -0.349  -0.349  -0.347  -0.346  -0.344  -0.340  -0.339  -0.336
 -0.335  -0.332  -0.331  -0.330  -0.328  -0.326  -0.325  -0.322
 -0.317  -0.312  -0.311  -0.305  -0.303  -0.301  -0.296  -0.295
 -0.292  -0.290  -0.289  -0.288  -0.283  -0.282  -0.277  -0.276
 -0.275  -0.273  -0.263  -0.262  -0.251  -0.251  -0.248  -0.246
 -0.240  -0.238  -0.231  -0.226  -0.195  -0.192

          Ground-State Mulliken Net Atomic Charges

     Atom                 Charge (a.u.)
  ----------------------------------------
      1 C                     0.260181
      2 C                    -0.106298
      3 N                    -0.478611
      4 C                    -0.053969
      5 C                     0.064186
      6 C                     0.037413
      7 C                     0.016491
      8 C                     0.028727
      9 C                     0.245312
     10 N                    -0.507091
     11 N                    -0.535078
     12 C                     0.189377
     13 C                     0.308296
     14 S                     0.621698
     15 N                    -0.545387
     16 C                    -0.231589
     17 S                     0.343966
     18 C                    -0.120076
     19 C                    -0.232753
     20 S                     0.278335
     21 C                     0.181614
     22 C                     0.034468
     23 C                    -0.309029
     24 C                    -0.078796
     25 N                    -0.417031
     26 S                     0.270805
     27 C                     0.121886
     28 C                    -0.314214
     29 C                    -0.231936
     30 H                     0.094557
     31 H                     0.106976
     32 H                     0.105057
     33 H                     0.108556
     34 H                     0.130051
     35 H                     0.109422
     36 H                     0.121238
     37 H                     0.136109
     38 H                     0.102493
     39 C                    -0.190155
     40 H                     0.113299
     41 H                     0.093383
     42 H                     0.104536
     43 C                    -0.179483
     44 H                     0.097535
     45 C                    -0.171581
     46 H                     0.099482
     47 H                     0.088873
     48 H                     0.096918
     49 C                    -0.176360
     50 H                     0.094089
     51 C                    -0.318593
     52 H                     0.093860
     53 H                     0.094070
     54 H                     0.101780
     55 H                     0.107168
     56 C                     0.279602
     57 C                    -0.110980
     58 N                    -0.481671
     59 C                    -0.081141
     60 C                     0.102901
     61 C                     0.014329
     62 C                    -0.017972
     63 C                     0.062105
     64 C                     0.225179
     65 N                    -0.511522
     66 N                    -0.544340
     67 C                     0.222167
     68 C                     0.314280
     69 S                     0.610524
     70 N                    -0.552988
     71 C                    -0.219176
     72 S                     0.356894
     73 C                    -0.108599
     74 C                    -0.228800
     75 S                     0.247697
     76 C                     0.122683
     77 C                     0.074287
     78 C                    -0.302764
     79 C                    -0.075169
     80 N                    -0.428753
     81 S                     0.290406
     82 C                     0.117372
     83 C                    -0.329537
     84 C                    -0.235429
     85 H                     0.086050
     86 H                     0.096304
     87 H                     0.107529
     88 H                     0.120762
     89 H                     0.138353
     90 H                     0.112855
     91 H                     0.126395
     92 H                     0.134820
     93 H                     0.101547
     94 C                    -0.159974
     95 H                     0.119547
     96 H                     0.098621
     97 H                     0.119311
     98 C                    -0.191288
     99 H                     0.083230
    100 C                    -0.176118
    101 H                     0.086642
    102 H                     0.091516
    103 H                     0.098067
    104 C                    -0.184712
    105 H                     0.091564
    106 C                    -0.308593
    107 H                     0.093805
    108 H                     0.101992
    109 H                     0.094480
    110 H                     0.101534
  ----------------------------------------
  Sum of atomic charges =     0.000000

                    Cartesian Multipole Moments
 -----------------------------------------------------------------
    Charge (ESU x 10^10)
                 0.0000
    Dipole Moment (Debye)
         X      -0.4602      Y       1.3895      Z       0.0084
       Tot       1.4638
    Quadrupole Moments (Debye-Ang)
        XX    -441.7536     XY       5.1213     YY    -406.2977
        XZ     -16.1782     YZ       7.6449     ZZ    -417.0394

 Total job time:  82.23s(wall), 961.77s(cpu)
        *  Thank you very much for using Q-Chem.  Have a nice day.  *
