 Q-Chem 4.4, Q-Chem, Inc., Pleasanton, CA (2016)
 Q-Chem 4.4.2 for Intel X86 Linux

User input:
--------------------------------------------------------------
$comment
SP
$end

$rem
MEM_STATIC 5000
MEM_TOTAL 20000
JOBTYPE SP
EXCHANGE B3LYP
BASIS 6-31g(d,p)
$end

$molecule
0 1
C          18.702000     11.962000     -6.790000
C          19.483000     12.778000     -7.627000
N          18.278000     10.765000     -7.145000
C          19.954000     12.218000     -8.837000
C          18.660000     10.226000     -8.328000
C          19.530000     10.911000     -9.220000
C          20.007000     10.188000    -10.427000
C          21.395000     10.063000    -10.767000
C          19.100000      9.411000    -11.327000
N          21.868000      9.360000    -11.838000
N          17.760000      9.351000    -11.149000
C          19.639000      8.734000    -12.402000
C          21.061000      8.665000    -12.583000
S          17.292000      8.615000    -12.561000
N          18.707000      8.230000    -13.196000
C          21.667000      7.953000    -13.771000
S          20.799000      7.167000    -15.032000
C          23.010000      7.689000    -13.970000
C          22.237000      6.480000    -15.738000
S          24.430000      8.437000    -13.121000
C          23.344000      6.916000    -15.038000
C          22.176000      5.720000    -16.897000
C          25.477000      7.637000    -14.301000
C          24.732000      6.789000    -15.198000
N          23.277000      5.644000    -17.571000
S          20.817000      4.766000    -17.547000
C          23.141000      4.887000    -18.716000
C          21.955000      4.269000    -18.875000
C          18.422000     12.428000     -5.357000
H          19.788000     13.757000     -7.270000
H          20.664000     12.730000     -9.480000
H          18.236000      9.284000     -8.670000
H          22.126000     10.521000    -10.101000
H          26.536000      7.858000    -14.301000
H          25.230000      6.192000    -15.953000
H          23.930000      4.893000    -19.456000
H          21.570000      3.611000    -19.643000
H          18.450000     13.512000     -5.197000
C          19.159000     11.684000     -4.261000
H          17.370000     12.171000     -5.177000
H          18.758000     10.664000     -4.211000
H          18.770000     11.988000     -3.282000
C          20.706000     11.756000     -4.275000
H          21.061000     12.674000     -4.759000
C          21.415000     10.492000     -5.023000
H          21.086000     11.762000     -3.246000
H          21.298000     10.606000     -6.108000
H          20.993000      9.523000     -4.731000
C          22.904000     10.395000     -4.769000
H          23.226000      9.645000     -5.502000
C          23.220000     10.006000     -3.315000
H          23.419000     11.328000     -5.032000
H          22.982000      8.935000     -3.305000
H          22.711000     10.584000     -2.533000
H          24.308000     10.090000     -3.198000
C          25.702000      1.306000      1.486000
C          25.668000      0.670000      0.260000
N          25.907000      2.630000      1.683000
C          26.049000      1.432000     -0.796000
C          26.212000      3.345000      0.564000
C          26.195000      2.852000     -0.751000
C          26.341000      3.708000     -1.936000
C          27.210000      3.372000     -3.024000
C          25.797000      5.028000     -2.087000
N          27.555000      4.178000     -4.025000
N          24.928000      5.590000     -1.201000
C          26.030000      5.806000     -3.179000
C          26.985000      5.415000     -4.174000
S          24.722000      7.145000     -1.696000
N          25.446000      7.027000     -3.143000
C          27.274000      6.177000     -5.413000
S          26.704000      7.843000     -5.810000
C          28.003000      5.667000     -6.441000
C          27.386000      7.667000     -7.395000
S          28.886000      4.085000     -6.578000
C          28.064000      6.434000     -7.563000
C          27.052000      8.478000     -8.522000
C          29.120000      4.426000     -8.268000
C          28.627000      5.678000     -8.632000
N          27.789000      8.388000     -9.615000
S          25.589000      9.456000     -8.625000
C          27.228000      9.187000    -10.611000
C          26.056000      9.796000    -10.282000
C          25.483000      0.430000      2.685000
H          25.443000     -0.389000      0.168000
H          26.079000      1.065000     -1.818000
H          26.402000      4.403000      0.743000
H          27.592000      2.353000     -3.047000
H          29.595000      3.699000     -8.913000
H          28.763000      6.090000     -9.625000
H          27.712000      9.195000    -11.578000
H          25.412000     10.486000    -10.811000
H          25.020000      0.995000      3.504000
C          26.738000     -0.311000      3.128000
H          24.647000     -0.200000      2.355000
H          27.572000      0.395000      3.221000
H          26.996000     -1.117000      2.430000
C          26.422000     -1.212000      4.393000
H          25.892000     -0.623000      5.152000
C          27.640000     -1.712000      5.144000
H          25.980000     -2.170000      4.092000
H          27.296000     -2.340000      5.975000
H          28.145000     -0.854000      5.604000
C          28.691000     -2.479000      4.332000
H          28.501000     -3.540000      4.125000
C          30.042000     -2.285000      5.070000
H          28.690000     -1.979000      3.356000
H          30.832000     -2.925000      4.657000
H          29.915000     -2.453000      6.147000
H          30.408000     -1.256000      4.961000
$end

--------------------------------------------------------------

             Standard Nuclear Orientation (Angstroms)
    I     Atom           X                Y                Z
 ----------------------------------------------------------------
    1      C       3.2399244526     6.7629739818    -0.3388735343
    2      C       4.0093803612     6.4258885345     0.7883784366
    3      N       3.2449937129     6.0544246389    -1.4508726940
    4      C       4.6953767517     5.1895209795     0.7697983083
    5      C       3.9448699189     4.8963890151    -1.5220119250
    6      C       4.6839761975     4.3957055898    -0.4152928926
    7      C       5.3049786546     3.0516587692    -0.5377718389
    8      C       5.0932156887     2.0016912696     0.4164260945
    9      C       6.0987166875     2.6227717578    -1.7304217735
   10      N       5.6049683759     0.7405579386     0.3040387799
   11      N       6.3665485746     3.4445300168    -2.7715093991
   12      C       6.6016813009     1.3384803684    -1.7762172411
   13      C       6.2614498937     0.3843162464    -0.7596448542
   14      S       7.4740483492     2.5346339870    -3.6081679102
   15      N       7.4129134298     1.1537711313    -2.8061982753
   16      C       6.8272543970    -1.0174805774    -0.7784844110
   17      S       7.9179088741    -1.6542153491    -1.9474081220
   18      C       6.4565851873    -2.0615422533     0.0494561387
   19      C       7.7988325856    -3.2795047960    -1.3289390029
   20      S       5.5261794698    -1.9724323645     1.6060902089
   21      C       6.9859037238    -3.2864864728    -0.2133033447
   22      C       8.5429412842    -4.3136651964    -1.8779531292
   23      C       5.9061505501    -3.6814396651     1.8581319210
   24      C       6.6172393525    -4.2482307938     0.7392760181
   25      N       8.7343003574    -5.3325860432    -1.1050139252
   26      S       9.2041338419    -4.4725569761    -3.5263083106
   27      C       9.4922531337    -6.3146209881    -1.7080769035
   28      C       9.7945969991    -6.1110954873    -3.0045978473
   29      C       2.2622738434     7.9392237948    -0.2404831699
   30      H       3.9612676889     7.0626194625     1.6665435100
   31      H       5.2074282084     4.7926710332     1.6415817825
   32      H       4.0331533070     4.3596856691    -2.4644871564
   33      H       4.4426587777     2.2087301299     1.2658915829
   34      H       5.6367637117    -4.1483353999     2.7960877323
   35      H       6.8858304246    -5.2978655378     0.7155328042
   36      H       9.8747500860    -7.1334015246    -1.1135590193
   37      H      10.3447616337    -6.6979477603    -3.7284322790
   38      H       2.5158620512     8.7056928612     0.5009061954
   39      C       0.7912660002     7.5771003387    -0.1864135111
   40      H       2.3598383281     8.4682583586    -1.1974348936
   41      H       0.5029341175     7.1715120046    -1.1641986760
   42      H       0.1836122158     8.4853036282    -0.2764227510
   43      C       0.3169375984     6.7254083916     1.0170076099
   44      H       0.9592509712     6.8755076183     1.8933116400
   45      C       0.2623026950     5.1250869708     0.7073830346
   46      H      -0.6996049308     7.0220906083     1.3031857861
   47      H       1.2846558579     4.7268321776     0.6975275832
   48      H      -0.2101136494     4.8850306020    -0.2525673481
   49      C      -0.4879162375     4.3304967992     1.7546862441
   50      H      -0.2367259958     3.2939911939     1.4977181670
   51      C      -1.9983116949     4.6192470910     1.7297496989
   52      H      -0.0848481220     4.5080388052     2.7601204440
   53      H      -2.3249083933     4.0667640416     0.8398721362
   54      H      -2.2937186152     5.6763259077     1.7326004245
   55      H      -2.4295887823     4.1049773611     2.5980904839
   56      C     -10.2106136427    -0.0656447822    -2.2084998939
   57      C      -9.3713855361    -1.0682643900    -2.6547936394
   58      N      -9.9589036127     0.7728856605    -1.1753886911
   59      C      -8.2992610093    -1.3187966976    -1.8618727343
   60      C      -8.8243293133     0.5043326724    -0.4703841154
   61      C      -7.8605378396    -0.4596027496    -0.8087589038
   62      C      -6.5637142545    -0.5779137956    -0.1286647296
   63      C      -6.0325751051    -1.8376697569     0.2987778066
   64      C      -5.7631262455     0.5165447914     0.3428819184
   65      N      -4.9799201186    -2.0115681634     1.0939751555
   66      N      -6.0352726690     1.8224117518     0.0660267112
   67      C      -4.6047477405     0.3437670204     1.0359505161
   68      C      -4.2031991206    -0.9549627524     1.4909128037
   69      S      -4.9612815608     2.7034316269     0.9468405845
   70      N      -3.9898098188     1.4900697571     1.4114959703
   71      C      -2.9417943711    -1.2434943552     2.2154081952
   72      S      -1.7909496794    -0.0319993874     2.8979779268
   73      C      -2.4807464862    -2.5055862480     2.4224924821
   74      C      -0.7073156381    -1.3274078796     3.2929198249
   75      S      -3.2410137900    -4.1085391371     2.0304240414
   76      C      -1.2433633957    -2.6013068887     2.9798206137
   77      C       0.6817350067    -1.1694688022     3.5844666547
   78      C      -1.7261017977    -4.8627164290     2.4346458466
   79      C      -0.7828392573    -3.9476793165     2.8994166102
   80      N       1.3521549252    -2.1961056410     4.0768810472
   81      S       1.6187902418     0.2566109152     3.1421024089
   82      C       2.6984069101    -1.8499945173     4.1906821156
   83      C       3.0274140056    -0.6160640388     3.7196450627
   84      C     -11.5027794100     0.0887225774    -2.9564413007
   85      H      -9.6093569264    -1.6711839466    -3.5268186538
   86      H      -7.5585637759    -2.0823782239    -2.0818360518
   87      H      -8.6505961262     1.1700397992     0.3746932780
   88      H      -6.5169331964    -2.7301016394    -0.0933657571
   89      H      -1.5934852788    -5.9287027869     2.3071117584
   90      H       0.1862025540    -4.2526966650     3.2765258583
   91      H       3.3797518131    -2.6046233825     4.5590751109
   92      H       3.9556578184    -0.0605626982     3.6982281397
   93      H     -11.8503618345     1.1292651198    -2.9279338335
   94      C     -12.5779862085    -0.8947011011    -2.5124106612
   95      H     -11.1726282510    -0.0022586652    -3.9992349647
   96      H     -12.6737004700    -0.8711458558    -1.4201996327
   97      H     -12.3566823332    -1.9132402689    -2.8544728756
   98      C     -13.9044988971    -0.6678292949    -3.3495338723
   99      H     -14.1689099644     0.3970456776    -3.3550184362
  100      C     -15.1453354995    -1.3204524613    -2.7733980125
  101      H     -13.8517435169    -1.1841466278    -4.3161580400
  102      H     -15.9848780978    -1.1162350411    -3.4492267415
  103      H     -15.3939859904    -0.8262164081    -1.8264594416
  104      C     -15.0737238669    -2.8273432312    -2.4970178731
  105      H     -15.2242771284    -3.5089213899    -3.3440449854
  106      C     -16.0902321007    -3.1129753270    -1.3600894160
  107      H     -14.0413772112    -2.9878900924    -2.1637580827
  108      H     -16.2311387219    -4.1886678761    -1.1948627116
  109      H     -17.0447178684    -2.6131213243    -1.5683798270
  110      H     -15.7357694926    -2.7107248022    -0.4023688019
 ----------------------------------------------------------------

   10   -5663.5157908602      6.71E-06 Convergence criterion met
 Total energy in the final basis set = -5663.5157908602

                    Orbital Energies (a.u.)
 --------------------------------------------------------------

 Alpha MOs
 -- Occupied --
-88.991 -88.987 -88.932 -88.924 -88.923 -88.923 -88.908 -88.907
-14.393 -14.391 -14.382 -14.376 -14.355 -14.349 -14.342 -14.337
-14.330 -14.329 -10.271 -10.266 -10.265 -10.265 -10.264 -10.259
-10.252 -10.250 -10.249 -10.243 -10.242 -10.241 -10.240 -10.237
-10.235 -10.233 -10.232 -10.232 -10.230 -10.229 -10.229 -10.228
-10.228 -10.225 -10.225 -10.223 -10.222 -10.221 -10.220 -10.220
-10.213 -10.208 -10.207 -10.205 -10.204 -10.200 -10.194 -10.193
-10.186 -10.184 -10.182 -10.179 -10.179 -10.178 -10.176 -10.174
-10.173 -10.172 -10.171 -10.171  -8.047  -8.042  -7.990  -7.985
 -7.985  -7.983  -7.967  -7.965  -6.012  -6.007  -6.007  -6.005
 -6.002  -6.000  -5.955  -5.951  -5.949  -5.948  -5.947  -5.947
 -5.945  -5.945  -5.944  -5.942  -5.942  -5.940  -5.932  -5.930
 -5.928  -5.926  -5.923  -5.922  -1.054  -1.036  -0.974  -0.968
 -0.965  -0.953  -0.943  -0.935  -0.920  -0.914  -0.912  -0.895
 -0.843  -0.842  -0.832  -0.829  -0.811  -0.810  -0.808  -0.804
 -0.802  -0.800  -0.796  -0.791  -0.788  -0.784  -0.771  -0.766
 -0.752  -0.747  -0.742  -0.739  -0.728  -0.723  -0.710  -0.704
 -0.693  -0.691  -0.678  -0.672  -0.659  -0.651  -0.648  -0.642
 -0.641  -0.634  -0.633  -0.623  -0.620  -0.611  -0.603  -0.599
 -0.591  -0.590  -0.586  -0.585  -0.577  -0.575  -0.557  -0.556
 -0.554  -0.548  -0.546  -0.538  -0.524  -0.521  -0.514  -0.511
 -0.510  -0.505  -0.503  -0.494  -0.489  -0.488  -0.483  -0.476
 -0.473  -0.470  -0.469  -0.468  -0.462  -0.461  -0.458  -0.451
 -0.449  -0.448  -0.442  -0.439  -0.437  -0.435  -0.432  -0.430
 -0.428  -0.425  -0.423  -0.421  -0.421  -0.420  -0.416  -0.415
 -0.413  -0.411  -0.406  -0.406  -0.402  -0.400  -0.398  -0.396
 -0.394  -0.393  -0.390  -0.390  -0.388  -0.383  -0.381  -0.379
 -0.378  -0.378  -0.373  -0.371  -0.365  -0.362  -0.359  -0.359
 -0.357  -0.355  -0.350  -0.347  -0.347  -0.343  -0.342  -0.340
 -0.339  -0.337  -0.334  -0.333  -0.332  -0.330  -0.322  -0.321
 -0.318  -0.311  -0.306  -0.305  -0.304  -0.300  -0.297  -0.296
 -0.295  -0.290  -0.289  -0.288  -0.287  -0.286  -0.283  -0.279
 -0.278  -0.272  -0.272  -0.267  -0.258  -0.256  -0.250  -0.250
 -0.247  -0.245  -0.233  -0.226  -0.195  -0.191

          Ground-State Mulliken Net Atomic Charges

     Atom                 Charge (a.u.)
  ----------------------------------------
      1 C                     0.299214
      2 C                    -0.114633
      3 N                    -0.488832
      4 C                    -0.084526
      5 C                     0.092824
      6 C                     0.030620
      7 C                     0.005120
      8 C                     0.054930
      9 C                     0.209446
     10 N                    -0.517718
     11 N                    -0.549170
     12 C                     0.217974
     13 C                     0.341829
     14 S                     0.598597
     15 N                    -0.545774
     16 C                    -0.225643
     17 S                     0.328669
     18 C                    -0.157890
     19 C                    -0.260611
     20 S                     0.280251
     21 C                     0.237281
     22 C                     0.073035
     23 C                    -0.318244
     24 C                    -0.074427
     25 N                    -0.441404
     26 S                     0.233338
     27 C                     0.138112
     28 C                    -0.304006
     29 C                    -0.231192
     30 H                     0.094902
     31 H                     0.098579
     32 H                     0.120966
     33 H                     0.110833
     34 H                     0.130556
     35 H                     0.119527
     36 H                     0.115569
     37 H                     0.135990
     38 H                     0.094174
     39 C                    -0.177091
     40 H                     0.114822
     41 H                     0.113116
     42 H                     0.089434
     43 C                    -0.183475
     44 H                     0.088665
     45 C                    -0.169303
     46 H                     0.090941
     47 H                     0.092364
     48 H                     0.092151
     49 C                    -0.191141
     50 H                     0.101508
     51 C                    -0.320487
     52 H                     0.085316
     53 H                     0.110539
     54 H                     0.106389
     55 H                     0.106195
     56 C                     0.247869
     57 C                    -0.083256
     58 N                    -0.476747
     59 C                    -0.086796
     60 C                     0.079205
     61 C                     0.052364
     62 C                     0.019945
     63 C                     0.075311
     64 C                     0.219255
     65 N                    -0.527079
     66 N                    -0.553825
     67 C                     0.192637
     68 C                     0.309992
     69 S                     0.611940
     70 N                    -0.563371
     71 C                    -0.226081
     72 S                     0.333449
     73 C                    -0.118790
     74 C                    -0.235035
     75 S                     0.290702
     76 C                     0.183889
     77 C                     0.062226
     78 C                    -0.303043
     79 C                    -0.074024
     80 N                    -0.435998
     81 S                     0.260598
     82 C                     0.123392
     83 C                    -0.298726
     84 C                    -0.230030
     85 H                     0.099110
     86 H                     0.085536
     87 H                     0.102568
     88 H                     0.107600
     89 H                     0.133197
     90 H                     0.118656
     91 H                     0.109384
     92 H                     0.146802
     93 H                     0.112107
     94 C                    -0.170361
     95 H                     0.096352
     96 H                     0.111310
     97 H                     0.099043
     98 C                    -0.184236
     99 H                     0.095752
    100 C                    -0.180578
    101 H                     0.095507
    102 H                     0.087988
    103 H                     0.092212
    104 C                    -0.178283
    105 H                     0.092084
    106 C                    -0.321431
    107 H                     0.096519
    108 H                     0.093383
    109 H                     0.105416
    110 H                     0.106186
  ----------------------------------------
  Sum of atomic charges =     0.000000

                    Cartesian Multipole Moments
 -----------------------------------------------------------------
    Charge (ESU x 10^10)
                 0.0000
    Dipole Moment (Debye)
         X       3.2297      Y      -1.2082      Z      -0.7720
       Tot       3.5337
    Quadrupole Moments (Debye-Ang)
        XX    -425.3433     XY      -2.0715     YY    -416.7383
        XZ       9.3398     YZ      23.1577     ZZ    -437.4031

 Total job time:  90.74s(wall), 1069.37s(cpu)
        *  Thank you very much for using Q-Chem.  Have a nice day.  *
