 Q-Chem 4.4, Q-Chem, Inc., Pleasanton, CA (2016)
 Q-Chem 4.4.2 for Intel X86 Linux

User input:
--------------------------------------------------------------
$comment
SP
$end

$rem
MEM_STATIC 5000
MEM_TOTAL 20000
JOBTYPE SP
EXCHANGE B3LYP
BASIS 6-31g(d,p)
$end

$molecule
0 1
C          16.387000     15.929000    -13.363000
C          16.984000     14.700000    -13.412000
N          16.950000     16.942000    -12.682000
C          18.176000     14.504000    -12.769000
C          18.111000     16.768000    -11.985000
C          18.867000     15.520000    -12.033000
C          20.054000     15.304000    -11.182000
C          20.096000     15.822000     -9.887000
C          21.143000     14.478000    -11.540000
N          21.065000     15.615000     -9.018000
N          21.227000     13.899000    -12.702000
C          22.241000     14.336000    -10.655000
C          22.153000     14.883000     -9.341000
S          22.707000     13.142000    -12.655000
N          23.228000     13.539000    -11.134000
C          23.152000     14.559000     -8.312000
S          24.425000     13.272000     -8.418000
C          23.152000     14.923000     -6.983000
C          24.868000     13.279000     -6.697000
S          22.350000     16.272000     -6.212000
C          24.059000     14.215000     -6.143000
C          25.960000     12.514000     -6.156000
C          23.176000     15.811000     -4.694000
C          24.108000     14.771000     -4.843000
N          26.699000     11.863000     -7.058000
S          26.393000     12.241000     -4.503000
C          27.760000     11.215000     -6.391000
C          27.758000     11.313000     -5.032000
C          15.061000     16.114000    -14.127000
H          16.538000     13.828000    -13.882000
H          18.623000     13.519000    -12.863000
H          18.423000     17.582000    -11.332000
H          19.277000     16.484000     -9.609000
H          22.891000     16.432000     -3.855000
H          24.810000     14.406000     -4.102000
H          28.426000     10.639000     -7.019000
H          28.380000     10.790000     -4.317000
H          14.563000     15.154000    -13.948000
C          15.143000     16.433000    -15.636000
H          14.437000     16.873000    -13.640000
H          15.600000     17.411000    -15.829000
H          14.094000     16.560000    -15.927000
C          15.849000     15.406000    -16.572000
H          16.914000     15.628000    -16.432000
C          15.624000     15.726000    -18.011000
H          15.703000     14.355000    -16.294000
H          16.415000     15.261000    -18.611000
H          15.815000     16.803000    -18.093000
C          14.258000     15.587000    -18.693000
H          13.427000     16.110000    -18.205000
C          13.765000     14.183000    -18.786000
H          14.310000     15.930000    -19.734000
H          13.794000     13.621000    -17.844000
H          14.415000     13.544000    -19.395000
H          12.769000     14.117000    -19.243000
C          25.702000      1.306000      1.486000
C          25.668000      0.670000      0.260000
N          25.907000      2.630000      1.683000
C          26.049000      1.432000     -0.796000
C          26.212000      3.345000      0.564000
C          26.195000      2.852000     -0.751000
C          26.341000      3.708000     -1.936000
C          27.210000      3.372000     -3.024000
C          25.797000      5.028000     -2.087000
N          27.555000      4.178000     -4.025000
N          24.928000      5.590000     -1.201000
C          26.030000      5.806000     -3.179000
C          26.985000      5.415000     -4.174000
S          24.722000      7.145000     -1.696000
N          25.446000      7.027000     -3.143000
C          27.274000      6.177000     -5.413000
S          26.704000      7.843000     -5.810000
C          28.003000      5.667000     -6.441000
C          27.386000      7.667000     -7.395000
S          28.886000      4.085000     -6.578000
C          28.064000      6.434000     -7.563000
C          27.052000      8.478000     -8.522000
C          29.120000      4.426000     -8.268000
C          28.627000      5.678000     -8.632000
N          27.789000      8.388000     -9.615000
S          25.589000      9.456000     -8.625000
C          27.228000      9.187000    -10.611000
C          26.056000      9.796000    -10.282000
C          25.483000      0.430000      2.685000
H          25.443000     -0.389000      0.168000
H          26.079000      1.065000     -1.818000
H          26.402000      4.403000      0.743000
H          27.592000      2.353000     -3.047000
H          29.595000      3.699000     -8.913000
H          28.763000      6.090000     -9.625000
H          27.712000      9.195000    -11.578000
H          25.412000     10.486000    -10.811000
H          25.020000      0.995000      3.504000
C          26.738000     -0.311000      3.128000
H          24.647000     -0.200000      2.355000
H          27.572000      0.395000      3.221000
H          26.996000     -1.117000      2.430000
C          26.422000     -1.212000      4.393000
H          25.892000     -0.623000      5.152000
C          27.640000     -1.712000      5.144000
H          25.980000     -2.170000      4.092000
H          27.296000     -2.340000      5.975000
H          28.145000     -0.854000      5.604000
C          28.691000     -2.479000      4.332000
H          28.501000     -3.540000      4.125000
C          30.042000     -2.285000      5.070000
H          28.690000     -1.979000      3.356000
H          30.832000     -2.925000      4.657000
H          29.915000     -2.453000      6.147000
H          30.408000     -1.256000      4.961000
$end

--------------------------------------------------------------

             Standard Nuclear Orientation (Angstroms)
    I     Atom           X                Y                Z
 ----------------------------------------------------------------
    1      C      11.5782001559     2.0857064854     2.2813910631
    2      C      10.5779483657     2.6299058136     1.5246913555
    3      N      11.5490572224     0.7883813485     2.6321005992
    4      C       9.5408901435     1.8392687410     1.1098031015
    5      C      10.5038931430    -0.0168741569     2.2810997188
    6      C       9.4248355877     0.4441612652     1.4125232214
    7      C       8.2422165099    -0.3963612506     1.1391004398
    8      C       7.7155042114    -1.2172382187     2.1370223595
    9      C       7.4951063788    -0.3431520180    -0.0589630933
   10      N       6.6174942963    -1.9376542853     2.0259101767
   11      N       7.8443276264     0.4022765487    -1.0663963527
   12      C       6.3746140363    -1.1942687321    -0.2295217328
   13      C       5.9080740746    -1.9633370846     0.8770149061
   14      S       6.7162261362     0.0365849957    -2.2322928815
   15      N       5.7668304543    -1.0608830343    -1.4343563161
   16      C       4.6192084791    -2.6690173327     0.8254507289
   17      S       3.3381600833    -2.4750566939    -0.4431817152
   18      C       3.9896428908    -3.3637376450     1.8352763860
   19      C       2.0426558063    -3.3071922867     0.4441502540
   20      S       4.6834113253    -4.1044160817     3.2591888877
   21      C       2.6165584687    -3.6738317915     1.6162015360
   22      C       0.7502592752    -3.5914504540    -0.1208970897
   23      C       3.0618996960    -4.7641551337     3.6260204832
   24      C       2.1079400285    -4.5281347562     2.6226858760
   25      N       0.6129149021    -3.2761070276    -1.4113315308
   26      S      -0.6756323087    -4.1924544445     0.6537346902
   27      C      -0.6736675971    -3.6672021419    -1.8382555101
   28      C      -1.4915594741    -4.1775699814    -0.8754125603
   29      C      12.7423558116     3.0049664582     2.7007950589
   30      H      10.5116314470     3.6855081247     1.2766876720
   31      H       8.7877842001     2.3122910083     0.4869456759
   32      H      10.4701932247    -1.0083200605     2.7308200048
   33      H       8.2977252573    -1.2896718264     3.0546611917
   34      H       3.0324023936    -5.3131963104     4.5579382346
   35      H       1.1030206085    -4.9302604411     2.5631720711
   36      H      -0.9105205723    -3.4506978552    -2.8710878112
   37      H      -2.5471949553    -4.4080989184    -0.9396631638
   38      H      12.2206483223     3.9455926513     2.9121919854
   39      C      13.8903286328     3.2130025367     1.6886461608
   40      H      13.1699478247     2.6759639717     3.6555455154
   41      H      14.4496261826     2.2887771876     1.5000307986
   42      H      14.5957207734     3.8526713107     2.2312848873
   43      C      13.5488556079     3.8320363708     0.2995981827
   44      H      13.1573904236     2.9785523264    -0.2673489006
   45      C      14.7795776288     4.2032035441    -0.4562485190
   46      H      12.7587029353     4.5926589938     0.3172894088
   47      H      14.5434692933     4.2541958316    -1.5256215318
   48      H      15.4405321357     3.3328510388    -0.3626554835
   49      C      15.7004666543     5.3551029595    -0.0373306993
   50      H      16.0628172312     5.3226694265     0.9970213324
   51      C      15.0697969084     6.7027813361    -0.1318434761
   52      H      16.5727355787     5.4122620582    -0.7005906490
   53      H      14.0883656163     6.7872792490     0.3515835831
   54      H      14.7870755517     6.9685267860    -1.1570995369
   55      H      15.7376893623     7.5039885172     0.2105126587
   56      C     -11.2485606595     2.2144181773     2.4101504427
   57      C     -10.8451959818     3.0936224508     1.4237302572
   58      N     -10.6167566958     1.0660329299     2.7505106564
   59      C      -9.8325253326     2.6519348923     0.6361064531
   60      C      -9.5616546179     0.7250253736     1.9587503065
   61      C      -9.0164066960     1.5190682246     0.9366134983
   62      C      -7.7625156530     1.1938393021     0.2436052730
   63      C      -7.6322750089     1.2620928948    -1.1812385155
   64      C      -6.5965291317     0.6162870211     0.8502730526
   65      N      -6.6122464559     0.7925499907    -1.8951945453
   66      N      -6.4515985977     0.4496529592     2.1946053143
   67      C      -5.4888393863     0.2645998839     0.1421935475
   68      C      -5.4897111192     0.2903268802    -1.2910783603
   69      S      -5.0529966775    -0.3921590640     2.3964745454
   70      N      -4.4906607363    -0.2774844403     0.8790632565
   71      C      -4.3201646463    -0.0361366645    -2.1424705154
   72      S      -2.7631189007    -0.7690131082    -1.5978920873
   73      C      -4.2816954562     0.2238956434    -3.4763476912
   74      C      -2.1308563497    -0.5420311889    -3.1969694071
   75      S      -5.5688725503     0.8787749647    -4.5788404137
   76      C      -3.0901352088    -0.0055763194    -4.0915068538
   77      C      -0.7439317977    -0.5617644519    -3.5367588794
   78      C      -4.3526229042     1.0371703154    -5.8128520471
   79      C      -3.1130804016     0.5469765077    -5.4050611508
   80      N      -0.3986831120    -0.5900418864    -4.8118752395
   81      S       0.5544167063    -0.3484849708    -2.3636156550
   82      C       0.9899158770    -0.5056036453    -4.9108753973
   83      C       1.6518602761    -0.3416430897    -3.7328887468
   84      C     -12.4939714183     2.5939679060     3.1570319898
   85      H     -11.3677155084     4.0279873315     1.2379733891
   86      H      -9.4164076842     3.2310849191    -0.1833472364
   87      H      -9.0816521573    -0.2155484979     2.2278663224
   88      H      -8.4261166772     1.7762485078    -1.7200087924
   89      H      -4.5954617656     1.4847272534    -6.7672634231
   90      H      -2.2628030706     0.4875058078    -6.0742253282
   91      H       1.4210576325    -0.4920449282    -5.9025113929
   92      H       2.7025640015    -0.2791215331    -3.4823099438
   93      H     -12.4723000385     2.2001732193     4.1811467763
   94      C     -13.7752050903     2.2250298299     2.4203638326
   95      H     -12.3347054361     3.6657091485     3.3322491584
   96      H     -13.7314708793     1.1762255868     2.1029713651
   97      H     -13.9439525688     2.8789046169     1.5558546935
   98      C     -15.0390772827     2.6602529339     3.2718859585
   99      H     -14.9353609220     2.3092188017     4.3062553096
  100      C     -16.3509132271     2.0392217526     2.8349286073
  101      H     -15.2715101952     3.7209960473     3.1152718191
  102      H     -17.1475595196     2.4342056761     3.4772862839
  103      H     -16.3115473489     0.9611605612     3.0324720083
  104      C     -16.7502035520     2.2199109451     1.3651828292
  105      H     -17.2139633345     3.1717363340     1.0760024477
  106      C     -17.6660870037     1.0190959857     1.0092587694
  107      H     -15.7979087736     2.1743730560     0.8232991186
  108      H     -18.1346873174     1.1369614583     0.0239717673
  109      H     -18.4189043013     0.8689578315     1.7934823669
  110      H     -17.0909282303     0.0859599284     0.9533348570
 ----------------------------------------------------------------

   10   -5663.5203574276      3.28E-06 Convergence criterion met
 Total energy in the final basis set = -5663.5203574276

                    Orbital Energies (a.u.)
 --------------------------------------------------------------

 Alpha MOs
 -- Occupied --
-88.989 -88.989 -88.936 -88.932 -88.920 -88.918 -88.914 -88.907
-14.399 -14.389 -14.384 -14.377 -14.352 -14.349 -14.349 -14.338
-14.330 -14.329 -10.276 -10.271 -10.266 -10.261 -10.261 -10.257
-10.253 -10.251 -10.246 -10.245 -10.243 -10.241 -10.241 -10.239
-10.236 -10.235 -10.235 -10.235 -10.234 -10.228 -10.226 -10.225
-10.225 -10.224 -10.224 -10.223 -10.223 -10.222 -10.221 -10.214
-10.212 -10.210 -10.208 -10.208 -10.206 -10.195 -10.193 -10.192
-10.189 -10.187 -10.186 -10.180 -10.180 -10.179 -10.177 -10.177
-10.177 -10.172 -10.171 -10.166  -8.045  -8.044  -7.997  -7.990
 -7.978  -7.978  -7.974  -7.966  -6.010  -6.009  -6.004  -6.004
 -6.002  -6.002  -5.961  -5.958  -5.954  -5.954  -5.951  -5.947
 -5.942  -5.942  -5.939  -5.939  -5.939  -5.936  -5.935  -5.934
 -5.930  -5.930  -5.927  -5.922  -1.043  -1.037  -0.970  -0.965
 -0.962  -0.954  -0.935  -0.934  -0.921  -0.913  -0.912  -0.896
 -0.843  -0.841  -0.832  -0.830  -0.815  -0.813  -0.812  -0.811
 -0.809  -0.799  -0.798  -0.796  -0.790  -0.789  -0.772  -0.766
 -0.755  -0.747  -0.747  -0.739  -0.727  -0.720  -0.716  -0.711
 -0.701  -0.691  -0.682  -0.671  -0.658  -0.652  -0.649  -0.642
 -0.641  -0.633  -0.626  -0.624  -0.621  -0.612  -0.607  -0.604
 -0.598  -0.588  -0.587  -0.585  -0.583  -0.577  -0.557  -0.555
 -0.554  -0.546  -0.546  -0.539  -0.530  -0.524  -0.520  -0.509
 -0.506  -0.505  -0.502  -0.493  -0.490  -0.490  -0.482  -0.478
 -0.473  -0.473  -0.470  -0.468  -0.464  -0.463  -0.458  -0.457
 -0.453  -0.449  -0.442  -0.441  -0.439  -0.436  -0.435  -0.432
 -0.428  -0.427  -0.424  -0.423  -0.422  -0.417  -0.415  -0.414
 -0.413  -0.411  -0.409  -0.407  -0.400  -0.399  -0.399  -0.397
 -0.395  -0.395  -0.390  -0.390  -0.387  -0.383  -0.382  -0.382
 -0.382  -0.379  -0.374  -0.372  -0.370  -0.363  -0.362  -0.360
 -0.359  -0.357  -0.352  -0.348  -0.347  -0.344  -0.343  -0.342
 -0.338  -0.337  -0.334  -0.333  -0.333  -0.330  -0.323  -0.320
 -0.318  -0.312  -0.312  -0.307  -0.306  -0.305  -0.304  -0.300
 -0.299  -0.297  -0.295  -0.289  -0.288  -0.286  -0.283  -0.277
 -0.274  -0.272  -0.269  -0.266  -0.263  -0.255  -0.251  -0.246
 -0.246  -0.245  -0.235  -0.226  -0.200  -0.191

          Ground-State Mulliken Net Atomic Charges

     Atom                 Charge (a.u.)
  ----------------------------------------
      1 C                     0.277862
      2 C                    -0.094467
      3 N                    -0.493670
      4 C                    -0.065400
      5 C                     0.062286
      6 C                     0.021845
      7 C                     0.041923
      8 C                     0.072220
      9 C                     0.238605
     10 N                    -0.525435
     11 N                    -0.555883
     12 C                     0.208125
     13 C                     0.312139
     14 S                     0.582220
     15 N                    -0.555120
     16 C                    -0.238746
     17 S                     0.340373
     18 C                    -0.109706
     19 C                    -0.232704
     20 S                     0.286411
     21 C                     0.142625
     22 C                     0.065531
     23 C                    -0.315511
     24 C                    -0.072222
     25 N                    -0.424532
     26 S                     0.285336
     27 C                     0.105674
     28 C                    -0.300361
     29 C                    -0.232161
     30 H                     0.090905
     31 H                     0.102794
     32 H                     0.106283
     33 H                     0.110282
     34 H                     0.133752
     35 H                     0.109202
     36 H                     0.133167
     37 H                     0.149175
     38 H                     0.099834
     39 C                    -0.174637
     40 H                     0.111976
     41 H                     0.107396
     42 H                     0.099520
     43 C                    -0.176270
     44 H                     0.105605
     45 C                    -0.175972
     46 H                     0.086252
     47 H                     0.088320
     48 H                     0.089339
     49 C                    -0.168692
     50 H                     0.095003
     51 C                    -0.314802
     52 H                     0.095572
     53 H                     0.096217
     54 H                     0.093484
     55 H                     0.095953
     56 C                     0.248582
     57 C                    -0.083352
     58 N                    -0.477399
     59 C                    -0.087350
     60 C                     0.078872
     61 C                     0.053051
     62 C                     0.019349
     63 C                     0.075145
     64 C                     0.221807
     65 N                    -0.527490
     66 N                    -0.552097
     67 C                     0.192629
     68 C                     0.308543
     69 S                     0.601691
     70 N                    -0.560568
     71 C                    -0.230354
     72 S                     0.329391
     73 C                    -0.121384
     74 C                    -0.240654
     75 S                     0.288259
     76 C                     0.183135
     77 C                     0.049276
     78 C                    -0.304183
     79 C                    -0.074498
     80 N                    -0.442721
     81 S                     0.302242
     82 C                     0.120529
     83 C                    -0.305004
     84 C                    -0.230556
     85 H                     0.099096
     86 H                     0.085506
     87 H                     0.101358
     88 H                     0.107527
     89 H                     0.132551
     90 H                     0.119230
     91 H                     0.110693
     92 H                     0.143033
     93 H                     0.112061
     94 C                    -0.169728
     95 H                     0.096454
     96 H                     0.111075
     97 H                     0.099048
     98 C                    -0.184989
     99 H                     0.095836
    100 C                    -0.180570
    101 H                     0.095752
    102 H                     0.088129
    103 H                     0.092185
    104 C                    -0.178193
    105 H                     0.092231
    106 C                    -0.321553
    107 H                     0.096400
    108 H                     0.093489
    109 H                     0.105486
    110 H                     0.106088
  ----------------------------------------
  Sum of atomic charges =     0.000000

                    Cartesian Multipole Moments
 -----------------------------------------------------------------
    Charge (ESU x 10^10)
                 0.0000
    Dipole Moment (Debye)
         X      -0.3003      Y       1.5244      Z      -0.7393
       Tot       1.7207
    Quadrupole Moments (Debye-Ang)
        XX    -441.1478     XY       4.4950     YY    -426.8999
        XZ      -5.0406     YZ     -11.4423     ZZ    -444.4273

 Total job time:  89.48s(wall), 1044.57s(cpu)
        *  Thank you very much for using Q-Chem.  Have a nice day.  *
