 Q-Chem 4.4, Q-Chem, Inc., Pleasanton, CA (2016)
 Q-Chem 4.4.2 for Intel X86 Linux

User input:
--------------------------------------------------------------
$comment
SP
$end

$rem
MEM_STATIC 5000
MEM_TOTAL 20000
JOBTYPE SP
EXCHANGE B3LYP
BASIS 6-31g(d,p)
$end

$molecule
0 1
C          10.797000      1.155000     -8.930000
C           9.849000      1.855000     -9.637000
N          11.949000      1.657000     -8.503000
C          10.071000      3.199000     -9.963000
C          12.130000      2.951000     -8.805000
C          11.363000      3.696000     -9.626000
C          11.791000      5.067000    -10.059000
C          10.927000      6.089000    -10.039000
C          13.156000      5.511000    -10.221000
N          11.188000      7.407000    -10.053000
N          14.189000      4.638000    -10.264000
C          13.447000      6.850000    -10.252000
C          12.436000      7.824000    -10.206000
S          15.490000      5.642000    -10.270000
N          14.773000      7.108000    -10.410000
C          12.663000      9.265000    -10.202000
S          14.227000     10.018000    -10.659000
C          11.767000     10.297000     -9.869000
C          13.636000     11.636000    -10.394000
S          10.175000     10.172000     -9.256000
C          12.316000     11.563000    -10.024000
C          14.354000     12.860000    -10.560000
C          10.222000     11.890000     -9.256000
C          11.410000     12.479000     -9.632000
N          13.729000     13.961000    -10.915000
S          16.022000     13.000000    -10.005000
C          14.613000     15.045000    -10.725000
C          15.878000     14.724000    -10.206000
C          10.601000     -0.309000     -8.638000
H           8.946000      1.395000    -10.027000
H           9.311000      3.862000    -10.366000
H          13.092000      3.311000     -8.445000
H           9.870000      5.916000     -9.844000
H           9.399000     12.500000     -8.908000
H          11.549000     13.553000     -9.685000
H          14.286000     16.023000    -11.052000
H          16.792000     15.297000    -10.124000
H          10.642000     -0.377000     -7.544000
C          11.663000     -1.301000     -9.268000
H           9.604000     -0.632000     -8.963000
H          12.665000     -0.943000     -9.002000
H          11.603000     -1.193000    -10.358000
C          11.486000     -2.752000     -8.736000
H          10.506000     -3.060000     -9.119000
C          11.678000     -3.023000     -7.227000
H          12.165000     -3.361000     -9.345000
H          10.921000     -2.543000     -6.595000
H          12.666000     -2.587000     -7.035000
C          11.719000     -4.478000     -6.812000
H          11.666000     -4.601000     -5.723000
C          12.952000     -5.279000     -7.295000
H          10.803000     -4.954000     -7.185000
H          12.830000     -6.369000     -7.263000
H          13.805000     -5.022000     -6.654000
H          13.332000     -4.904000     -8.253000
C           8.808000      0.305000     -5.524000
C           8.683000     -1.040000     -5.395000
N           8.158000      0.922000     -6.540000
C           7.916000     -1.843000     -6.286000
C           7.456000      0.193000     -7.464000
C           7.261000     -1.252000     -7.336000
C           6.514000     -2.135000     -8.328000
C           6.254000     -1.734000     -9.649000
C           5.838000     -3.341000     -7.966000
N           5.528000     -2.349000    -10.578000
N           5.891000     -3.968000     -6.763000
C           5.022000     -4.034000     -8.865000
C           4.903000     -3.526000    -10.208000
S           5.106000     -5.334000     -6.889000
N           4.456000     -5.165000     -8.330000
C           3.956000     -4.086000    -11.165000
S           2.614000     -5.240000    -10.815000
C           4.002000     -3.875000    -12.519000
C           2.060000     -5.234000    -12.495000
S           5.109000     -3.027000    -13.581000
C           3.021000     -4.553000    -13.205000
C           0.913000     -5.901000    -13.013000
C           4.119000     -3.611000    -14.977000
C           3.086000     -4.377000    -14.559000
N           0.951000     -6.620000    -14.134000
S          -0.599000     -5.856000    -12.244000
C          -0.189000     -7.213000    -14.365000
C          -1.125000     -6.985000    -13.380000
C           9.828000      1.089000     -4.613000
H           9.366000     -1.419000     -4.641000
H           7.872000     -2.920000     -6.161000
H           7.009000      0.788000     -8.258000
H           6.863000     -0.915000    -10.029000
H           4.443000     -3.248000    -15.944000
H           2.433000     -4.880000    -15.264000
H          -0.233000     -7.756000    -15.300000
H          -2.077000     -7.443000    -13.146000
H          10.807000      0.603000     -4.517000
C           9.301000      1.410000     -3.186000
H          10.147000      1.928000     -5.244000
H           8.444000      2.090000     -3.263000
H          10.195000      1.836000     -2.713000
C           8.904000      0.201000     -2.298000
H           8.022000     -0.275000     -2.745000
C           8.707000      0.698000     -0.824000
H           9.692000     -0.562000     -2.308000
H           7.920000      1.462000     -0.796000
H           9.640000      1.207000     -0.551000
C           8.497000     -0.411000      0.105000
H           8.241000      0.069000      1.058000
C           9.772000     -1.176000      0.455000
H           7.724000     -1.102000     -0.252000
H          10.338000     -1.589000     -0.390000
H           9.514000     -2.076000      1.028000
H          10.466000     -0.548000      1.026000
$end

--------------------------------------------------------------

             Standard Nuclear Orientation (Angstroms)
    I     Atom           X                Y                Z
 ----------------------------------------------------------------
    1      C      -0.6387038338     1.0645746596    -1.5335666449
    2      C      -0.6780391232    -0.1054308838    -0.8137800352
    3      N      -1.7051812830     1.7227825562    -1.9704021003
    4      C      -1.9106357056    -0.6913863819    -0.4987279452
    5      C      -2.8745170068     1.1572241602    -1.6369374605
    6      C      -3.0457724923    -0.0606107813    -1.0847557749
    7      C      -4.4091672031    -0.6740075985    -0.9614139443
    8      C      -4.7931068242    -1.2584367377     0.1798191382
    9      C      -5.5197140980    -0.4447033072    -1.8562380255
   10      N      -6.0378336623    -1.5458900808     0.5963124443
   11      N      -5.3518226332     0.1390915482    -3.0653960065
   12      C      -6.7977122387    -0.7422055584    -1.4602883283
   13      C      -7.0622449562    -1.3436835506    -0.2188538088
   14      S      -6.9022345319     0.3262423825    -3.5771093145
   15      N      -7.7314976513    -0.4713282839    -2.4113268688
   16      C      -8.3920358578    -1.6621075032     0.2893669548
   17      S      -9.8579164932    -1.7089042586    -0.7455040644
   18      C      -8.7794839538    -1.9831535209     1.6029659908
   19      C     -10.8995082189    -2.1436815019     0.5824588213
   20      S      -7.8300257907    -1.9844811638     3.0257749850
   21      C     -10.1323318873    -2.2761344030     1.7131779311
   22      C     -12.3090849166    -2.3729934648     0.5404402915
   23      C      -9.2930911763    -2.4499115464     3.7981396893
   24      C     -10.4196434745    -2.5158674131     3.0068301779
   25      N     -12.8745482595    -3.2253492788     1.3666314159
   26      S     -13.3597034327    -1.3112796756    -0.3970102745
   27      C     -14.2720202427    -3.0387581963     1.2968616211
   28      C     -14.7153546281    -2.0264916323     0.4300294424
   29      C       0.6814617924     1.6635365293    -1.9402402218
   30      H       0.2157959615    -0.6517761070    -0.5279921096
   31      H      -2.0339631069    -1.5125595453     0.2013027597
   32      H      -3.7157031446     1.7265444369    -2.0279928326
   33      H      -4.0788649605    -1.4222354074     0.9849474236
   34      H      -9.3679454740    -2.6124810569     4.8651453071
   35      H     -11.3920114889    -2.8139001481     3.3827063988
   36      H     -14.8984782069    -3.7230229034     1.8533454303
   37      H     -15.6973220501    -1.7812994925     0.0478386565
   38      H       0.6718465698     2.6687788853    -1.5014505761
   39      C       0.9567455121     1.7702303314    -3.4964032294
   40      H       1.5093979076     1.1021292089    -1.4893448795
   41      H       0.0991739930     2.2712533027    -3.9616677476
   42      H       0.9431110965     0.7503737105    -3.9002232085
   43      C       2.2459786768     2.5855279668    -3.8012336951
   44      H       3.0544176719     1.9746184364    -3.3827018125
   45      C       2.3069924959     4.0712755476    -3.3814510847
   46      H       2.4091772177     2.4635974567    -4.8788710121
   47      H       2.2934021611     4.2214114554    -2.2951051398
   48      H       1.3947920707     4.4795901542    -3.8334174179
   49      C       3.4852126972     4.8633386627    -3.9062026250
   50      H       3.5731610403     5.8453082688    -3.4246844201
   51      C       3.5013609310     5.1092460970    -5.4340925975
   52      H       4.3988499002     4.3318380223    -3.6103392602
   53      H       4.4786765343     5.3993306748    -5.8399412752
   54      H       2.7945593955     5.9171995943    -5.6625258166
   55      H       3.0186742675     4.2920472156    -5.9836274674
   56      C       1.0215675562     3.6015622648     1.1285095754
   57      C       2.2099604303     4.0482909427     0.6495034531
   58      N       0.9013598063     2.2892435038     1.4428574188
   59      C       3.3366870067     3.2031344830     0.4417132207
   60      C       1.9319989992     1.4177120030     1.2057146407
   61      C       3.2423346924     1.8661121496     0.7320146515
   62      C       4.4291426532     0.9610594765     0.4252109308
   63      C       4.2889249209    -0.4191092822     0.2040431549
   64      C       5.7928145524     1.3746305658     0.5339027221
   65      N       5.2374952073    -1.3358542691     0.0363081233
   66      N       6.2399458869     2.6380316918     0.7507855583
   67      C       6.8545955221     0.4736031216     0.4111154383
   68      C       6.5487236417    -0.9047267130     0.1238468183
   69      S       7.8167006698     2.6235741364     0.6426544634
   70      N       8.0884566578     1.0598050044     0.5514580564
   71      C       7.5731224080    -1.9423792161     0.1357820796
   72      S       9.2575584728    -1.7969667161     0.7656315447
   73      C       7.4260565809    -3.1868716048    -0.4206020835
   74      C       9.6228904839    -3.4921080425     0.4158024358
   75      S       6.1547135654    -3.9641104340    -1.3436317360
   76      C       8.5568261755    -3.9632013917    -0.3142386224
   77      C      10.8283561252    -4.1829296561     0.7295540665
   78      C       7.2403818168    -5.4004224467    -1.5118704062
   79      C       8.4286653634    -5.1909330107    -0.9014071485
   80      N      11.4543645535    -4.9622668694    -0.1512370300
   81      S      11.5855925129    -4.0643442216     2.2435093326
   82      C      12.5825206319    -5.4165398565     0.3236418136
   83      C      12.8633107973    -4.9475304866     1.5883520943
   84      C      -0.2282641567     4.5620830519     1.1457579560
   85      H       2.1235807145     5.0732049381     0.3020328116
   86      H       4.2567702417     3.6005750347     0.0258071634
   87      H       1.7103622199     0.3826882051     1.4584454772
   88      H       3.2863658833    -0.7643904402    -0.0443482660
   89      H       6.7986867467    -6.2426642630    -2.0289469847
   90      H       9.2346221507    -5.9136598222    -0.9688060575
   91      H      13.0985663151    -6.1101007391    -0.3272653647
   92      H      13.7570761721    -4.9583581923     2.1981801156
   93      H      -0.3602712001     5.1408742563     0.2230294574
   94      C      -0.2665133697     5.5465188454     2.3484724551
   95      H      -1.0790297514     3.8825941377     1.0103485084
   96      H      -0.3642253764     4.9745968012     3.2791364863
   97      H      -1.1303325596     6.1728144509     2.0915459645
   98      C       0.9260614577     6.5296394074     2.4865783631
   99      H       1.8241108488     5.9448462124     2.7228688839
  100      C       0.5584090073     7.6267176063     3.5447584523
  101      H       1.1344144980     7.0224767645     1.5290224378
  102      H       0.3479472621     7.1499434060     4.5102848453
  103      H      -0.3880917481     8.0663748718     3.2057351361
  104      C       1.5635195836     8.6863478367     3.6076750978
  105      H       1.2633260571     9.3041701175     4.4634346879
  106      C       1.4930173450     9.6769492503     2.4470337778
  107      H       2.5782844697     8.2815968240     3.7019504579
  108      H       1.5634690992     9.2492444854     1.4385422387
  109      H       2.3638384877    10.3443311265     2.4811654162
  110      H       0.5654852429    10.2605605923     2.4808420778
 ----------------------------------------------------------------

    9   -5663.5004991465      9.83E-06 Convergence criterion met
 Total energy in the final basis set = -5663.5004991465

                    Orbital Energies (a.u.)
 --------------------------------------------------------------

 Alpha MOs
 -- Occupied --
-88.995 -88.984 -88.933 -88.926 -88.922 -88.920 -88.912 -88.907
-14.387 -14.386 -14.384 -14.378 -14.354 -14.346 -14.342 -14.341
-14.330 -14.320 -10.268 -10.266 -10.265 -10.259 -10.258 -10.256
-10.253 -10.250 -10.242 -10.239 -10.239 -10.238 -10.237 -10.235
-10.233 -10.231 -10.230 -10.229 -10.228 -10.227 -10.225 -10.224
-10.223 -10.223 -10.222 -10.215 -10.215 -10.212 -10.210 -10.210
-10.206 -10.205 -10.199 -10.194 -10.191 -10.190 -10.188 -10.187
-10.183 -10.181 -10.178 -10.177 -10.176 -10.175 -10.174 -10.174
-10.174 -10.172 -10.171 -10.170  -8.052  -8.040  -7.996  -7.985
 -7.984  -7.979  -7.972  -7.966  -6.017  -6.011  -6.010  -6.005
 -5.999  -5.998  -5.959  -5.956  -5.953  -5.949  -5.947  -5.945
 -5.944  -5.944  -5.942  -5.941  -5.940  -5.937  -5.936  -5.933
 -5.931  -5.929  -5.927  -5.922  -1.052  -1.038  -0.992  -0.965
 -0.963  -0.957  -0.943  -0.929  -0.919  -0.919  -0.906  -0.904
 -0.850  -0.846  -0.834  -0.833  -0.827  -0.813  -0.810  -0.807
 -0.805  -0.800  -0.798  -0.796  -0.785  -0.782  -0.769  -0.766
 -0.751  -0.750  -0.743  -0.742  -0.725  -0.718  -0.709  -0.706
 -0.696  -0.690  -0.675  -0.670  -0.658  -0.654  -0.649  -0.643
 -0.637  -0.636  -0.629  -0.623  -0.613  -0.609  -0.604  -0.596
 -0.596  -0.591  -0.581  -0.581  -0.578  -0.575  -0.565  -0.559
 -0.555  -0.554  -0.541  -0.541  -0.530  -0.524  -0.522  -0.511
 -0.510  -0.507  -0.501  -0.497  -0.488  -0.483  -0.478  -0.477
 -0.472  -0.471  -0.469  -0.465  -0.460  -0.452  -0.449  -0.447
 -0.443  -0.443  -0.441  -0.440  -0.438  -0.437  -0.433  -0.433
 -0.428  -0.423  -0.422  -0.420  -0.419  -0.418  -0.416  -0.414
 -0.411  -0.409  -0.405  -0.404  -0.403  -0.401  -0.396  -0.395
 -0.394  -0.393  -0.391  -0.391  -0.387  -0.386  -0.384  -0.381
 -0.378  -0.374  -0.373  -0.367  -0.366  -0.364  -0.360  -0.357
 -0.350  -0.350  -0.350  -0.346  -0.346  -0.341  -0.340  -0.337
 -0.336  -0.334  -0.333  -0.333  -0.332  -0.324  -0.322  -0.316
 -0.314  -0.312  -0.308  -0.307  -0.305  -0.303  -0.302  -0.299
 -0.299  -0.298  -0.293  -0.289  -0.288  -0.286  -0.285  -0.281
 -0.280  -0.274  -0.268  -0.264  -0.255  -0.253  -0.252  -0.249
 -0.245  -0.242  -0.234  -0.227  -0.197  -0.191

          Ground-State Mulliken Net Atomic Charges

     Atom                 Charge (a.u.)
  ----------------------------------------
      1 C                     0.287414
      2 C                    -0.108559
      3 N                    -0.481962
      4 C                    -0.078203
      5 C                     0.069941
      6 C                     0.051544
      7 C                     0.077209
      8 C                     0.040696
      9 C                     0.192981
     10 N                    -0.542343
     11 N                    -0.537812
     12 C                     0.209286
     13 C                     0.327382
     14 S                     0.595231
     15 N                    -0.555329
     16 C                    -0.238464
     17 S                     0.319046
     18 C                    -0.108729
     19 C                    -0.227277
     20 S                     0.301589
     21 C                     0.201163
     22 C                     0.053490
     23 C                    -0.304042
     24 C                    -0.085869
     25 N                    -0.422978
     26 S                     0.269412
     27 C                     0.099714
     28 C                    -0.302986
     29 C                    -0.221758
     30 H                     0.084623
     31 H                     0.105806
     32 H                     0.101203
     33 H                     0.099481
     34 H                     0.113996
     35 H                     0.118085
     36 H                     0.114547
     37 H                     0.140016
     38 H                     0.122695
     39 C                    -0.189074
     40 H                     0.082972
     41 H                     0.112021
     42 H                     0.089750
     43 C                    -0.178641
     44 H                     0.085112
     45 C                    -0.174204
     46 H                     0.091401
     47 H                     0.096920
     48 H                     0.093620
     49 C                    -0.173785
     50 H                     0.089577
     51 C                    -0.325292
     52 H                     0.088738
     53 H                     0.102872
     54 H                     0.100545
     55 H                     0.106433
     56 C                     0.265322
     57 C                    -0.106173
     58 N                    -0.485880
     59 C                    -0.080704
     60 C                     0.056027
     61 C                     0.050734
     62 C                     0.057718
     63 C                     0.044414
     64 C                     0.212373
     65 N                    -0.501137
     66 N                    -0.551291
     67 C                     0.192423
     68 C                     0.266944
     69 S                     0.622010
     70 N                    -0.551287
     71 C                    -0.230182
     72 S                     0.315668
     73 C                    -0.088179
     74 C                    -0.210026
     75 S                     0.257606
     76 C                     0.163299
     77 C                     0.011633
     78 C                    -0.322114
     79 C                    -0.039790
     80 N                    -0.397784
     81 S                     0.299849
     82 C                     0.134243
     83 C                    -0.325193
     84 C                    -0.246793
     85 H                     0.086474
     86 H                     0.126418
     87 H                     0.106649
     88 H                     0.104436
     89 H                     0.132958
     90 H                     0.120888
     91 H                     0.113939
     92 H                     0.135034
     93 H                     0.107647
     94 C                    -0.170292
     95 H                     0.123153
     96 H                     0.107685
     97 H                     0.095672
     98 C                    -0.188235
     99 H                     0.099322
    100 C                    -0.161255
    101 H                     0.088899
    102 H                     0.090884
    103 H                     0.088250
    104 C                    -0.169207
    105 H                     0.092610
    106 C                    -0.321023
    107 H                     0.094149
    108 H                     0.099051
    109 H                     0.099668
    110 H                     0.103298
  ----------------------------------------
  Sum of atomic charges =     0.000000

                    Cartesian Multipole Moments
 -----------------------------------------------------------------
    Charge (ESU x 10^10)
                 0.0000
    Dipole Moment (Debye)
         X       2.6323      Y       0.5954      Z       1.2110
       Tot       2.9581
    Quadrupole Moments (Debye-Ang)
        XX    -349.8037     XY     -18.3434     YY    -425.6368
        XZ      13.8192     YZ      -2.4551     ZZ    -443.2503

 Total job time:  86.67s(wall), 1026.10s(cpu)
        *  Thank you very much for using Q-Chem.  Have a nice day.  *
