 Q-Chem 4.4, Q-Chem, Inc., Pleasanton, CA (2016)
 Q-Chem 4.4.2 for Intel X86 Linux

User input:
--------------------------------------------------------------
$comment
SP
$end

$rem
MEM_STATIC 5000
MEM_TOTAL 20000
JOBTYPE SP
EXCHANGE B3LYP
BASIS 6-31g(d,p)
$end

$molecule
0 1
C          -3.428000    -13.600000    -14.293000
C          -2.730000    -12.693000    -15.054000
N          -3.271000    -13.591000    -12.991000
C          -1.890000    -11.733000    -14.524000
C          -2.539000    -12.654000    -12.392000
C          -1.718000    -11.688000    -13.095000
C          -0.982000    -10.665000    -12.390000
C          -1.482000    -10.059000    -11.246000
C           0.292000    -10.232000    -12.728000
N          -0.964000     -9.151000    -10.444000
N           1.048000    -10.632000    -13.758000
C           1.003000     -9.431000    -11.748000
C           0.336000     -8.953000    -10.589000
S           2.491000     -9.921000    -13.501000
N           2.256000     -9.221000    -12.114000
C           0.860000     -8.168000     -9.436000
S          -0.035000     -7.059000     -8.443000
C           1.974000     -8.606000     -8.741000
C           1.185000     -7.051000     -7.146000
S           2.928000    -10.020000     -8.986000
C           2.153000     -7.997000     -7.500000
C           0.917000     -6.410000     -5.864000
C           3.844000     -9.615000     -7.424000
C           3.230000     -8.539000     -6.783000
N           1.961000     -6.017000     -5.166000
S          -0.600000     -6.283000     -5.115000
C           1.550000     -5.689000     -3.909000
C           0.199000     -5.719000     -3.724000
C          -4.332000    -14.700000    -14.875000
H          -2.764000    -12.761000    -16.138000
H          -1.326000    -11.064000    -15.167000
H          -2.457000    -12.675000    -11.306000
H          -2.503000    -10.352000    -11.007000
H           4.626000    -10.211000     -6.972000
H           3.471000     -8.258000     -5.764000
H           2.232000     -5.673000     -3.069000
H          -0.304000     -5.588000     -2.775000
H          -3.805000    -15.555000    -15.317000
C          -5.428000    -14.197000    -15.846000
H          -4.865000    -15.255000    -14.093000
H          -4.998000    -13.716000    -16.733000
H          -5.910000    -13.390000    -15.279000
C          -6.367000    -15.348000    -16.413000
H          -5.737000    -16.033000    -16.993000
C          -7.494000    -14.782000    -17.223000
H          -6.906000    -15.925000    -15.651000
H          -7.850000    -13.901000    -16.675000
H          -8.327000    -15.493000    -17.150000
C          -7.044000    -14.358000    -18.662000
H          -6.403000    -13.478000    -18.529000
C          -8.292000    -14.055000    -19.514000
H          -6.444000    -15.136000    -19.150000
H          -8.991000    -13.306000    -19.123000
H          -8.808000    -15.017000    -19.622000
H          -8.004000    -13.684000    -20.505000
C           8.808000      0.305000     -5.524000
C           8.683000     -1.040000     -5.395000
N           8.158000      0.922000     -6.540000
C           7.916000     -1.843000     -6.286000
C           7.456000      0.193000     -7.464000
C           7.261000     -1.252000     -7.336000
C           6.514000     -2.135000     -8.328000
C           6.254000     -1.734000     -9.649000
C           5.838000     -3.341000     -7.966000
N           5.528000     -2.349000    -10.578000
N           5.891000     -3.968000     -6.763000
C           5.022000     -4.034000     -8.865000
C           4.903000     -3.526000    -10.208000
S           5.106000     -5.334000     -6.889000
N           4.456000     -5.165000     -8.330000
C           3.956000     -4.086000    -11.165000
S           2.614000     -5.240000    -10.815000
C           4.002000     -3.875000    -12.519000
C           2.060000     -5.234000    -12.495000
S           5.109000     -3.027000    -13.581000
C           3.021000     -4.553000    -13.205000
C           0.913000     -5.901000    -13.013000
C           4.119000     -3.611000    -14.977000
C           3.086000     -4.377000    -14.559000
N           0.951000     -6.620000    -14.134000
S          -0.599000     -5.856000    -12.244000
C          -0.189000     -7.213000    -14.365000
C          -1.125000     -6.985000    -13.380000
C           9.828000      1.089000     -4.613000
H           9.366000     -1.419000     -4.641000
H           7.872000     -2.920000     -6.161000
H           7.009000      0.788000     -8.258000
H           6.863000     -0.915000    -10.029000
H           4.443000     -3.248000    -15.944000
H           2.433000     -4.880000    -15.264000
H          -0.233000     -7.756000    -15.300000
H          -2.077000     -7.443000    -13.146000
H          10.807000      0.603000     -4.517000
C           9.301000      1.410000     -3.186000
H          10.147000      1.928000     -5.244000
H           8.444000      2.090000     -3.263000
H          10.195000      1.836000     -2.713000
C           8.904000      0.201000     -2.298000
H           8.022000     -0.275000     -2.745000
C           8.707000      0.698000     -0.824000
H           9.692000     -0.562000     -2.308000
H           7.920000      1.462000     -0.796000
H           9.640000      1.207000     -0.551000
C           8.497000     -0.411000      0.105000
H           8.241000      0.069000      1.058000
C           9.772000     -1.176000      0.455000
H           7.724000     -1.102000     -0.252000
H          10.338000     -1.589000     -0.390000
H           9.514000     -2.076000      1.028000
H          10.466000     -0.548000      1.026000
$end

--------------------------------------------------------------

             Standard Nuclear Orientation (Angstroms)
    I     Atom           X                Y                Z
 ----------------------------------------------------------------
    1      C       9.8236746108    -1.3013603393     0.8565897085
    2      C       9.2884470620    -0.0359618813     0.8209216046
    3      N       9.0143572181    -2.3332055017     0.8719167626
    4      C       7.9326616864     0.2215959355     0.7608384411
    5      C       7.6983704605    -2.1783274117     0.7423573894
    6      C       7.0237415341    -0.8953043625     0.7539188282
    7      C       5.5964483044    -0.7891612174     0.5620395192
    8      C       4.9074393951    -1.6342241908    -0.2965100100
    9      C       4.7710385291     0.0971650053     1.2387473806
   10      N       3.6242736296    -1.7307050926    -0.5796514124
   11      N       5.1241962525     1.0216940826     2.1403912170
   12      C       3.3400745022    -0.1334367077     1.1569745008
   13      C       2.8175536793    -1.1020615566     0.2595382124
   14      S       3.7088945898     1.5902248603     2.7126786957
   15      N       2.6747272555     0.6698341229     1.9694608170
   16      C       1.4121222271    -1.5444730165     0.0376271195
   17      S       0.7405265341    -2.1661217927    -1.4386746871
   18      C       0.6340007821    -1.9609657823     1.1038943435
   19      C      -0.6937842357    -2.8514924344    -0.6363700698
   20      S       1.0431761916    -2.0807742952     2.7735525135
   21      C      -0.5111151545    -2.6666987224     0.7383078164
   22      C      -1.6160751317    -3.7212681362    -1.3568551368
   23      C      -0.5918229288    -2.9078986851     3.0660728031
   24      C      -1.2176569987    -3.1599534604     1.8452316556
   25      N      -2.8476776584    -3.7914948095    -0.8988022679
   26      S      -1.2039017746    -4.7786751523    -2.6179746894
   27      C      -3.4860158115    -4.8263838025    -1.5136869518
   28      C      -2.7707114596    -5.4297782895    -2.5059473900
   29      C      11.3287857403    -1.5987215096     0.9668476889
   30      H       9.9410039335     0.8272621368     0.9201678838
   31      H       7.5534436927     1.2389672283     0.7768186100
   32      H       7.0691729057    -3.0675139482     0.7380283897
   33      H       5.5542882570    -2.2938006874    -0.8726665817
   34      H      -0.9471980882    -3.2992658591     4.0103101838
   35      H      -2.0834837405    -3.8070112886     1.7611886898
   36      H      -4.3574520251    -5.3002938311    -1.0812656175
   37      H      -3.0695109153    -6.3253436511    -3.0345801248
   38      H      11.7661776472    -1.4420236967     1.9609563928
   39      C      12.2084449489    -0.9170633551    -0.1095387832
   40      H      11.5460942439    -2.6711476758     0.8873673003
   41      H      12.1532913328     0.1767044698    -0.0490406514
   42      H      11.7046662937    -1.1850104570    -1.0473412235
   43      C      13.7563203017    -1.2610167476     0.0078876026
   44      H      14.1073100942    -0.8799841554     0.9743995421
   45      C      14.5289698746    -0.6955527890    -1.1453028193
   46      H      14.0011571663    -2.3285188866    -0.0598478598
   47      H      13.9171725527    -0.8739503625    -2.0380958204
   48      H      15.4034607509    -1.3427753453    -1.2905876080
   49      C      14.7973379585     0.8398241701    -0.9917021517
   50      H      13.8235080087     1.3287560110    -1.1164854986
   51      C      15.8205460504     1.2837974927    -2.0552574580
   52      H      15.1710057580     1.0928538883     0.0081860108
   53      H      15.5755905155     1.0668320228    -3.1018738016
   54      H      16.7555044768     0.7776657106    -1.7849847069
   55      H      15.9714200676     2.3694105804    -2.0185524886
   56      C     -10.4515115147     1.5400082530    -0.0420393023
   57      C      -9.6497995714     0.7910306012     0.7564476650
   58      N      -9.8785558241     2.4539660886    -0.8617025572
   59      C      -8.2331614421     0.9284137366     0.7916795368
   60      C      -8.5262334290     2.6729128640    -0.8255438877
   61      C      -7.6232473212     1.8575132785    -0.0118033855
   62      C      -6.1157808708     2.0498785815     0.0991132094
   63      C      -5.4785487292     3.2475802288    -0.2654248021
   64      C      -5.1981524845     0.9909191901     0.3802166639
   65      N      -4.1769710025     3.5139028879    -0.3229544685
   66      N      -5.5144410153    -0.2760484946     0.7515675104
   67      C      -3.8134692761     1.1683333150     0.3061718093
   68      C      -3.3110696210     2.4776708098    -0.0241370025
   69      S      -4.1708666613    -1.0344259770     1.0946834520
   70      N      -3.0998696997     0.0339917254     0.6058162702
   71      C      -1.8962129062     2.7206778294    -0.2798439931
   72      S      -0.6092338732     1.4802267645    -0.5250910608
   73      C      -1.3090565654     3.9596792509    -0.2885565659
   74      C       0.6323098980     2.7062002712    -0.8164843094
   75      S      -1.8866062439     5.5817667851     0.0395674964
   76      C       0.0479075014     3.9128507601    -0.5101341236
   77      C       1.9890998170     2.4705707650    -1.1803824428
   78      C      -0.1922987266     6.1665199329    -0.1999273740
   79      C       0.6446066454     5.1423383844    -0.4813710700
   80      N       3.0056928009     3.0969804454    -0.5894546831
   81      S       2.4360623364     1.3614439271    -2.3843725439
   82      C       4.1576597912     2.6571806222    -1.0185912217
   83      C       4.0375623208     1.6353048319    -1.9349162005
   84      C     -12.0173402906     1.4590214443     0.1210507998
   85      H     -10.2404103173     0.2126986525     1.4602637659
   86      H      -7.6362063987     0.3286495446     1.4709567926
   87      H      -8.1814698982     3.4572402821    -1.4965421061
   88      H      -6.1170492381     4.1270225085    -0.3357126150
   89      H      -0.0710646371     7.2401383747    -0.1329965358
   90      H       1.7142080217     5.2953241853    -0.5761932215
   91      H       5.0166646067     3.1805850562    -0.6196319186
   92      H       4.7442891334     0.9284170029    -2.3492479631
   93      H     -12.3599920974     1.4774024619     1.1632143558
   94      C     -12.6758156027     0.2417407933    -0.5872832176
   95      H     -12.3591973082     2.4633483679    -0.1587780946
   96      H     -12.5307972545     0.3335325360    -1.6704830859
   97      H     -13.7154433110     0.3256525048    -0.2458537916
   98      C     -12.2086287394    -1.1675346484    -0.1361588842
   99      H     -11.1606194898    -1.2916165007    -0.4371394592
  100      C     -13.1922928281    -2.2389847706    -0.7217300551
  101      H     -12.2160791352    -1.2460642457     0.9579117689
  102      H     -13.1958589639    -2.1747064676    -1.8170403227
  103      H     -14.1949914597    -1.9385133229    -0.3924712461
  104      C     -12.9173852130    -3.5774924056    -0.2022638731
  105      H     -13.5715059900    -4.2408002259    -0.7821722665
  106      C     -13.4081430605    -3.8003013882     1.2270236740
  107      H     -11.8553557673    -3.8376064605    -0.2852887784
  108      H     -13.0360147118    -3.0972225129     1.9834300378
  109      H     -13.0344563299    -4.7638184795     1.5970048116
  110      H     -14.5029759097    -3.7723899878     1.2782387696
 ----------------------------------------------------------------

    9   -5663.4893317313      7.58E-06 Convergence criterion met
 Total energy in the final basis set = -5663.4893317313

                    Orbital Energies (a.u.)
 --------------------------------------------------------------

 Alpha MOs
 -- Occupied --
-88.988 -88.984 -88.934 -88.929 -88.925 -88.918 -88.913 -88.900
-14.384 -14.378 -14.375 -14.366 -14.351 -14.346 -14.346 -14.339
-14.327 -14.324 -10.271 -10.266 -10.262 -10.259 -10.259 -10.256
-10.248 -10.247 -10.245 -10.239 -10.236 -10.235 -10.233 -10.232
-10.230 -10.230 -10.230 -10.229 -10.229 -10.229 -10.228 -10.228
-10.225 -10.220 -10.220 -10.219 -10.219 -10.218 -10.217 -10.215
-10.214 -10.211 -10.204 -10.198 -10.196 -10.193 -10.187 -10.186
-10.186 -10.184 -10.184 -10.183 -10.181 -10.181 -10.176 -10.176
-10.174 -10.174 -10.173 -10.172  -8.044  -8.040  -7.997  -7.992
 -7.984  -7.976  -7.973  -7.960  -6.009  -6.005  -6.004  -6.002
 -5.999  -5.998  -5.960  -5.957  -5.956  -5.954  -5.952  -5.950
 -5.949  -5.945  -5.941  -5.941  -5.938  -5.937  -5.934  -5.933
 -5.929  -5.924  -5.921  -5.916  -1.052  -1.041  -0.989  -0.985
 -0.979  -0.950  -0.948  -0.923  -0.919  -0.913  -0.912  -0.895
 -0.846  -0.839  -0.839  -0.824  -0.823  -0.823  -0.810  -0.809
 -0.807  -0.805  -0.799  -0.792  -0.788  -0.781  -0.771  -0.764
 -0.754  -0.747  -0.745  -0.737  -0.723  -0.718  -0.717  -0.704
 -0.701  -0.691  -0.678  -0.668  -0.656  -0.651  -0.651  -0.642
 -0.632  -0.630  -0.628  -0.621  -0.616  -0.609  -0.602  -0.601
 -0.596  -0.592  -0.590  -0.580  -0.576  -0.571  -0.568  -0.564
 -0.556  -0.553  -0.549  -0.534  -0.529  -0.524  -0.522  -0.516
 -0.514  -0.509  -0.500  -0.494  -0.490  -0.485  -0.482  -0.477
 -0.474  -0.473  -0.468  -0.464  -0.463  -0.458  -0.457  -0.449
 -0.448  -0.442  -0.440  -0.439  -0.438  -0.437  -0.436  -0.434
 -0.430  -0.428  -0.424  -0.422  -0.417  -0.416  -0.415  -0.414
 -0.411  -0.411  -0.408  -0.405  -0.402  -0.398  -0.398  -0.396
 -0.395  -0.394  -0.390  -0.388  -0.387  -0.386  -0.385  -0.383
 -0.379  -0.375  -0.375  -0.372  -0.369  -0.361  -0.360  -0.358
 -0.352  -0.350  -0.345  -0.344  -0.343  -0.342  -0.341  -0.339
 -0.336  -0.335  -0.335  -0.331  -0.331  -0.329  -0.326  -0.321
 -0.318  -0.310  -0.309  -0.305  -0.302  -0.301  -0.300  -0.299
 -0.299  -0.296  -0.294  -0.292  -0.288  -0.287  -0.284  -0.280
 -0.277  -0.273  -0.272  -0.259  -0.259  -0.249  -0.246  -0.245
 -0.242  -0.238  -0.236  -0.227  -0.200  -0.190

          Ground-State Mulliken Net Atomic Charges

     Atom                 Charge (a.u.)
  ----------------------------------------
      1 C                     0.285553
      2 C                    -0.112506
      3 N                    -0.479687
      4 C                    -0.061130
      5 C                     0.069827
      6 C                     0.014306
      7 C                     0.060864
      8 C                     0.033542
      9 C                     0.230225
     10 N                    -0.483704
     11 N                    -0.571826
     12 C                     0.201613
     13 C                     0.254894
     14 S                     0.623943
     15 N                    -0.515415
     16 C                    -0.194683
     17 S                     0.313024
     18 C                    -0.117498
     19 C                    -0.217656
     20 S                     0.246222
     21 C                     0.176639
     22 C                     0.029793
     23 C                    -0.305149
     24 C                    -0.065185
     25 N                    -0.417941
     26 S                     0.303401
     27 C                     0.111660
     28 C                    -0.303426
     29 C                    -0.233446
     30 H                     0.085598
     31 H                     0.111660
     32 H                     0.101951
     33 H                     0.100000
     34 H                     0.130301
     35 H                     0.119412
     36 H                     0.114778
     37 H                     0.134357
     38 H                     0.107020
     39 C                    -0.188153
     40 H                     0.120106
     41 H                     0.095055
     42 H                     0.100021
     43 C                    -0.176822
     44 H                     0.092584
     45 C                    -0.174035
     46 H                     0.088952
     47 H                     0.095881
     48 H                     0.085467
     49 C                    -0.175504
     50 H                     0.096701
     51 C                    -0.315885
     52 H                     0.094595
     53 H                     0.104231
     54 H                     0.105476
     55 H                     0.094779
     56 C                     0.268308
     57 C                    -0.108534
     58 N                    -0.492663
     59 C                    -0.079907
     60 C                     0.061448
     61 C                     0.046616
     62 C                     0.053308
     63 C                     0.044484
     64 C                     0.209445
     65 N                    -0.501323
     66 N                    -0.557436
     67 C                     0.190662
     68 C                     0.264831
     69 S                     0.640156
     70 N                    -0.553609
     71 C                    -0.237772
     72 S                     0.345673
     73 C                    -0.090805
     74 C                    -0.222059
     75 S                     0.254592
     76 C                     0.164098
     77 C                     0.011071
     78 C                    -0.322734
     79 C                    -0.041315
     80 N                    -0.405600
     81 S                     0.305514
     82 C                     0.121996
     83 C                    -0.330372
     84 C                    -0.242858
     85 H                     0.080199
     86 H                     0.123238
     87 H                     0.108664
     88 H                     0.106064
     89 H                     0.129791
     90 H                     0.116800
     91 H                     0.112598
     92 H                     0.137847
     93 H                     0.100513
     94 C                    -0.168511
     95 H                     0.115130
     96 H                     0.108246
     97 H                     0.093151
     98 C                    -0.187373
     99 H                     0.101455
    100 C                    -0.161228
    101 H                     0.088077
    102 H                     0.090686
    103 H                     0.087394
    104 C                    -0.168997
    105 H                     0.091953
    106 C                    -0.320877
    107 H                     0.094112
    108 H                     0.099171
    109 H                     0.098982
    110 H                     0.102919
  ----------------------------------------
  Sum of atomic charges =     0.000000

                    Cartesian Multipole Moments
 -----------------------------------------------------------------
    Charge (ESU x 10^10)
                 0.0000
    Dipole Moment (Debye)
         X       2.2609      Y      -3.1810      Z       0.9157
       Tot       4.0086
    Quadrupole Moments (Debye-Ang)
        XX    -425.0522     XY      44.6630     YY    -429.9092
        XZ     -17.8772     YZ       7.5847     ZZ    -438.0349

 Total job time:  91.33s(wall), 1079.78s(cpu)
        *  Thank you very much for using Q-Chem.  Have a nice day.  *
