 Q-Chem 4.4, Q-Chem, Inc., Pleasanton, CA (2016)
 Q-Chem 4.4.2 for Intel X86 Linux

User input:
--------------------------------------------------------------
$comment
SP
$end

$rem
MEM_STATIC 5000
MEM_TOTAL 20000
JOBTYPE SP
EXCHANGE B3LYP
BASIS 6-31g(d,p)
$end

$molecule
0 1
C          -3.428000    -13.600000    -14.293000
C          -2.730000    -12.693000    -15.054000
N          -3.271000    -13.591000    -12.991000
C          -1.890000    -11.733000    -14.524000
C          -2.539000    -12.654000    -12.392000
C          -1.718000    -11.688000    -13.095000
C          -0.982000    -10.665000    -12.390000
C          -1.482000    -10.059000    -11.246000
C           0.292000    -10.232000    -12.728000
N          -0.964000     -9.151000    -10.444000
N           1.048000    -10.632000    -13.758000
C           1.003000     -9.431000    -11.748000
C           0.336000     -8.953000    -10.589000
S           2.491000     -9.921000    -13.501000
N           2.256000     -9.221000    -12.114000
C           0.860000     -8.168000     -9.436000
S          -0.035000     -7.059000     -8.443000
C           1.974000     -8.606000     -8.741000
C           1.185000     -7.051000     -7.146000
S           2.928000    -10.020000     -8.986000
C           2.153000     -7.997000     -7.500000
C           0.917000     -6.410000     -5.864000
C           3.844000     -9.615000     -7.424000
C           3.230000     -8.539000     -6.783000
N           1.961000     -6.017000     -5.166000
S          -0.600000     -6.283000     -5.115000
C           1.550000     -5.689000     -3.909000
C           0.199000     -5.719000     -3.724000
C          -4.332000    -14.700000    -14.875000
H          -2.764000    -12.761000    -16.138000
H          -1.326000    -11.064000    -15.167000
H          -2.457000    -12.675000    -11.306000
H          -2.503000    -10.352000    -11.007000
H           4.626000    -10.211000     -6.972000
H           3.471000     -8.258000     -5.764000
H           2.232000     -5.673000     -3.069000
H          -0.304000     -5.588000     -2.775000
H          -3.805000    -15.555000    -15.317000
C          -5.428000    -14.197000    -15.846000
H          -4.865000    -15.255000    -14.093000
H          -4.998000    -13.716000    -16.733000
H          -5.910000    -13.390000    -15.279000
C          -6.367000    -15.348000    -16.413000
H          -5.737000    -16.033000    -16.993000
C          -7.494000    -14.782000    -17.223000
H          -6.906000    -15.925000    -15.651000
H          -7.850000    -13.901000    -16.675000
H          -8.327000    -15.493000    -17.150000
C          -7.044000    -14.358000    -18.662000
H          -6.403000    -13.478000    -18.529000
C          -8.292000    -14.055000    -19.514000
H          -6.444000    -15.136000    -19.150000
H          -8.991000    -13.306000    -19.123000
H          -8.808000    -15.017000    -19.622000
H          -8.004000    -13.684000    -20.505000
C           0.658000    -10.480000     -4.436000
C          -0.685000    -10.095000     -4.117000
N           1.001000    -10.969000     -5.645000
C          -1.691000    -10.169000     -5.114000
C           0.047000    -10.916000     -6.582000
C          -1.288000    -10.649000     -6.388000
C          -2.330000    -10.847000     -7.443000
C          -2.466000    -12.121000     -8.029000
C          -3.231000     -9.881000     -7.897000
N          -3.374000    -12.474000     -8.978000
N          -3.114000     -8.626000     -7.524000
C          -4.156000    -10.196000     -8.887000
C          -4.219000    -11.493000     -9.439000
S          -4.269000     -7.864000     -8.485000
N          -4.869000     -9.116000     -9.272000
C          -5.218000    -11.852000    -10.425000
S          -6.030000    -10.693000    -11.477000
C          -5.578000    -13.184000    -10.750000
C          -6.866000    -11.967000    -12.251000
S          -5.155000    -14.793000    -10.088000
C          -6.545000    -13.216000    -11.727000
C          -7.937000    -11.742000    -13.184000
C          -6.364000    -15.511000    -11.215000
C          -7.020000    -14.529000    -11.940000
N          -8.504000    -12.701000    -13.890000
S          -8.693000    -10.162000    -13.095000
C          -9.628000    -12.188000    -14.460000
C          -9.922000    -10.920000    -14.170000
C           1.671000    -10.208000     -3.352000
H          -0.934000     -9.761000     -3.114000
H          -2.729000     -9.944000     -4.888000
H           0.403000    -11.029000     -7.605000
H          -1.815000    -12.927000     -7.694000
H          -6.610000    -16.563000    -11.167000
H          -7.899000    -14.804000    -12.511000
H         -10.327000    -12.875000    -14.918000
H         -10.839000    -10.386000    -14.379000
H           2.582000     -9.916000     -3.889000
C           1.749000    -11.347000     -2.360000
H           1.322000     -9.318000     -2.813000
H           1.923000    -12.327000     -2.822000
H           0.779000    -11.401000     -1.850000
C           2.840000    -11.047000     -1.434000
H           3.853000    -11.071000     -1.856000
C           2.916000    -12.155000     -0.362000
H           2.685000    -10.054000     -0.993000
H           3.146000    -13.092000     -0.885000
H           1.893000    -12.262000      0.019000
C           3.921000    -11.856000      0.777000
H           4.934000    -12.057000      0.407000
C           3.620000    -12.774000      1.925000
H           3.884000    -10.810000      1.105000
H           2.559000    -12.768000      2.204000
H           4.156000    -12.455000      2.828000
H           3.837000    -13.847000      1.848000
$end

--------------------------------------------------------------

             Standard Nuclear Orientation (Angstroms)
    I     Atom           X                Y                Z
 ----------------------------------------------------------------
    1      C       5.0744699457     1.3226218510     2.0338562804
    2      C       4.9931380170     2.5704281532     1.4634717175
    3      N       3.9925216267     0.5848676521     2.1048533014
    4      C       3.8354390735     3.0898883900     0.9175832503
    5      C       2.8531251131     0.9770234234     1.5386524218
    6      C       2.6388053385     2.2901087582     0.9630831925
    7      C       1.3938952159     2.6407124190     0.3208014321
    8      C       0.6648557304     1.7189143218    -0.4172783038
    9      C       0.7746212287     3.8783827090     0.4181717667
   10      N      -0.4928671676     1.8203300179    -1.0380717863
   11      N       1.2098385240     4.9644922940     1.0688543891
   12      C      -0.6045873191     3.9677056987    -0.0260434798
   13      C      -1.2113202159     2.8822061454    -0.7117693083
   14      S      -0.0347099515     6.0122912699     0.9849771076
   15      N      -1.1308461175     5.1444747396     0.2677784074
   16      C      -2.6057037467     2.7230379002    -1.2123390225
   17      S      -3.1184603881     1.7688273039    -2.5701010651
   18      C      -3.6801604765     2.9222580443    -0.3627985173
   19      C      -4.8305673770     1.7780907330    -2.0809417380
   20      S      -3.6879129273     3.3410970220     1.3087429301
   21      C      -4.8885539763     2.4132460713    -0.8357625339
   22      C      -5.8118229813     0.9386827533    -2.7582604833
   23      C      -5.5248486827     3.0793283104     1.3170599153
   24      C      -5.9299459753     2.5421267344     0.0951909983
   25      N      -7.0677079536     1.3272568545    -2.7003631249
   26      S      -5.5076575961    -0.5755292950    -3.4604458514
   27      C      -7.8615055729     0.3135689572    -3.1463184888
   28      C      -7.1875756646    -0.7615432997    -3.6465965252
   29      C       6.3469464504     0.7518375067     2.6826619348
   30      H       5.8523152297     3.2348528681     1.4979726633
   31      H       3.8079760150     4.0980192021     0.5150611437
   32      H       1.9874560965     0.3191529210     1.6048684001
   33      H       1.1709288785     0.7634656592    -0.5454142541
   34      H      -6.1752206563     3.1591629970     2.1782722693
   35      H      -6.9200314070     2.1266332652    -0.0548057183
   36      H      -8.9087116089     0.2470111806    -2.8819142896
   37      H      -7.6408914499    -1.6954607718    -3.9516767670
   38      H       6.5945128671     1.1620993555     3.6698367343
   39      C       7.6023734189     0.7642500709     1.7766734938
   40      H       6.2203554186    -0.2923999064     2.9944005044
   41      H       7.8895963731     1.7835621658     1.4911287025
   42      H       7.2460685935     0.2899760232     0.8529998507
   43      C       8.8979318896     0.1444239429     2.4588426957
   44      H       9.1433466434     0.7660593404     3.3282482577
   45      C      10.0331951012     0.0482183777     1.4849294914
   46      H       8.7959134438    -0.8973144692     2.7881864636
   47      H       9.5964299056    -0.3040555947     0.5424114744
   48      H      10.6639244714    -0.7881147817     1.8127500337
   49      C      10.7416182071     1.4255199655     1.2521763195
   50      H      10.0245270764     2.0418105353     0.6963559854
   51      C      12.0507938068     1.1959938642     0.4720519589
   52      H      10.9599923791     1.9391842168     2.1965754714
   53      H      11.9726442036     0.6679929500    -0.4858575745
   54      H      12.6961763974     0.6271577998     1.1526919838
   55      H      12.5307303354     2.1520192419     0.2305102322
   56      C      -5.6565875802    -1.3520990143     0.9022566747
   57      C      -5.1992238330    -2.3891080388     0.0252927724
   58      N      -4.8157639618    -0.4639110426     1.4702256611
   59      C      -3.8244108490    -2.4635788709    -0.3150957616
   60      C      -3.5511706969    -0.5044407177     1.0342724298
   61      C      -2.9725586960    -1.4883444589     0.2672707477
   62      C      -1.4993839291    -1.5859958487     0.0259963973
   63      C      -0.6358276107    -1.6669276750     1.1362614668
   64      C      -0.8748633746    -1.6408210567    -1.2222188380
   65      N       0.7183420489    -1.7848308748     1.0915695384
   66      N      -1.5607472568    -1.4395867171    -2.3253557473
   67      C       0.5103921912    -1.7328601253    -1.3090855592
   68      C       1.3107644302    -1.7915502186    -0.1485504447
   69      S      -0.3465464078    -1.4001034213    -3.4925521181
   70      N       0.9401934121    -1.6681882837    -2.5873979089
   71      C       2.7488386263    -1.9507213081    -0.2239505160
   72      S       3.7217617605    -1.4969261295    -1.6228141658
   73      C       3.5638262957    -2.3756547828     0.8552508743
   74      C       5.1453096348    -1.9450494348    -0.7899006331
   75      S       3.2379329476    -2.9771773065     2.5099466709
   76      C       4.8890611515    -2.4237428121     0.4918198377
   77      C       6.4309530184    -2.0203457261    -1.4299057571
   78      C       5.0035041462    -3.2950751901     2.6803382151
   79      C       5.6828019924    -2.9968151702     1.5099193171
   80      N       7.5587766979    -2.2334980631    -0.7801474719
   81      S       6.3945677459    -2.1507185097    -3.1784869103
   82      C       8.5246099135    -2.4996581535    -1.7008917393
   83      C       8.1433305011    -2.5281402115    -2.9784576993
   84      C      -7.1540921278    -1.2722845964     1.0644873396
   85      H      -5.8989384895    -3.1217995106    -0.3660237322
   86      H      -3.4360610032    -3.2726415452    -0.9264442598
   87      H      -2.9589031141     0.3801144766     1.2640880486
   88      H      -1.0636202849    -1.6631089640     2.1375810189
   89      H       5.3936002590    -3.8028254017     3.5518534160
   90      H       6.7127084634    -3.3187101163     1.4100028293
   91      H       9.4710892531    -2.8884981170    -1.3497303199
   92      H       8.7067275051    -2.8790835717    -3.8323596689
   93      H      -7.3686226502    -0.1995154157     1.1463221730
   94      C      -7.6489782107    -2.1948739218     2.1559935016
   95      H      -7.5906114456    -1.6111790344     0.1163188709
   96      H      -7.1424285114    -2.0547796417     3.1192696794
   97      H      -7.4420742611    -3.2224829675     1.8317614785
   98      C      -9.0808241518    -1.9491876024     2.3209554165
   99      H      -9.3592810787    -0.9715038692     2.7349907502
  100      C      -9.6433349988    -2.9164548079     3.3842520356
  101      H      -9.5862643422    -2.0585098949     1.3528986773
  102      H      -9.1354379617    -2.6848938517     4.3291425707
  103      H      -9.2930401031    -3.9122463426     3.0862055537
  104      C     -11.1848909567    -2.8703488532     3.5192574779
  105      H     -11.4556675249    -1.9778078002     4.0967698317
  106      C     -11.6305339362    -4.0961814825     4.2608542010
  107      H     -11.6892580841    -2.8079583798     2.5472542733
  108      H     -11.2103729603    -5.0192841988     3.8425909710
  109      H     -12.7188892716    -4.2184505164     4.1901509682
  110      H     -11.4164404900    -4.2043008542     5.3317515807
 ----------------------------------------------------------------

    9   -5663.5090398901      8.44E-06 Convergence criterion met
 Total energy in the final basis set = -5663.5090398901

                    Orbital Energies (a.u.)
 --------------------------------------------------------------

 Alpha MOs
 -- Occupied --
-88.986 -88.983 -88.929 -88.925 -88.924 -88.917 -88.906 -88.904
-14.387 -14.382 -14.377 -14.376 -14.348 -14.347 -14.344 -14.336
-14.327 -14.316 -10.269 -10.262 -10.261 -10.258 -10.256 -10.252
-10.250 -10.244 -10.240 -10.236 -10.236 -10.233 -10.232 -10.229
-10.227 -10.227 -10.226 -10.225 -10.225 -10.223 -10.222 -10.221
-10.220 -10.219 -10.217 -10.216 -10.214 -10.213 -10.210 -10.208
-10.206 -10.204 -10.203 -10.202 -10.197 -10.193 -10.192 -10.185
-10.182 -10.181 -10.179 -10.177 -10.175 -10.174 -10.173 -10.173
-10.171 -10.169 -10.169 -10.167  -8.042  -8.039  -7.989  -7.988
 -7.985  -7.976  -7.964  -7.964  -6.007  -6.004  -6.002  -6.000
 -5.998  -5.997  -5.953  -5.951  -5.950  -5.949  -5.948  -5.946
 -5.946  -5.945  -5.942  -5.940  -5.937  -5.933  -5.929  -5.929
 -5.925  -5.925  -5.920  -5.920  -1.050  -1.041  -0.976  -0.975
 -0.974  -0.948  -0.939  -0.936  -0.915  -0.915  -0.908  -0.906
 -0.844  -0.839  -0.831  -0.828  -0.820  -0.814  -0.808  -0.804
 -0.801  -0.797  -0.792  -0.791  -0.787  -0.778  -0.768  -0.763
 -0.752  -0.745  -0.737  -0.736  -0.728  -0.714  -0.710  -0.709
 -0.692  -0.692  -0.672  -0.671  -0.652  -0.649  -0.645  -0.643
 -0.634  -0.624  -0.623  -0.618  -0.608  -0.605  -0.595  -0.593
 -0.592  -0.588  -0.582  -0.582  -0.578  -0.576  -0.571  -0.558
 -0.549  -0.548  -0.543  -0.537  -0.524  -0.518  -0.514  -0.510
 -0.505  -0.501  -0.500  -0.499  -0.494  -0.482  -0.481  -0.478
 -0.472  -0.470  -0.469  -0.465  -0.463  -0.454  -0.448  -0.446
 -0.443  -0.441  -0.439  -0.436  -0.433  -0.432  -0.429  -0.429
 -0.427  -0.422  -0.421  -0.418  -0.414  -0.413  -0.411  -0.411
 -0.409  -0.406  -0.403  -0.400  -0.399  -0.397  -0.397  -0.394
 -0.390  -0.389  -0.387  -0.386  -0.384  -0.381  -0.380  -0.379
 -0.376  -0.374  -0.369  -0.368  -0.365  -0.361  -0.358  -0.354
 -0.352  -0.349  -0.347  -0.344  -0.341  -0.341  -0.339  -0.338
 -0.337  -0.336  -0.334  -0.332  -0.329  -0.325  -0.324  -0.322
 -0.320  -0.316  -0.314  -0.301  -0.298  -0.297  -0.296  -0.296
 -0.293  -0.291  -0.290  -0.290  -0.288  -0.283  -0.279  -0.279
 -0.276  -0.273  -0.264  -0.258  -0.253  -0.251  -0.246  -0.245
 -0.237  -0.234  -0.228  -0.226  -0.192  -0.191

          Ground-State Mulliken Net Atomic Charges

     Atom                 Charge (a.u.)
  ----------------------------------------
      1 C                     0.292679
      2 C                    -0.117201
      3 N                    -0.485843
      4 C                    -0.057918
      5 C                     0.069285
      6 C                     0.008075
      7 C                     0.064638
      8 C                     0.049435
      9 C                     0.219612
     10 N                    -0.500931
     11 N                    -0.558237
     12 C                     0.190160
     13 C                     0.257339
     14 S                     0.606245
     15 N                    -0.514486
     16 C                    -0.198655
     17 S                     0.310820
     18 C                    -0.131505
     19 C                    -0.222844
     20 S                     0.234635
     21 C                     0.174032
     22 C                     0.026697
     23 C                    -0.291530
     24 C                    -0.041871
     25 N                    -0.412355
     26 S                     0.304512
     27 C                     0.107985
     28 C                    -0.308188
     29 C                    -0.238956
     30 H                     0.083095
     31 H                     0.109466
     32 H                     0.121459
     33 H                     0.095151
     34 H                     0.127993
     35 H                     0.115893
     36 H                     0.110181
     37 H                     0.126922
     38 H                     0.100472
     39 C                    -0.191829
     40 H                     0.124733
     41 H                     0.088749
     42 H                     0.114061
     43 C                    -0.172707
     44 H                     0.087124
     45 C                    -0.180781
     46 H                     0.086943
     47 H                     0.107720
     48 H                     0.077978
     49 C                    -0.175098
     50 H                     0.097713
     51 C                    -0.315182
     52 H                     0.092418
     53 H                     0.101297
     54 H                     0.103302
     55 H                     0.092884
     56 C                     0.266170
     57 C                    -0.121630
     58 N                    -0.479798
     59 C                    -0.047912
     60 C                     0.064523
     61 C                     0.043477
     62 C                     0.017213
     63 C                     0.053731
     64 C                     0.260750
     65 N                    -0.522313
     66 N                    -0.564759
     67 C                     0.225213
     68 C                     0.275262
     69 S                     0.592716
     70 N                    -0.550105
     71 C                    -0.242434
     72 S                     0.339959
     73 C                    -0.089258
     74 C                    -0.224459
     75 S                     0.281720
     76 C                     0.179016
     77 C                     0.072172
     78 C                    -0.303162
     79 C                    -0.060224
     80 N                    -0.441046
     81 S                     0.248500
     82 C                     0.135573
     83 C                    -0.302080
     84 C                    -0.236137
     85 H                     0.082973
     86 H                     0.101081
     87 H                     0.110044
     88 H                     0.115160
     89 H                     0.130721
     90 H                     0.118670
     91 H                     0.113049
     92 H                     0.127357
     93 H                     0.113475
     94 C                    -0.164159
     95 H                     0.103007
     96 H                     0.108399
     97 H                     0.095124
     98 C                    -0.166741
     99 H                     0.095711
    100 C                    -0.178899
    101 H                     0.083002
    102 H                     0.094119
    103 H                     0.084186
    104 C                    -0.170932
    105 H                     0.096955
    106 C                    -0.319371
    107 H                     0.095773
    108 H                     0.099664
    109 H                     0.091912
    110 H                     0.103456
  ----------------------------------------
  Sum of atomic charges =     0.000000

                    Cartesian Multipole Moments
 -----------------------------------------------------------------
    Charge (ESU x 10^10)
                 0.0000
    Dipole Moment (Debye)
         X       0.2955      Y      -3.1861      Z      -1.7174
       Tot       3.6315
    Quadrupole Moments (Debye-Ang)
        XX    -399.9471     XY      13.7075     YY    -433.7272
        XZ      -9.1782     YZ      13.2311     ZZ    -437.1860

 Total job time:  103.35s(wall), 1245.62s(cpu)
        *  Thank you very much for using Q-Chem.  Have a nice day.  *
