 Q-Chem 4.4, Q-Chem, Inc., Pleasanton, CA (2016)
 Q-Chem 4.4.2 for Intel X86 Linux

User input:
--------------------------------------------------------------
$comment
SP
$end

$rem
MEM_STATIC 5000
MEM_TOTAL 20000
JOBTYPE SP
EXCHANGE B3LYP
BASIS 6-31g(d,p)
$end

$molecule
0 1
C          18.702000     11.962000     -6.790000
C          19.483000     12.778000     -7.627000
N          18.278000     10.765000     -7.145000
C          19.954000     12.218000     -8.837000
C          18.660000     10.226000     -8.328000
C          19.530000     10.911000     -9.220000
C          20.007000     10.188000    -10.427000
C          21.395000     10.063000    -10.767000
C          19.100000      9.411000    -11.327000
N          21.868000      9.360000    -11.838000
N          17.760000      9.351000    -11.149000
C          19.639000      8.734000    -12.402000
C          21.061000      8.665000    -12.583000
S          17.292000      8.615000    -12.561000
N          18.707000      8.230000    -13.196000
C          21.667000      7.953000    -13.771000
S          20.799000      7.167000    -15.032000
C          23.010000      7.689000    -13.970000
C          22.237000      6.480000    -15.738000
S          24.430000      8.437000    -13.121000
C          23.344000      6.916000    -15.038000
C          22.176000      5.720000    -16.897000
C          25.477000      7.637000    -14.301000
C          24.732000      6.789000    -15.198000
N          23.277000      5.644000    -17.571000
S          20.817000      4.766000    -17.547000
C          23.141000      4.887000    -18.716000
C          21.955000      4.269000    -18.875000
C          18.422000     12.428000     -5.357000
H          19.788000     13.757000     -7.270000
H          20.664000     12.730000     -9.480000
H          18.236000      9.284000     -8.670000
H          22.126000     10.521000    -10.101000
H          26.536000      7.858000    -14.301000
H          25.230000      6.192000    -15.953000
H          23.930000      4.893000    -19.456000
H          21.570000      3.611000    -19.643000
H          18.450000     13.512000     -5.197000
C          19.159000     11.684000     -4.261000
H          17.370000     12.171000     -5.177000
H          18.758000     10.664000     -4.211000
H          18.770000     11.988000     -3.282000
C          20.706000     11.756000     -4.275000
H          21.061000     12.674000     -4.759000
C          21.415000     10.492000     -5.023000
H          21.086000     11.762000     -3.246000
H          21.298000     10.606000     -6.108000
H          20.993000      9.523000     -4.731000
C          22.904000     10.395000     -4.769000
H          23.226000      9.645000     -5.502000
C          23.220000     10.006000     -3.315000
H          23.419000     11.328000     -5.032000
H          22.982000      8.935000     -3.305000
H          22.711000     10.584000     -2.533000
H          24.308000     10.090000     -3.198000
C          10.797000      1.155000     -8.930000
C           9.849000      1.855000     -9.637000
N          11.949000      1.657000     -8.503000
C          10.071000      3.199000     -9.963000
C          12.130000      2.951000     -8.805000
C          11.363000      3.696000     -9.626000
C          11.791000      5.067000    -10.059000
C          10.927000      6.089000    -10.039000
C          13.156000      5.511000    -10.221000
N          11.188000      7.407000    -10.053000
N          14.189000      4.638000    -10.264000
C          13.447000      6.850000    -10.252000
C          12.436000      7.824000    -10.206000
S          15.490000      5.642000    -10.270000
N          14.773000      7.108000    -10.410000
C          12.663000      9.265000    -10.202000
S          14.227000     10.018000    -10.659000
C          11.767000     10.297000     -9.869000
C          13.636000     11.636000    -10.394000
S          10.175000     10.172000     -9.256000
C          12.316000     11.563000    -10.024000
C          14.354000     12.860000    -10.560000
C          10.222000     11.890000     -9.256000
C          11.410000     12.479000     -9.632000
N          13.729000     13.961000    -10.915000
S          16.022000     13.000000    -10.005000
C          14.613000     15.045000    -10.725000
C          15.878000     14.724000    -10.206000
C          10.601000     -0.309000     -8.638000
H           8.946000      1.395000    -10.027000
H           9.311000      3.862000    -10.366000
H          13.092000      3.311000     -8.445000
H           9.870000      5.916000     -9.844000
H           9.399000     12.500000     -8.908000
H          11.549000     13.553000     -9.685000
H          14.286000     16.023000    -11.052000
H          16.792000     15.297000    -10.124000
H          10.642000     -0.377000     -7.544000
C          11.663000     -1.301000     -9.268000
H           9.604000     -0.632000     -8.963000
H          12.665000     -0.943000     -9.002000
H          11.603000     -1.193000    -10.358000
C          11.486000     -2.752000     -8.736000
H          10.506000     -3.060000     -9.119000
C          11.678000     -3.023000     -7.227000
H          12.165000     -3.361000     -9.345000
H          10.921000     -2.543000     -6.595000
H          12.666000     -2.587000     -7.035000
C          11.719000     -4.478000     -6.812000
H          11.666000     -4.601000     -5.723000
C          12.952000     -5.279000     -7.295000
H          10.803000     -4.954000     -7.185000
H          12.830000     -6.369000     -7.263000
H          13.805000     -5.022000     -6.654000
H          13.332000     -4.904000     -8.253000
$end

--------------------------------------------------------------

             Standard Nuclear Orientation (Angstroms)
    I     Atom           X                Y                Z
 ----------------------------------------------------------------
    1      C      -3.1431962009    -4.5300326447     2.6484082193
    2      C      -4.4250294263    -4.3795676211     2.0910484981
    3      N      -2.1939639663    -3.6233995545     2.5235699057
    4      C      -4.7444840329    -3.1329211466     1.5050772344
    5      C      -2.4506521332    -2.4429601694     1.9098859128
    6      C      -3.7370375002    -2.1294961400     1.3914826046
    7      C      -3.9643672803    -0.7603788669     0.8614391502
    8      C      -5.0434435573     0.0784273249     1.2970623372
    9      C      -3.0180165483    -0.0775376370    -0.0737218770
   10      N      -5.2473777581     1.3594411839     0.8699870104
   11      N      -1.9052379529    -0.6735062956    -0.5609889040
   12      C      -3.2892142909     1.2131302647    -0.4800507485
   13      C      -4.3900448070     1.9403906063     0.0846355098
   14      S      -1.4430751265     0.4273446480    -1.7138101051
   15      N      -2.4594086571     1.6263372101    -1.4254388331
   16      C      -4.7190520578     3.3439727179    -0.3705957338
   17      S      -3.8827143885     4.2393741431    -1.5789568514
   18      C      -5.6481761425     4.1939213284     0.2014722645
   19      C      -4.7556096360     5.7104050715    -1.2437391693
   20      S      -6.9858677800     3.7689885186     1.3533048002
   21      C      -5.7027470424     5.4688278918    -0.2690001276
   22      C      -4.5340961426     6.8622220721    -1.9845842067
   23      C      -7.6018920864     5.4140579625     1.1462550991
   24      C      -6.7381721188     6.2144273751     0.3143088143
   25      N      -5.4990921106     7.7230188854    -1.9765450414
   26      S      -3.0751911401     7.3610425678    -2.8802801967
   27      C      -5.2180903781     8.8346121024    -2.7433361122
   28      C      -3.9750060968     8.8950872758    -3.2580061259
   29      C      -2.8633162102    -5.7458957657     3.5385705987
   30      H      -5.1533744481    -5.1732071398     2.2273013644
   31      H      -5.7465372503    -2.8867207505     1.1660083411
   32      H      -1.6486196474    -1.7333987575     1.7165714167
   33      H      -5.7210317928    -0.3151842872     2.0544427449
   34      H      -8.5504152560     5.6815485780     1.5924328298
   35      H      -6.9493248241     7.2603221581     0.1246864582
   36      H      -6.0058977957     9.5415785877    -2.9663044096
   37      H      -3.4709839923     9.6328249730    -3.8685123161
   38      H      -3.4859814101    -6.6273147202     3.3466626114
   39      C      -2.7357598447    -5.4665795265     5.0230344117
   40      H      -1.8565151262    -6.0783708849     3.2540273290
   41      H      -1.8130394596    -4.8956719605     5.1853693807
   42      H      -2.3833168621    -6.3672394392     5.5395357821
   43      C      -3.9768618956    -4.8813320124     5.7411848462
   44      H      -4.9063373350    -5.1665979463     5.2335395425
   45      C      -3.9563511455    -3.2553867643     5.8667330810
   46      H      -4.0312225214    -5.2720262697     6.7647472134
   47      H      -4.1891388791    -2.8173765912     4.8880263020
   48      H      -2.9903553615    -2.8584165244     6.2007626814
   49      C      -4.9898105770    -2.7087392891     6.8280780459
   50      H      -4.9696162733    -1.6321350359     6.6183437564
   51      C      -4.6616687912    -3.0544834818     8.2902944873
   52      H      -5.9996106528    -3.0561410461     6.5741118550
   53      H      -3.8442837771    -2.3579371713     8.5149942338
   54      H      -4.4244490862    -4.1048998778     8.5025236243
   55      H      -5.5242613122    -2.7345039400     8.8886557790
   56      C       8.8284454777     1.4305709806     0.4099100752
   57      C       8.9816458093     0.8932795626    -0.8456378492
   58      N       7.7432269543     1.3017557808     1.1629999775
   59      C       7.9411866464     0.1527893071    -1.4209768031
   60      C       6.7695757578     0.5692003874     0.6028509410
   61      C       6.7294999204     0.1322114090    -0.6718213934
   62      C       5.4887058457    -0.4880242043    -1.2428308926
   63      C       5.5587922553    -1.6137134587    -1.9634497917
   64      C       4.1341002917    -0.1767339462    -0.8494517264
   65      N       4.5771383042    -2.4830293808    -2.2568545429
   66      N       3.8401969619     0.9188980840    -0.1116995409
   67      C       3.1128790244    -1.0405241713    -1.1486783466
   68      C       3.3309731806    -2.2040994802    -1.9046151426
   69      S       2.2418553684     0.7042216822     0.2043244980
   70      N       1.8989593666    -0.6085031886    -0.7132923858
   71      C       2.3073565322    -3.1885255993    -2.2379920662
   72      S       0.5472868115    -2.8713056068    -2.0847600377
   73      C       2.4701317704    -4.4994101697    -2.7215361333
   74      C       0.1130227182    -4.4590538956    -2.6573856297
   75      S       3.9185769163    -5.3786276985    -2.9557181065
   76      C       1.2633120953    -5.1381709976    -2.9740294530
   77      C      -1.2022292764    -4.9916974541    -2.8236956724
   78      C       2.8698713722    -6.6410826472    -3.4657741666
   79      C       1.5160927923    -6.3976413548    -3.3782476348
   80      N      -1.4518567093    -5.8814557269    -3.7590391177
   81      S      -2.4426388299    -4.7071310072    -1.6029356317
   82      C      -2.7288761811    -6.4291781157    -3.5103757841
   83      C      -3.3947217365    -5.9462947956    -2.3719117331
   84      C       9.9115057603     2.2890849050     1.0073297484
   85      H       9.8584420876     1.0729559248    -1.4604985581
   86      H       8.0426540115    -0.4400805163    -2.3252929792
   87      H       5.8990396004     0.5039960275     1.2528964702
   88      H       6.5234964472    -2.0187862579    -2.2642235430
   89      H       3.2284562510    -7.6152391708    -3.7706822710
   90      H       0.7632912015    -7.1142220147    -3.6871293644
   91      H      -3.1296801679    -7.1202435223    -4.2398459809
   92      H      -4.4192821367    -6.0437391677    -2.0384007427
   93      H      10.1780354620     1.7809948057     1.9421812708
   94      C       9.5268107898     3.7941549396     1.3164930883
   95      H      10.7955415823     2.2939838130     0.3573915467
   96      H       8.6043649592     3.7962272039     1.9098002561
   97      H       9.2523349372     4.2625431153     0.3632672372
   98      C      10.6441592288     4.5244629191     2.1152024980
   99      H      11.4925342396     4.5556263257     1.4214866462
  100      C      11.0115584131     4.0111283659     3.5254831352
  101      H      10.3346688574     5.5763956120     2.1365641391
  102      H      11.4627641445     3.0114853451     3.5250151992
  103      H      10.0365053510     3.9882278282     4.0273308128
  104      C      11.9352077029     4.8949775586     4.3358001066
  105      H      12.3056021880     4.3921710389     5.2379378617
  106      C      11.3405135569     6.2500368408     4.7889360843
  107      H      12.8354889448     5.0723387795     3.7334732162
  108      H      12.0846526016     6.9965424326     5.0938860531
  109      H      10.6812026054     6.0693346837     5.6475365732
  110      H      10.5998567394     6.6294339397     4.0746012047
 ----------------------------------------------------------------

   10   -5663.5207698778      7.02E-06 Convergence criterion met
 Total energy in the final basis set = -5663.5207698778

                    Orbital Energies (a.u.)
 --------------------------------------------------------------

 Alpha MOs
 -- Occupied --
-88.988 -88.987 -88.922 -88.921 -88.921 -88.921 -88.913 -88.906
-14.391 -14.390 -14.387 -14.387 -14.352 -14.345 -14.344 -14.336
-14.330 -14.325 -10.268 -10.265 -10.263 -10.261 -10.259 -10.256
-10.256 -10.253 -10.246 -10.240 -10.239 -10.235 -10.234 -10.233
-10.232 -10.232 -10.232 -10.231 -10.231 -10.228 -10.227 -10.227
-10.226 -10.225 -10.220 -10.220 -10.220 -10.218 -10.215 -10.214
-10.213 -10.211 -10.205 -10.203 -10.197 -10.196 -10.195 -10.184
-10.182 -10.181 -10.180 -10.179 -10.179 -10.178 -10.177 -10.176
-10.173 -10.172 -10.170 -10.170  -8.044  -8.043  -7.983  -7.982
 -7.981  -7.980  -7.974  -7.965  -6.009  -6.008  -6.003  -6.002
 -6.001  -6.001  -5.947  -5.946  -5.945  -5.944  -5.943  -5.942
 -5.942  -5.940  -5.940  -5.939  -5.938  -5.938  -5.937  -5.935
 -5.930  -5.929  -5.926  -5.921  -1.050  -1.041  -0.973  -0.967
 -0.965  -0.962  -0.948  -0.943  -0.920  -0.918  -0.911  -0.907
 -0.851  -0.840  -0.838  -0.830  -0.809  -0.808  -0.804  -0.801
 -0.801  -0.799  -0.799  -0.789  -0.785  -0.783  -0.769  -0.768
 -0.751  -0.750  -0.746  -0.740  -0.721  -0.719  -0.708  -0.703
 -0.693  -0.691  -0.675  -0.672  -0.661  -0.657  -0.647  -0.646
 -0.640  -0.639  -0.633  -0.627  -0.618  -0.611  -0.598  -0.597
 -0.591  -0.589  -0.584  -0.584  -0.579  -0.575  -0.556  -0.556
 -0.555  -0.552  -0.544  -0.543  -0.524  -0.522  -0.514  -0.512
 -0.511  -0.509  -0.500  -0.499  -0.487  -0.486  -0.480  -0.475
 -0.474  -0.474  -0.469  -0.468  -0.460  -0.452  -0.449  -0.448
 -0.446  -0.442  -0.440  -0.438  -0.434  -0.434  -0.430  -0.429
 -0.428  -0.424  -0.423  -0.421  -0.420  -0.419  -0.417  -0.413
 -0.413  -0.411  -0.408  -0.405  -0.400  -0.398  -0.397  -0.396
 -0.395  -0.394  -0.391  -0.389  -0.389  -0.386  -0.386  -0.381
 -0.378  -0.371  -0.369  -0.369  -0.367  -0.364  -0.360  -0.357
 -0.353  -0.352  -0.350  -0.348  -0.344  -0.343  -0.340  -0.339
 -0.337  -0.335  -0.335  -0.331  -0.329  -0.327  -0.319  -0.318
 -0.317  -0.316  -0.311  -0.309  -0.304  -0.303  -0.300  -0.298
 -0.295  -0.290  -0.290  -0.288  -0.286  -0.285  -0.284  -0.277
 -0.276  -0.276  -0.271  -0.271  -0.256  -0.256  -0.255  -0.249
 -0.244  -0.244  -0.231  -0.230  -0.193  -0.192

          Ground-State Mulliken Net Atomic Charges

     Atom                 Charge (a.u.)
  ----------------------------------------
      1 C                     0.303612
      2 C                    -0.119308
      3 N                    -0.488615
      4 C                    -0.089068
      5 C                     0.093237
      6 C                     0.034327
      7 C                     0.003199
      8 C                     0.054722
      9 C                     0.212417
     10 N                    -0.514272
     11 N                    -0.556507
     12 C                     0.214182
     13 C                     0.340421
     14 S                     0.614383
     15 N                    -0.548670
     16 C                    -0.223548
     17 S                     0.327823
     18 C                    -0.152135
     19 C                    -0.261004
     20 S                     0.274308
     21 C                     0.238869
     22 C                     0.072915
     23 C                    -0.312146
     24 C                    -0.076943
     25 N                    -0.441609
     26 S                     0.232698
     27 C                     0.138273
     28 C                    -0.304264
     29 C                    -0.232412
     30 H                     0.093530
     31 H                     0.100118
     32 H                     0.123470
     33 H                     0.115217
     34 H                     0.132951
     35 H                     0.118777
     36 H                     0.115058
     37 H                     0.135458
     38 H                     0.093124
     39 C                    -0.177024
     40 H                     0.116852
     41 H                     0.113258
     42 H                     0.089427
     43 C                    -0.183100
     44 H                     0.088044
     45 C                    -0.167958
     46 H                     0.091261
     47 H                     0.091879
     48 H                     0.091336
     49 C                    -0.184174
     50 H                     0.091176
     51 C                    -0.310956
     52 H                     0.084566
     53 H                     0.104955
     54 H                     0.107315
     55 H                     0.099019
     56 C                     0.274069
     57 C                    -0.120839
     58 N                    -0.474405
     59 C                    -0.077378
     60 C                     0.068227
     61 C                     0.052890
     62 C                     0.076841
     63 C                     0.041388
     64 C                     0.192300
     65 N                    -0.542923
     66 N                    -0.537273
     67 C                     0.212518
     68 C                     0.327872
     69 S                     0.598291
     70 N                    -0.564741
     71 C                    -0.248423
     72 S                     0.338302
     73 C                    -0.107507
     74 C                    -0.235525
     75 S                     0.300506
     76 C                     0.203644
     77 C                     0.044441
     78 C                    -0.304414
     79 C                    -0.083938
     80 N                    -0.423827
     81 S                     0.287579
     82 C                     0.099542
     83 C                    -0.308433
     84 C                    -0.220839
     85 H                     0.091785
     86 H                     0.106329
     87 H                     0.104602
     88 H                     0.097523
     89 H                     0.113928
     90 H                     0.118653
     91 H                     0.112986
     92 H                     0.137626
     93 H                     0.119276
     94 C                    -0.184284
     95 H                     0.084063
     96 H                     0.115217
     97 H                     0.090904
     98 C                    -0.180047
     99 H                     0.085160
    100 C                    -0.168446
    101 H                     0.092868
    102 H                     0.094764
    103 H                     0.096030
    104 C                    -0.173790
    105 H                     0.093189
    106 C                    -0.325644
    107 H                     0.090919
    108 H                     0.103791
    109 H                     0.101260
    110 H                     0.104928
  ----------------------------------------
  Sum of atomic charges =     0.000000

                    Cartesian Multipole Moments
 -----------------------------------------------------------------
    Charge (ESU x 10^10)
                 0.0000
    Dipole Moment (Debye)
         X      -1.3245      Y      -0.4883      Z      -0.9459
       Tot       1.6993
    Quadrupole Moments (Debye-Ang)
        XX    -411.2476     XY      11.7221     YY    -407.2462
        XZ     -11.4536     YZ     -13.5767     ZZ    -447.8430

 Total job time:  92.64s(wall), 1098.65s(cpu)
        *  Thank you very much for using Q-Chem.  Have a nice day.  *
