 Q-Chem 4.4, Q-Chem, Inc., Pleasanton, CA (2016)
 Q-Chem 4.4.2 for Intel X86 Linux

User input:
--------------------------------------------------------------
$comment
SP
$end

$rem
MEM_STATIC 5000
MEM_TOTAL 20000
JOBTYPE SP
EXCHANGE B3LYP
BASIS 6-31g(d,p)
$end

$molecule
0 1
C           0.658000    -10.480000     -4.436000
C          -0.685000    -10.095000     -4.117000
N           1.001000    -10.969000     -5.645000
C          -1.691000    -10.169000     -5.114000
C           0.047000    -10.916000     -6.582000
C          -1.288000    -10.649000     -6.388000
C          -2.330000    -10.847000     -7.443000
C          -2.466000    -12.121000     -8.029000
C          -3.231000     -9.881000     -7.897000
N          -3.374000    -12.474000     -8.978000
N          -3.114000     -8.626000     -7.524000
C          -4.156000    -10.196000     -8.887000
C          -4.219000    -11.493000     -9.439000
S          -4.269000     -7.864000     -8.485000
N          -4.869000     -9.116000     -9.272000
C          -5.218000    -11.852000    -10.425000
S          -6.030000    -10.693000    -11.477000
C          -5.578000    -13.184000    -10.750000
C          -6.866000    -11.967000    -12.251000
S          -5.155000    -14.793000    -10.088000
C          -6.545000    -13.216000    -11.727000
C          -7.937000    -11.742000    -13.184000
C          -6.364000    -15.511000    -11.215000
C          -7.020000    -14.529000    -11.940000
N          -8.504000    -12.701000    -13.890000
S          -8.693000    -10.162000    -13.095000
C          -9.628000    -12.188000    -14.460000
C          -9.922000    -10.920000    -14.170000
C           1.671000    -10.208000     -3.352000
H          -0.934000     -9.761000     -3.114000
H          -2.729000     -9.944000     -4.888000
H           0.403000    -11.029000     -7.605000
H          -1.815000    -12.927000     -7.694000
H          -6.610000    -16.563000    -11.167000
H          -7.899000    -14.804000    -12.511000
H         -10.327000    -12.875000    -14.918000
H         -10.839000    -10.386000    -14.379000
H           2.582000     -9.916000     -3.889000
C           1.749000    -11.347000     -2.360000
H           1.322000     -9.318000     -2.813000
H           1.923000    -12.327000     -2.822000
H           0.779000    -11.401000     -1.850000
C           2.840000    -11.047000     -1.434000
H           3.853000    -11.071000     -1.856000
C           2.916000    -12.155000     -0.362000
H           2.685000    -10.054000     -0.993000
H           3.146000    -13.092000     -0.885000
H           1.893000    -12.262000      0.019000
C           3.921000    -11.856000      0.777000
H           4.934000    -12.057000      0.407000
C           3.620000    -12.774000      1.925000
H           3.884000    -10.810000      1.105000
H           2.559000    -12.768000      2.204000
H           4.156000    -12.455000      2.828000
H           3.837000    -13.847000      1.848000
C           6.244000    -14.591000    -17.982000
C           6.727000    -13.534000    -17.212000
N           5.097000    -15.270000    -17.651000
C           6.130000    -13.274000    -15.925000
C           4.477000    -14.993000    -16.493000
C           4.980000    -14.021000    -15.570000
C           4.429000    -13.975000    -14.218000
C           5.409000    -13.968000    -13.144000
C           3.041000    -13.959000    -13.903000
N           4.962000    -13.928000    -11.861000
N           2.100000    -14.171000    -14.798000
C           2.626000    -14.011000    -12.557000
C           3.623000    -14.061000    -11.544000
S           0.679000    -14.040000    -13.962000
N           1.270000    -14.067000    -12.397000
C           3.276000    -14.137000    -10.078000
S           1.634000    -14.416000     -9.497000
C           4.176000    -13.978000     -9.006000
C           2.231000    -14.334000     -7.822000
S           5.844000    -13.713000     -8.972000
C           3.539000    -13.938000     -7.749000
C           1.530000    -14.545000     -6.582000
C           5.742000    -13.307000     -7.207000
C           4.442000    -13.553000     -6.701000
N           0.233000    -14.638000     -6.825000
S           1.983000    -14.944000     -4.958000
C          -0.487000    -14.820000     -5.709000
C           0.309000    -15.065000     -4.607000
C           6.967000    -14.951000    -19.212000
H           7.657000    -13.030000    -17.458000
H           6.528000    -12.587000    -15.185000
H           3.744000    -15.716000    -16.138000
H           6.483000    -14.056000    -13.304000
H           6.655000    -13.050000     -6.687000
H           4.143000    -13.393000     -5.671000
H          -1.554000    -14.992000     -5.748000
H          -0.161000    -15.422000     -3.700000
H           7.514000    -14.045000    -19.503000
C           6.165000    -15.287000    -20.428000
H           7.770000    -15.663000    -18.986000
H           5.362000    -14.572000    -20.645000
H           5.605000    -16.231000    -20.423000
C           7.140000    -15.358000    -21.635000
H           7.812000    -14.490000    -21.637000
C           6.554000    -15.292000    -23.000000
H           7.817000    -16.207000    -21.476000
H           5.965000    -14.423000    -23.317000
H           5.787000    -16.072000    -22.917000
C           7.653000    -15.367000    -24.021000
H           8.363000    -14.537000    -23.923000
C           7.018000    -15.370000    -25.426000
H           8.264000    -16.247000    -23.785000
H           7.836000    -15.262000    -26.149000
H           6.409000    -14.494000    -25.679000
H           6.360000    -16.198000    -25.717000
$end

--------------------------------------------------------------

             Standard Nuclear Orientation (Angstroms)
    I     Atom           X                Y                Z
 ----------------------------------------------------------------
    1      C       5.5965326483    -3.0438780029    -1.6591919561
    2      C       6.5676425541    -1.9918862579    -1.7215932317
    3      N       4.2934040612    -2.8092409916    -1.4037465442
    4      C       6.1520724820    -0.6443815359    -1.5697593113
    5      C       3.9320182216    -1.5209670427    -1.3783593891
    6      C       4.7670935398    -0.4289192300    -1.3432768075
    7      C       4.2923471092     0.9633526134    -1.0709021743
    8      C       3.5856418200     1.2161256743     0.1214238775
    9      C       4.5123067861     2.0782249857    -1.8831523415
   10      N       3.1091065924     2.4224999522     0.5303850963
   11      N       5.0397025545     1.9434432703    -3.0796182176
   12      C       4.0159624519     3.3237750862    -1.5127508715
   13      C       3.3004202321     3.4941032727    -0.3086455436
   14      S       4.8958957348     3.5010508824    -3.7052124355
   15      N       4.2328235165     4.2558273253    -2.4652443897
   16      C       2.8324084684     4.7965332532     0.1199791582
   17      S       2.5344338736     6.1486041753    -0.9720118502
   18      C       2.4420955880     5.1090763417     1.4464110913
   19      C       1.9863165926     7.0986366417     0.3387336472
   20      S       2.4886571347     4.2304768461     3.0058818185
   21      C       2.0345797935     6.4180519266     1.5520320892
   22      C       1.7175051038     8.5065035833     0.2212344641
   23      C       1.9211065978     5.7409136024     3.8082540471
   24      C       1.7977413816     6.7777595223     2.8972015998
   25      N       1.1696966993     9.2278590365     1.1799618822
   26      S       2.4668476324     9.3038255499    -1.1493932959
   27      C       1.2983161889    10.5387020276     0.8385051800
   28      C       1.9451737539    10.8015026254    -0.2976599209
   29      C       6.1248992244    -4.4164514412    -1.9939753453
   30      H       7.6176496613    -2.2257729270    -1.8710860438
   31      H       6.8699181229     0.1701454934    -1.5500526036
   32      H       2.8611916489    -1.3438118905    -1.4676930514
   33      H       3.4104735959     0.3944405032     0.8141082017
   34      H       1.8586171129     5.8061251062     4.8859212147
   35      H       1.6507081904     7.7840526055     3.2714508100
   36      H       1.0814767144    11.2855356476     1.5905385479
   37      H       2.2952053418    11.7598099680    -0.6566180306
   38      H       5.3030461030    -4.9084881099    -2.5287756477
   39      C       6.7118177199    -5.1018591270    -0.7802159030
   40      H       6.9343047761    -4.2720446855    -2.7209081770
   41      H       6.0306908163    -5.1430058313     0.0791403037
   42      H       7.5864482532    -4.5175105868    -0.4680072967
   43      C       7.0736077643    -6.4616176704    -1.1776094953
   44      H       6.2392411344    -7.1352647645    -1.4118335753
   45      C       7.7369816455    -7.1806184099     0.0163741857
   46      H       7.7305471635    -6.4251412178    -2.0560485052
   47      H       6.9863040511    -7.2354128816     0.8150472822
   48      H       8.5134972235    -6.4938105037     0.3747838076
   49      C       8.3221223657    -8.5698833855    -0.3361880998
   50      H       7.4962226207    -9.2897737447    -0.3920225156
   51      C       9.2632755854    -8.9772972651     0.7590166973
   52      H       8.8381861162    -8.5741767067    -1.3040355944
   53      H       9.9923462593    -8.1945611298     1.0026929067
   54      H       9.8636780322    -9.8434132915     0.4527065102
   55      H       8.8760362179    -9.2542439730     1.7478003912
   56      C      -9.5216603508    -1.7613806840    -0.4788216461
   57      C      -8.8598044206    -2.4296726461    -1.5077874283
   58      N      -8.8493741605    -1.0104736544     0.4541204266
   59      C      -7.4199438067    -2.5096010702    -1.4796652013
   60      C      -7.5069623399    -1.0056321055     0.4543718015
   61      C      -6.7395517345    -1.7758244277    -0.4770823034
   62      C      -5.3087133399    -1.9525003052    -0.2423311099
   63      C      -4.8284701356    -3.3229447609    -0.3142578680
   64      C      -4.3964707813    -0.9032031019     0.0623226170
   65      N      -3.5062137177    -3.5566867531    -0.1033061047
   66      N      -4.7821332904     0.3220603182     0.3477065348
   67      C      -3.0533992270    -1.2061970696     0.3639821198
   68      C      -2.6454276330    -2.5683559631     0.3364080818
   69      S      -3.3807201612     1.1596040603     0.6120164313
   70      N      -2.3046501591    -0.1175571027     0.7128515161
   71      C      -1.2347706000    -2.9914952061     0.6625076311
   72      S      -0.0368988557    -1.8868974701     1.3381799822
   73      C      -0.6882330146    -4.2737974972     0.4588841993
   74      C       1.1539636570    -3.2099809036     1.3455761854
   75      S      -1.3693344212    -5.7022374143    -0.1321024988
   76      C       0.6987024349    -4.3304799464     0.7050856588
   77      C       2.5038302272    -3.2326483972     1.8464438597
   78      C       0.2867264160    -6.4261340773    -0.2867023849
   79      C       1.2696980946    -5.5769923755     0.2783436746
   80      N       2.8695530526    -2.0030408926     2.1692738456
   81      S       3.6175281195    -4.4630943220     2.3439032357
   82      C       4.1269310577    -1.9454186029     2.6304248230
   83      C       4.6638391447    -3.2000699889     2.8440239938
   84      C     -10.9906583097    -1.8300547619    -0.4282462776
   85      H      -9.3951503908    -3.0549176512    -2.2162402325
   86      H      -6.8212868284    -3.1334273751    -2.1357319384
   87      H      -7.0129004526    -0.6298129766     1.3491934787
   88      H      -5.4775452191    -4.1846020889    -0.4661400097
   89      H       0.3703716957    -7.4391173830    -0.6566838568
   90      H       2.3301162156    -5.8013249422     0.3113483418
   91      H       4.5472012136    -1.0235492382     3.0087419790
   92      H       5.5898238509    -3.2775698928     3.3985905711
   93      H     -11.3063670031    -2.0545208273    -1.4552170690
   94      C     -11.7430960168    -0.5832741090    -0.0904127378
   95      H     -11.3103902936    -2.7190339989     0.1288141990
   96      H     -11.4149664830     0.3016736649    -0.6492700062
   97      H     -11.6764632802    -0.2126784466     0.9405964443
   98      C     -13.2482421120    -0.8470584205    -0.3687436005
   99      H     -13.3793194945    -1.3249947760    -1.3482371226
  100      C     -14.1456955069     0.3329212544    -0.4836451704
  101      H     -13.5963262928    -1.6105513047     0.3385943800
  102      H     -13.9704236348     1.0996321669    -1.2478474653
  103      H     -13.8828918095     0.8639732052     0.4396619519
  104      C     -15.5477733196    -0.1292602566    -0.7601104631
  105      H     -15.6176769454    -0.6932928827    -1.6979722225
  106      C     -16.4715459651     1.1044581206    -0.8030297510
  107      H     -15.8054168565    -0.8768330163     0.0002656128
  108      H     -17.4494339589     0.7617947807    -1.1633544755
  109      H     -16.2303383590     1.8581122796    -1.5620358770
  110      H     -16.5919040041     1.7177862326     0.0983977666
 ----------------------------------------------------------------

   10   -5663.4971075145      4.84E-06 Convergence criterion met
 Total energy in the final basis set = -5663.4971075145

                    Orbital Energies (a.u.)
 --------------------------------------------------------------

 Alpha MOs
 -- Occupied --
-88.984 -88.979 -88.935 -88.930 -88.923 -88.921 -88.909 -88.906
-14.388 -14.386 -14.378 -14.377 -14.345 -14.344 -14.342 -14.332
-14.328 -14.324 -10.268 -10.261 -10.260 -10.257 -10.251 -10.251
-10.249 -10.245 -10.241 -10.240 -10.236 -10.236 -10.232 -10.231
-10.231 -10.229 -10.227 -10.226 -10.224 -10.224 -10.224 -10.223
-10.222 -10.222 -10.221 -10.217 -10.216 -10.212 -10.210 -10.210
-10.208 -10.205 -10.205 -10.205 -10.201 -10.197 -10.196 -10.194
-10.183 -10.182 -10.180 -10.179 -10.177 -10.177 -10.174 -10.171
-10.171 -10.169 -10.167 -10.165  -8.040  -8.034  -7.996  -7.990
 -7.984  -7.978  -7.968  -7.966  -6.005  -6.000  -5.999  -5.998
 -5.994  -5.992  -5.960  -5.956  -5.954  -5.953  -5.950  -5.948
 -5.947  -5.945  -5.943  -5.941  -5.939  -5.935  -5.932  -5.931
 -5.929  -5.927  -5.924  -5.923  -1.043  -1.027  -0.975  -0.974
 -0.945  -0.937  -0.936  -0.925  -0.916  -0.909  -0.905  -0.899
 -0.846  -0.836  -0.828  -0.823  -0.821  -0.811  -0.811  -0.807
 -0.800  -0.800  -0.791  -0.789  -0.788  -0.787  -0.767  -0.761
 -0.752  -0.745  -0.739  -0.735  -0.729  -0.718  -0.711  -0.707
 -0.693  -0.686  -0.671  -0.669  -0.653  -0.652  -0.643  -0.636
 -0.633  -0.629  -0.623  -0.617  -0.606  -0.605  -0.596  -0.595
 -0.591  -0.591  -0.583  -0.579  -0.579  -0.577  -0.576  -0.569
 -0.549  -0.536  -0.534  -0.532  -0.518  -0.517  -0.513  -0.510
 -0.500  -0.499  -0.499  -0.494  -0.494  -0.481  -0.477  -0.473
 -0.472  -0.470  -0.470  -0.466  -0.463  -0.456  -0.447  -0.446
 -0.444  -0.442  -0.439  -0.437  -0.436  -0.434  -0.432  -0.430
 -0.427  -0.427  -0.421  -0.420  -0.415  -0.413  -0.411  -0.410
 -0.410  -0.408  -0.404  -0.402  -0.400  -0.398  -0.397  -0.393
 -0.391  -0.390  -0.386  -0.385  -0.384  -0.380  -0.378  -0.376
 -0.375  -0.372  -0.370  -0.368  -0.368  -0.366  -0.358  -0.354
 -0.352  -0.351  -0.350  -0.347  -0.346  -0.342  -0.342  -0.339
 -0.339  -0.336  -0.334  -0.332  -0.332  -0.330  -0.326  -0.324
 -0.319  -0.317  -0.310  -0.308  -0.299  -0.297  -0.296  -0.292
 -0.291  -0.289  -0.289  -0.288  -0.283  -0.282  -0.277  -0.276
 -0.270  -0.264  -0.259  -0.258  -0.253  -0.250  -0.249  -0.246
 -0.241  -0.237  -0.231  -0.225  -0.192  -0.184

          Ground-State Mulliken Net Atomic Charges

     Atom                 Charge (a.u.)
  ----------------------------------------
      1 C                     0.265919
      2 C                    -0.125832
      3 N                    -0.483678
      4 C                    -0.047678
      5 C                     0.071115
      6 C                     0.039243
      7 C                    -0.001521
      8 C                     0.053679
      9 C                     0.240227
     10 N                    -0.527282
     11 N                    -0.562324
     12 C                     0.210540
     13 C                     0.307179
     14 S                     0.583571
     15 N                    -0.546387
     16 C                    -0.242341
     17 S                     0.345323
     18 C                    -0.113095
     19 C                    -0.224386
     20 S                     0.274833
     21 C                     0.169619
     22 C                     0.073257
     23 C                    -0.311048
     24 C                    -0.054845
     25 N                    -0.438746
     26 S                     0.245051
     27 C                     0.134886
     28 C                    -0.301229
     29 C                    -0.233023
     30 H                     0.084492
     31 H                     0.101134
     32 H                     0.108990
     33 H                     0.136414
     34 H                     0.132633
     35 H                     0.121131
     36 H                     0.112027
     37 H                     0.126869
     38 H                     0.115385
     39 C                    -0.168906
     40 H                     0.104244
     41 H                     0.110199
     42 H                     0.094578
     43 C                    -0.167046
     44 H                     0.094975
     45 C                    -0.178076
     46 H                     0.086449
     47 H                     0.089955
     48 H                     0.083619
     49 C                    -0.170212
     50 H                     0.096345
     51 C                    -0.319396
     52 H                     0.097465
     53 H                     0.099563
     54 H                     0.092690
     55 H                     0.102359
     56 C                     0.283081
     57 C                    -0.129022
     58 N                    -0.491331
     59 C                    -0.088488
     60 C                     0.102979
     61 C                     0.035427
     62 C                    -0.035057
     63 C                     0.074735
     64 C                     0.245851
     65 N                    -0.533118
     66 N                    -0.538130
     67 C                     0.216347
     68 C                     0.309327
     69 S                     0.594937
     70 N                    -0.567471
     71 C                    -0.227172
     72 S                     0.376330
     73 C                    -0.112751
     74 C                    -0.219136
     75 S                     0.281400
     76 C                     0.136474
     77 C                     0.064138
     78 C                    -0.319205
     79 C                    -0.072077
     80 N                    -0.430325
     81 S                     0.291914
     82 C                     0.125756
     83 C                    -0.316686
     84 C                    -0.230197
     85 H                     0.088985
     86 H                     0.101175
     87 H                     0.113699
     88 H                     0.125845
     89 H                     0.131714
     90 H                     0.118786
     91 H                     0.118152
     92 H                     0.128973
     93 H                     0.106397
     94 C                    -0.173170
     95 H                     0.117883
     96 H                     0.098832
     97 H                     0.110126
     98 C                    -0.185479
     99 H                     0.078047
    100 C                    -0.157553
    101 H                     0.090692
    102 H                     0.089276
    103 H                     0.088113
    104 C                    -0.172634
    105 H                     0.097177
    106 C                    -0.327686
    107 H                     0.093598
    108 H                     0.092470
    109 H                     0.100734
    110 H                     0.108408
  ----------------------------------------
  Sum of atomic charges =     0.000000

                    Cartesian Multipole Moments
 -----------------------------------------------------------------
    Charge (ESU x 10^10)
                 0.0000
    Dipole Moment (Debye)
         X       4.7127      Y      -0.2848      Z      -1.2056
       Tot       4.8728
    Quadrupole Moments (Debye-Ang)
        XX    -412.0395     XY       7.6990     YY    -390.6439
        XZ      15.0294     YZ       1.8662     ZZ    -434.9275

 Total job time:  97.08s(wall), 1091.76s(cpu)
        *  Thank you very much for using Q-Chem.  Have a nice day.  *
