 Q-Chem 4.4, Q-Chem, Inc., Pleasanton, CA (2016)
 Q-Chem 4.4.2 for Intel X86 Linux

User input:
--------------------------------------------------------------
$comment
SP
$end

$rem
MEM_STATIC 5000
MEM_TOTAL 20000
JOBTYPE SP
EXCHANGE B3LYP
BASIS 6-31g(d,p)
$end

$molecule
0 1
C          16.387000     15.929000    -13.363000
C          16.984000     14.700000    -13.412000
N          16.950000     16.942000    -12.682000
C          18.176000     14.504000    -12.769000
C          18.111000     16.768000    -11.985000
C          18.867000     15.520000    -12.033000
C          20.054000     15.304000    -11.182000
C          20.096000     15.822000     -9.887000
C          21.143000     14.478000    -11.540000
N          21.065000     15.615000     -9.018000
N          21.227000     13.899000    -12.702000
C          22.241000     14.336000    -10.655000
C          22.153000     14.883000     -9.341000
S          22.707000     13.142000    -12.655000
N          23.228000     13.539000    -11.134000
C          23.152000     14.559000     -8.312000
S          24.425000     13.272000     -8.418000
C          23.152000     14.923000     -6.983000
C          24.868000     13.279000     -6.697000
S          22.350000     16.272000     -6.212000
C          24.059000     14.215000     -6.143000
C          25.960000     12.514000     -6.156000
C          23.176000     15.811000     -4.694000
C          24.108000     14.771000     -4.843000
N          26.699000     11.863000     -7.058000
S          26.393000     12.241000     -4.503000
C          27.760000     11.215000     -6.391000
C          27.758000     11.313000     -5.032000
C          15.061000     16.114000    -14.127000
H          16.538000     13.828000    -13.882000
H          18.623000     13.519000    -12.863000
H          18.423000     17.582000    -11.332000
H          19.277000     16.484000     -9.609000
H          22.891000     16.432000     -3.855000
H          24.810000     14.406000     -4.102000
H          28.426000     10.639000     -7.019000
H          28.380000     10.790000     -4.317000
H          14.563000     15.154000    -13.948000
C          15.143000     16.433000    -15.636000
H          14.437000     16.873000    -13.640000
H          15.600000     17.411000    -15.829000
H          14.094000     16.560000    -15.927000
C          15.849000     15.406000    -16.572000
H          16.914000     15.628000    -16.432000
C          15.624000     15.726000    -18.011000
H          15.703000     14.355000    -16.294000
H          16.415000     15.261000    -18.611000
H          15.815000     16.803000    -18.093000
C          14.258000     15.587000    -18.693000
H          13.427000     16.110000    -18.205000
C          13.765000     14.183000    -18.786000
H          14.310000     15.930000    -19.734000
H          13.794000     13.621000    -17.844000
H          14.415000     13.544000    -19.395000
H          12.769000     14.117000    -19.243000
C          10.797000      1.155000     -8.930000
C           9.849000      1.855000     -9.637000
N          11.949000      1.657000     -8.503000
C          10.071000      3.199000     -9.963000
C          12.130000      2.951000     -8.805000
C          11.363000      3.696000     -9.626000
C          11.791000      5.067000    -10.059000
C          10.927000      6.089000    -10.039000
C          13.156000      5.511000    -10.221000
N          11.188000      7.407000    -10.053000
N          14.189000      4.638000    -10.264000
C          13.447000      6.850000    -10.252000
C          12.436000      7.824000    -10.206000
S          15.490000      5.642000    -10.270000
N          14.773000      7.108000    -10.410000
C          12.663000      9.265000    -10.202000
S          14.227000     10.018000    -10.659000
C          11.767000     10.297000     -9.869000
C          13.636000     11.636000    -10.394000
S          10.175000     10.172000     -9.256000
C          12.316000     11.563000    -10.024000
C          14.354000     12.860000    -10.560000
C          10.222000     11.890000     -9.256000
C          11.410000     12.479000     -9.632000
N          13.729000     13.961000    -10.915000
S          16.022000     13.000000    -10.005000
C          14.613000     15.045000    -10.725000
C          15.878000     14.724000    -10.206000
C          10.601000     -0.309000     -8.638000
H           8.946000      1.395000    -10.027000
H           9.311000      3.862000    -10.366000
H          13.092000      3.311000     -8.445000
H           9.870000      5.916000     -9.844000
H           9.399000     12.500000     -8.908000
H          11.549000     13.553000     -9.685000
H          14.286000     16.023000    -11.052000
H          16.792000     15.297000    -10.124000
H          10.642000     -0.377000     -7.544000
C          11.663000     -1.301000     -9.268000
H           9.604000     -0.632000     -8.963000
H          12.665000     -0.943000     -9.002000
H          11.603000     -1.193000    -10.358000
C          11.486000     -2.752000     -8.736000
H          10.506000     -3.060000     -9.119000
C          11.678000     -3.023000     -7.227000
H          12.165000     -3.361000     -9.345000
H          10.921000     -2.543000     -6.595000
H          12.666000     -2.587000     -7.035000
C          11.719000     -4.478000     -6.812000
H          11.666000     -4.601000     -5.723000
C          12.952000     -5.279000     -7.295000
H          10.803000     -4.954000     -7.185000
H          12.830000     -6.369000     -7.263000
H          13.805000     -5.022000     -6.654000
H          13.332000     -4.904000     -8.253000
$end

--------------------------------------------------------------

             Standard Nuclear Orientation (Angstroms)
    I     Atom           X                Y                Z
 ----------------------------------------------------------------
    1      C      -3.9273872897     5.1479652922     0.2477004048
    2      C      -3.3674903080     4.1906428760     1.0472628860
    3      N      -5.0587346757     4.9005435393    -0.4347470792
    4      C      -3.9746911606     2.9696740194     1.1624634749
    5      C      -5.6623925295     3.6769538508    -0.3854371452
    6      C      -5.1898384331     2.6118045924     0.4940477515
    7      C      -5.7763602290     1.2576127680     0.4495203920
    8      C      -6.1875628323     0.7076590292    -0.7652126257
    9      C      -5.8442989530     0.3891340218     1.5619456691
   10      N      -6.6410491823    -0.5190555680    -0.9279775709
   11      N      -5.4657035802     0.7502329754     2.7530854969
   12      C      -6.4302033972    -0.8936785438     1.4201680125
   13      C      -6.7801243511    -1.3606972009     0.1190154850
   14      S      -5.8331206628    -0.5692048509     3.6963492511
   15      N      -6.4562417920    -1.6114751498     2.5703458397
   16      C      -7.1614229947    -2.7619756060    -0.1108718261
   17      S      -6.9909777579    -4.1290688144     1.0681695561
   18      C      -7.4271732853    -3.3845192917    -1.3111022800
   19      C      -7.2627653555    -5.4416882022    -0.0985784220
   20      S      -7.9403553731    -2.6787845351    -2.8263674707
   21      C      -7.4567429097    -4.8085114076    -1.2813517964
   22      C      -7.3702510900    -6.8266436797     0.2765417486
   23      C      -8.1006144651    -4.3396876135    -3.4704474248
   24      C      -7.9015431065    -5.3466116397    -2.5118549151
   25      N      -7.3536613728    -7.0618164373     1.5910547973
   26      S      -7.4214518238    -8.2332307885    -0.7300953212
   27      C      -7.5297709161    -8.4451130245     1.8055075445
   28      C      -7.5898051019    -9.2189258413     0.6856420967
   29      C      -3.2270753243     6.5190697383     0.1713279687
   30      H      -2.4171971851     4.3093966665     1.5601376444
   31      H      -3.5063348812     2.2549437024     1.8322940278
   32      H      -6.4804001696     3.5001669820    -1.0825446718
   33      H      -6.1676835756     1.3760929166    -1.6249160358
   34      H      -8.3858819074    -4.3601987907    -4.5139936758
   35      H      -8.0639174342    -6.4114965025    -2.6333654362
   36      H      -7.5211360112    -8.7638360986     2.8389759961
   37      H      -7.5799092129   -10.2986851900     0.6104103189
   38      H      -2.1692820496     6.2315688460     0.1791781237
   39      C      -3.5398655657     7.5452996826     1.2824446891
   40      H      -3.4045105228     6.9899419582    -0.8030549657
   41      H      -4.5853302704     7.8755566036     1.2597308747
   42      H      -2.9677932472     8.4300672242     0.9805661374
   43      C      -3.2139263875     7.1611856265     2.7573958896
   44      H      -4.0656205373     6.5344072806     3.0487289984
   45      C      -3.3299534075     8.3339518080     3.6711262734
   46      H      -2.3109527230     6.5515456902     2.8845914450
   47      H      -3.4863498089     7.9775303875     4.6960213590
   48      H      -4.2797254661     8.8101728940     3.3985817562
   49      C      -2.3545234547     9.5162880455     3.6392134418
   50      H      -2.2181369356     9.9945038863     2.6620019360
   51      C      -0.9619915529     9.1665790753     4.0410498992
   52      H      -2.6617156667    10.2891151431     4.3550382961
   53      H      -0.5396798124     8.2935145253     3.5277662686
   54      H      -0.8945590563     8.8143457627     5.0769488093
   55      H      -0.2774861387    10.0220776435     3.9718000779
   56      C      11.0391288233    -1.5682369423    -0.0105397623
   57      C      11.1024815947    -0.2038017632    -0.1617219975
   58      N       9.9197218179    -2.2811957166    -0.0179385747
   59      C       9.9254473727     0.5362228800    -0.3315747801
   60      C       8.8075874379    -1.5558012808    -0.2059838707
   61      C       8.7192047026    -0.2106177775    -0.2010004599
   62      C       7.3882923388     0.4814702861    -0.2016267617
   63      C       7.1581215233     1.5158194806    -1.0192594051
   64      C       6.1708223591    -0.0342032324     0.3801400910
   65      N       5.9792255242     2.0294776995    -1.4088751867
   66      N       6.1780715730    -1.0831398981     1.2349771049
   67      C       4.9564045509     0.4819510574     0.0095498372
   68      C       4.8575749771     1.5665514160    -0.8774607475
   69      S       4.5734839862    -1.3714353355     1.4419491250
   70      N       3.9067136915    -0.1061090450     0.6436936818
   71      C       3.6062703524     2.1522644149    -1.3456519684
   72      S       2.0210829216     1.8493875904    -0.5599036382
   73      C       3.3921392561     3.0214105572    -2.4307611135
   74      C       1.1610297824     2.8683717678    -1.6821379470
   75      S       4.5149468405     3.5638923808    -3.6016046553
   76      C       2.0670723874     3.4175266485    -2.5551469475
   77      C      -0.2402634192     3.1461893841    -1.7033684758
   78      C       3.1664292096     4.4024034494    -4.2589724269
   79      C       1.9489731021     4.1984519130    -3.6459101162
   80      N      -0.6881118569     4.3011911557    -2.1441106731
   81      S      -1.4113684425     1.8559791458    -1.4318550042
   82      C      -2.0847527152     4.1904125027    -2.3165473368
   83      C      -2.6440960161     2.9367439483    -2.0197692588
   84      C      12.2912347052    -2.3641823188     0.2457370763
   85      H      12.0304041847     0.3550249084    -0.0856863611
   86      H       9.8997752573     1.5821042507    -0.6232099990
   87      H       7.9182734303    -2.1831404164    -0.1914854271
   88      H       7.9705080998     1.9591767646    -1.5925528456
   89      H       3.2294927978     5.0045703818    -5.1556055567
   90      H       1.0351363840     4.6874923212    -3.9642620156
   91      H      -2.6289707149     5.0833522474    -2.5937248631
   92      H      -3.6689340017     2.6150802044    -1.8905851303
   93      H      12.3283131030    -3.0874282309    -0.5780842291
   94      C      12.3652134680    -3.1348665019     1.6275406197
   95      H      13.1749509674    -1.7179074194     0.1726800971
   96      H      11.4508299298    -3.7307450796     1.7359632451
   97      H      12.3096608572    -2.3821863734     2.4236251200
   98      C      13.5976151582    -4.0815250232     1.6966616601
   99      H      14.4583291796    -3.4029260635     1.6716052231
  100      C      13.6979111829    -5.2517598344     0.6927307888
  101      H      13.6234341070    -4.4364184722     2.7340560026
  102      H      13.8213265436    -4.9280563799    -0.3478737097
  103      H      12.7318897953    -5.7547657776     0.8226988610
  104      C      14.7924287068    -6.2633069804     0.9568041903
  105      H      14.9319254343    -6.9535703580     0.1154147843
  106      C      14.6117103845    -7.1317426654     2.2250073873
  107      H      15.7411375619    -5.7148901892     1.0196653978
  108      H      15.5267122627    -7.6265582880     2.5742022649
  109      H      13.8741888998    -7.9146418862     2.0066730800
  110      H      14.0705315503    -6.5945118064     3.0132316407
 ----------------------------------------------------------------

   11   -5663.5250679059      5.72E-06 Convergence criterion met
 Total energy in the final basis set = -5663.5250679059

                    Orbital Energies (a.u.)
 --------------------------------------------------------------

 Alpha MOs
 -- Occupied --
-88.987 -88.986 -88.936 -88.922 -88.921 -88.917 -88.914 -88.913
-14.397 -14.390 -14.387 -14.386 -14.352 -14.348 -14.346 -14.344
-14.332 -14.325 -10.276 -10.271 -10.265 -10.259 -10.259 -10.256
-10.255 -10.252 -10.245 -10.243 -10.241 -10.240 -10.238 -10.236
-10.235 -10.235 -10.234 -10.233 -10.231 -10.229 -10.229 -10.228
-10.226 -10.224 -10.224 -10.221 -10.218 -10.215 -10.214 -10.213
-10.211 -10.211 -10.209 -10.208 -10.196 -10.195 -10.192 -10.188
-10.184 -10.182 -10.181 -10.179 -10.179 -10.178 -10.178 -10.177
-10.175 -10.175 -10.170 -10.164  -8.043  -8.042  -7.997  -7.982
 -7.981  -7.975  -7.974  -7.973  -6.008  -6.007  -6.002  -6.001
 -6.000  -6.000  -5.961  -5.958  -5.955  -5.946  -5.945  -5.943
 -5.941  -5.940  -5.939  -5.938  -5.938  -5.938  -5.936  -5.935
 -5.934  -5.932  -5.930  -5.930  -1.042  -1.040  -0.969  -0.966
 -0.965  -0.962  -0.948  -0.936  -0.920  -0.919  -0.911  -0.907
 -0.852  -0.840  -0.837  -0.832  -0.814  -0.812  -0.811  -0.808
 -0.804  -0.802  -0.799  -0.798  -0.790  -0.785  -0.772  -0.768
 -0.755  -0.750  -0.747  -0.746  -0.720  -0.719  -0.714  -0.708
 -0.700  -0.693  -0.681  -0.672  -0.661  -0.657  -0.649  -0.646
 -0.640  -0.639  -0.627  -0.626  -0.621  -0.611  -0.606  -0.598
 -0.598  -0.590  -0.587  -0.584  -0.583  -0.579  -0.557  -0.556
 -0.554  -0.552  -0.545  -0.543  -0.530  -0.524  -0.523  -0.514
 -0.510  -0.506  -0.501  -0.499  -0.490  -0.486  -0.482  -0.478
 -0.475  -0.473  -0.472  -0.468  -0.463  -0.456  -0.453  -0.452
 -0.447  -0.442  -0.441  -0.439  -0.438  -0.435  -0.434  -0.431
 -0.430  -0.426  -0.424  -0.424  -0.423  -0.418  -0.415  -0.414
 -0.412  -0.411  -0.410  -0.408  -0.399  -0.399  -0.398  -0.396
 -0.396  -0.395  -0.394  -0.390  -0.388  -0.386  -0.385  -0.383
 -0.381  -0.381  -0.372  -0.370  -0.369  -0.367  -0.361  -0.360
 -0.359  -0.352  -0.350  -0.350  -0.347  -0.342  -0.341  -0.340
 -0.336  -0.336  -0.335  -0.332  -0.329  -0.327  -0.319  -0.317
 -0.316  -0.316  -0.311  -0.311  -0.310  -0.305  -0.304  -0.301
 -0.299  -0.295  -0.295  -0.292  -0.288  -0.287  -0.286  -0.284
 -0.276  -0.276  -0.272  -0.271  -0.261  -0.256  -0.254  -0.247
 -0.246  -0.243  -0.234  -0.230  -0.199  -0.192

          Ground-State Mulliken Net Atomic Charges

     Atom                 Charge (a.u.)
  ----------------------------------------
      1 C                     0.278885
      2 C                    -0.080920
      3 N                    -0.493661
      4 C                    -0.071115
      5 C                     0.044877
      6 C                     0.013459
      7 C                     0.050791
      8 C                     0.066399
      9 C                     0.239664
     10 N                    -0.527252
     11 N                    -0.557874
     12 C                     0.207959
     13 C                     0.312501
     14 S                     0.590103
     15 N                    -0.547435
     16 C                    -0.238042
     17 S                     0.348063
     18 C                    -0.108307
     19 C                    -0.229952
     20 S                     0.284211
     21 C                     0.143328
     22 C                     0.063567
     23 C                    -0.315563
     24 C                    -0.072297
     25 N                    -0.428205
     26 S                     0.286340
     27 C                     0.118636
     28 C                    -0.308272
     29 C                    -0.236791
     30 H                     0.097868
     31 H                     0.107025
     32 H                     0.107933
     33 H                     0.103330
     34 H                     0.133269
     35 H                     0.108570
     36 H                     0.119246
     37 H                     0.142859
     38 H                     0.114188
     39 C                    -0.177114
     40 H                     0.107093
     41 H                     0.106090
     42 H                     0.101195
     43 C                    -0.177542
     44 H                     0.104580
     45 C                    -0.175637
     46 H                     0.088665
     47 H                     0.088301
     48 H                     0.088699
     49 C                    -0.168371
     50 H                     0.095074
     51 C                    -0.314981
     52 H                     0.094935
     53 H                     0.098344
     54 H                     0.092970
     55 H                     0.095873
     56 C                     0.273992
     57 C                    -0.121080
     58 N                    -0.474540
     59 C                    -0.077680
     60 C                     0.068286
     61 C                     0.052909
     62 C                     0.077396
     63 C                     0.041067
     64 C                     0.192678
     65 N                    -0.543222
     66 N                    -0.538864
     67 C                     0.208974
     68 C                     0.327797
     69 S                     0.597151
     70 N                    -0.555160
     71 C                    -0.238196
     72 S                     0.314948
     73 C                    -0.108508
     74 C                    -0.226004
     75 S                     0.300787
     76 C                     0.199935
     77 C                     0.049693
     78 C                    -0.304153
     79 C                    -0.085727
     80 N                    -0.429504
     81 S                     0.261461
     82 C                     0.094313
     83 C                    -0.290213
     84 C                    -0.220694
     85 H                     0.091859
     86 H                     0.106465
     87 H                     0.104163
     88 H                     0.097211
     89 H                     0.114358
     90 H                     0.119486
     91 H                     0.123432
     92 H                     0.139839
     93 H                     0.119148
     94 C                    -0.184826
     95 H                     0.084076
     96 H                     0.115087
     97 H                     0.091118
     98 C                    -0.179401
     99 H                     0.085201
    100 C                    -0.169053
    101 H                     0.092750
    102 H                     0.094903
    103 H                     0.095928
    104 C                    -0.173414
    105 H                     0.093103
    106 C                    -0.325682
    107 H                     0.090983
    108 H                     0.103851
    109 H                     0.101109
    110 H                     0.104901
  ----------------------------------------
  Sum of atomic charges =     0.000000

                    Cartesian Multipole Moments
 -----------------------------------------------------------------
    Charge (ESU x 10^10)
                 0.0000
    Dipole Moment (Debye)
         X      -0.4584      Y      -2.3908      Z      -0.1520
       Tot       2.4391
    Quadrupole Moments (Debye-Ang)
        XX    -426.7300     XY      34.4954     YY    -408.3547
        XZ       4.4184     YZ       5.3093     ZZ    -434.6346

 Total job time:  100.75s(wall), 1193.22s(cpu)
        *  Thank you very much for using Q-Chem.  Have a nice day.  *
