 Q-Chem 4.4, Q-Chem, Inc., Pleasanton, CA (2016)
 Q-Chem 4.4.2 for Intel X86 Linux

User input:
--------------------------------------------------------------
$comment
SP
$end

$rem
MEM_STATIC 5000
MEM_TOTAL 20000
JOBTYPE SP
EXCHANGE B3LYP
BASIS 6-31g(d,p)
$end

$molecule
0 1
C          10.156000     11.611000      8.023000
C          11.127000     11.146000      7.113000
N           9.064000     12.256000      7.586000
C          10.941000     11.285000      5.727000
C           8.947000     12.501000      6.252000
C           9.822000     12.070000      5.275000
C           9.529000     12.269000      3.921000
C           9.104000     13.501000      3.441000
C           9.681000     11.285000      2.873000
N           8.797000     13.836000      2.215000
N          10.109000     10.057000      3.107000
C           9.437000     11.653000      1.516000
C           8.951000     12.928000      1.217000
S          10.260000      9.422000      1.627000
N           9.683000     10.605000      0.668000
C           8.784000     13.394000     -0.202000
S           8.895000     12.355000     -1.706000
C           8.471000     14.722000     -0.470000
C           8.581000     13.863000     -2.689000
S           8.393000     16.068000      0.548000
C           8.285000     14.959000     -1.836000
C           8.891000     14.029000     -4.086000
C           8.138000     17.086000     -0.876000
C           8.169000     16.384000     -2.081000
N          10.058000     13.600000     -4.481000
S           7.843000     14.835000     -5.205000
C          10.160000     13.828000     -5.825000
C           9.128000     14.550000     -6.359000
C          10.300000     11.297000      9.486000
H          11.912000     10.529000      7.539000
H          11.698000     10.808000      5.112000
H           8.002000     12.976000      5.993000
H           9.084000     14.377000      4.089000
H           8.165000     18.149000     -0.679000
H           8.283000     16.872000     -3.043000
H          11.019000     13.678000     -6.466000
H           9.032000     14.979000     -7.347000
H           9.623000     10.474000      9.746000
C          10.036000     12.571000     10.385000
H          11.247000     10.794000      9.718000
H           9.987000     12.105000     11.376000
H           9.036000     13.002000     10.253000
C          11.213000     13.583000     10.199000
H          12.168000     13.134000     10.501000
C          11.053000     14.924000     10.977000
H          11.330000     13.747000      9.120000
H          10.171000     15.485000     10.642000
H          11.927000     15.527000     10.701000
C          10.984000     14.601000     12.547000
H          10.067000     14.045000     12.777000
C          11.154000     15.946000     13.310000
H          11.806000     13.939000     12.846000
H          11.213000     15.679000     14.372000
H          10.349000     16.687000     13.225000
H          12.059000     16.420000     12.910000
C          10.797000      1.155000     -8.930000
C           9.849000      1.855000     -9.637000
N          11.949000      1.657000     -8.503000
C          10.071000      3.199000     -9.963000
C          12.130000      2.951000     -8.805000
C          11.363000      3.696000     -9.626000
C          11.791000      5.067000    -10.059000
C          10.927000      6.089000    -10.039000
C          13.156000      5.511000    -10.221000
N          11.188000      7.407000    -10.053000
N          14.189000      4.638000    -10.264000
C          13.447000      6.850000    -10.252000
C          12.436000      7.824000    -10.206000
S          15.490000      5.642000    -10.270000
N          14.773000      7.108000    -10.410000
C          12.663000      9.265000    -10.202000
S          14.227000     10.018000    -10.659000
C          11.767000     10.297000     -9.869000
C          13.636000     11.636000    -10.394000
S          10.175000     10.172000     -9.256000
C          12.316000     11.563000    -10.024000
C          14.354000     12.860000    -10.560000
C          10.222000     11.890000     -9.256000
C          11.410000     12.479000     -9.632000
N          13.729000     13.961000    -10.915000
S          16.022000     13.000000    -10.005000
C          14.613000     15.045000    -10.725000
C          15.878000     14.724000    -10.206000
C          10.601000     -0.309000     -8.638000
H           8.946000      1.395000    -10.027000
H           9.311000      3.862000    -10.366000
H          13.092000      3.311000     -8.445000
H           9.870000      5.916000     -9.844000
H           9.399000     12.500000     -8.908000
H          11.549000     13.553000     -9.685000
H          14.286000     16.023000    -11.052000
H          16.792000     15.297000    -10.124000
H          10.642000     -0.377000     -7.544000
C          11.663000     -1.301000     -9.268000
H           9.604000     -0.632000     -8.963000
H          12.665000     -0.943000     -9.002000
H          11.603000     -1.193000    -10.358000
C          11.486000     -2.752000     -8.736000
H          10.506000     -3.060000     -9.119000
C          11.678000     -3.023000     -7.227000
H          12.165000     -3.361000     -9.345000
H          10.921000     -2.543000     -6.595000
H          12.666000     -2.587000     -7.035000
C          11.719000     -4.478000     -6.812000
H          11.666000     -4.601000     -5.723000
C          12.952000     -5.279000     -7.295000
H          10.803000     -4.954000     -7.185000
H          12.830000     -6.369000     -7.263000
H          13.805000     -5.022000     -6.654000
H          13.332000     -4.904000     -8.253000
$end

--------------------------------------------------------------

             Standard Nuclear Orientation (Angstroms)
    I     Atom           X                Y                Z
 ----------------------------------------------------------------
    1      C     -11.0336030322     3.9977434545    -0.8768688614
    2      C      -9.8793380957     3.9325372285    -1.6834583508
    3      N     -11.1266519392     3.2646087145     0.2426459237
    4      C      -8.7743983734     3.1539660164    -1.2989481720
    5      C     -10.1072208841     2.4153343003     0.5472165940
    6      C      -8.9255333061     2.2918990419    -0.1558432933
    7      C      -7.8929107245     1.4801313357     0.3273645245
    8      C      -8.1308214507     0.1860405993     0.7718604777
    9      C      -6.4923333191     1.8353811854     0.3703118830
   10      N      -7.2761591297    -0.6831629081     1.2447109611
   11      N      -6.0430578339     3.0080332052    -0.0407389398
   12      C      -5.5307791294     0.8720833318     0.7991239464
   13      C      -5.9549439999    -0.3706968506     1.2753629417
   14      S      -4.4360237801     2.8503457813     0.0541411235
   15      N      -4.2586222312     1.3756465203     0.7218909120
   16      C      -4.9752476975    -1.4525857486     1.6335773570
   17      S      -3.1598950663    -1.2659192888     1.7869020356
   18      C      -5.4259193903    -2.7336286649     1.9322428420
   19      C      -3.0783208022    -3.0472191999     2.1859825612
   20      S      -6.9629290770    -3.4235620758     1.8068749371
   21      C      -4.3852204637    -3.5885692436     2.3100567524
   22      C      -1.9031176204    -3.8737392495     2.0809726126
   23      C      -6.2563594272    -4.9885890216     2.2318160964
   24      C      -4.8729862671    -4.9512145530     2.4069498993
   25      N      -1.1825492164    -3.7313799623     1.0027935882
   26      S      -1.4766870327    -5.0763869664     3.2522524352
   27      C      -0.1137929142    -4.5789239221     1.0930886754
   28      C      -0.1508856150    -5.4283434534     2.1648043987
   29      C     -12.1275843626     4.9682792671    -1.2246706516
   30      H      -9.8357859787     4.6476080335    -2.4990360337
   31      H      -7.9014034480     3.2487651631    -1.9374589252
   32      H     -10.2510146710     1.9109102044     1.5014758241
   33      H      -9.1139912718    -0.2711181989     0.6620290797
   34      H      -6.9319140190    -5.8275463931     2.1354650591
   35      H      -4.2574743090    -5.8442936011     2.4187330748
   36      H       0.6402315132    -4.7872696074     0.3452242236
   37      H       0.4841848054    -6.2740856007     2.3902079954
   38      H     -12.0589203163     5.8405217475    -0.5630542188
   39      C     -13.5547821768     4.2916245097    -1.1458180139
   40      H     -11.9467229432     5.4842522897    -2.1758294117
   41      H     -14.1962659430     5.1768079117    -1.2269778710
   42      H     -13.7955502904     3.8887197983    -0.1544131980
   43      C     -13.7037190801     3.2699115308    -2.3196959410
   44      H     -13.6080954119     3.7717438441    -3.2912155977
   45      C     -15.0428708390     2.4725623732    -2.3281745916
   46      H     -12.8313551781     2.6048374689    -2.2811769248
   47      H     -15.1527421752     1.8539028261    -1.4281420065
   48      H     -14.9630595840     1.7780544798    -3.1737217219
   49      C     -16.2567561527     3.5103961671    -2.4810584081
   50      H     -16.3256670944     4.1433008544    -1.5879694209
   51      C     -17.5358262620     2.6897131622    -2.8135536122
   52      H     -16.0762769223     4.2026918524    -3.3126129352
   53      H     -18.3180063177     3.4302361247    -3.0195490066
   54      H     -17.9367664022     2.0299718052    -2.0336053153
   55      H     -17.2823428721     2.0477663898    -3.6664026683
   56      C       8.7369609722     5.0240733223     1.4066529691
   57      C       8.8725595209     4.1078761385     2.4219109431
   58      N       8.2982182261     4.7441792782     0.1857512012
   59      C       8.5438765647     2.7645280485     2.1999212510
   60      C       7.9666280808     3.4577470219     0.0026091105
   61      C       8.2061912489     2.4405525662     0.8542427922
   62      C       7.9877513560     1.0143883108     0.4435683107
   63      C       7.3526178358     0.1607519742     1.2555353152
   64      C       8.1180203004     0.4951143999    -0.8980686027
   65      N       6.7722438490    -1.0118628505     0.9496243668
   66      N       8.7267934399     1.2005854102    -1.8792785285
   67      C       7.5467527965    -0.7052088263    -1.2318957912
   68      C       6.8902780956    -1.4986647894    -0.2767091070
   69      S       8.4443747946     0.2673449202    -3.2021371365
   70      N       7.7568525536    -1.0579474255    -2.5285212470
   71      C       6.2303694016    -2.7692298143    -0.5563714625
   72      S       6.4974319079    -3.7084091641    -2.0625499933
   73      C       5.3148907872    -3.4805067297     0.2403173450
   74      C       5.4054268520    -4.9778704329    -1.5794112504
   75      S       4.6079196662    -3.0163103781     1.7271164509
   76      C       4.9241938135    -4.6860779940    -0.3272527400
   77      C       5.0694668400    -6.1583492516    -2.3107501793
   78      C       3.7920644063    -4.5248298454     1.6153926316
   79      C       4.0117422290    -5.2669809824     0.4749565992
   80      N       4.7564418764    -7.2700230181    -1.6822218910
   81      S       4.7700097804    -6.0792271784    -4.0468130143
   82      C       4.2041883101    -8.1635808659    -2.6251865622
   83      C       4.0968105115    -7.6819558493    -3.9401520947
   84      C       9.1563963497     6.4553842143     1.6125633734
   85      H       9.2961621920     4.3591167492     3.3896650093
   86      H       8.4621071414     2.0191719327     2.9856285897
   87      H       7.6256400629     3.2775803435    -1.0151880892
   88      H       7.1097540264     0.4463591402     2.2776158976
   89      H       3.0765688924    -4.8616173189     2.3537511944
   90      H       3.5638518331    -6.2396075606     0.3046693928
   91      H       3.9701154221    -9.1653873600    -2.2906187342
   92      H       3.8871966813    -8.1802301289    -4.8772933779
   93      H       8.2485455099     7.0373955381     1.4120373859
   94      C      10.3343345883     6.9829801882     0.6944609857
   95      H       9.4441827490     6.6212043872     2.6583385207
   96      H      10.0815734218     6.7580161860    -0.3488160582
   97      H      11.2167443330     6.3685316659     0.9116476703
   98      C      10.5427221260     8.5171041243     0.8454324493
   99      H      10.8760301190     8.6413400722     1.8824590695
  100      C       9.3954776656     9.4701198729     0.4417281874
  101      H      11.4621609363     8.7335314392     0.2881223996
  102      H       8.5063377842     9.3808314050     1.0775983320
  103      H       9.1673022553     9.1418441976    -0.5796801849
  104      C       9.7393900915    10.9433662767     0.3948210753
  105      H       8.8482442483    11.5748200491     0.2900154480
  106      C      10.7240680728    11.3673028642    -0.7213626205
  107      H      10.1540167853    11.2172789443     1.3735026146
  108      H      11.2003157689    12.3432530617    -0.5641451150
  109      H      10.1731042717    11.4162229268    -1.6692997056
  110      H      11.4297535587    10.5650525604    -0.9687316668
 ----------------------------------------------------------------

    9   -5663.5160959236      7.23E-06 Convergence criterion met
 Total energy in the final basis set = -5663.5160959236

                    Orbital Energies (a.u.)
 --------------------------------------------------------------

 Alpha MOs
 -- Occupied --
-88.988 -88.986 -88.929 -88.927 -88.926 -88.925 -88.916 -88.909
-14.391 -14.389 -14.387 -14.381 -14.350 -14.346 -14.346 -14.343
-14.326 -14.326 -10.270 -10.265 -10.261 -10.259 -10.257 -10.255
-10.254 -10.253 -10.243 -10.243 -10.242 -10.239 -10.236 -10.236
-10.229 -10.229 -10.229 -10.227 -10.226 -10.226 -10.225 -10.224
-10.223 -10.222 -10.220 -10.217 -10.216 -10.215 -10.214 -10.213
-10.212 -10.212 -10.209 -10.207 -10.199 -10.197 -10.194 -10.187
-10.186 -10.181 -10.181 -10.180 -10.180 -10.178 -10.178 -10.177
-10.177 -10.176 -10.170 -10.170  -8.044  -8.042  -7.990  -7.987
 -7.984  -7.984  -7.977  -7.969  -6.009  -6.007  -6.003  -6.001
 -6.001  -5.999  -5.954  -5.951  -5.951  -5.948  -5.948  -5.948
 -5.947  -5.945  -5.945  -5.944  -5.941  -5.940  -5.940  -5.938
 -5.933  -5.933  -5.930  -5.926  -1.043  -1.042  -0.978  -0.969
 -0.967  -0.963  -0.949  -0.934  -0.923  -0.912  -0.908  -0.905
 -0.855  -0.839  -0.839  -0.835  -0.811  -0.811  -0.809  -0.805
 -0.803  -0.801  -0.796  -0.790  -0.787  -0.778  -0.771  -0.764
 -0.755  -0.747  -0.747  -0.736  -0.723  -0.722  -0.710  -0.709
 -0.694  -0.690  -0.674  -0.673  -0.662  -0.649  -0.648  -0.647
 -0.641  -0.629  -0.629  -0.622  -0.613  -0.610  -0.600  -0.596
 -0.595  -0.593  -0.587  -0.585  -0.583  -0.577  -0.561  -0.559
 -0.557  -0.545  -0.543  -0.542  -0.527  -0.521  -0.516  -0.515
 -0.515  -0.509  -0.502  -0.498  -0.490  -0.488  -0.476  -0.475
 -0.474  -0.471  -0.470  -0.465  -0.453  -0.449  -0.448  -0.446
 -0.445  -0.441  -0.439  -0.438  -0.437  -0.433  -0.429  -0.429
 -0.428  -0.427  -0.425  -0.421  -0.420  -0.416  -0.415  -0.413
 -0.411  -0.409  -0.407  -0.402  -0.400  -0.399  -0.397  -0.395
 -0.394  -0.393  -0.390  -0.389  -0.388  -0.386  -0.384  -0.381
 -0.377  -0.377  -0.375  -0.371  -0.370  -0.361  -0.360  -0.356
 -0.354  -0.353  -0.351  -0.351  -0.349  -0.344  -0.342  -0.341
 -0.339  -0.338  -0.336  -0.328  -0.327  -0.324  -0.322  -0.320
 -0.318  -0.317  -0.313  -0.311  -0.305  -0.303  -0.298  -0.297
 -0.295  -0.293  -0.292  -0.292  -0.291  -0.287  -0.286  -0.279
 -0.278  -0.273  -0.270  -0.268  -0.259  -0.257  -0.253  -0.249
 -0.247  -0.245  -0.233  -0.231  -0.196  -0.193

          Ground-State Mulliken Net Atomic Charges

     Atom                 Charge (a.u.)
  ----------------------------------------
      1 C                     0.302613
      2 C                    -0.129491
      3 N                    -0.491016
      4 C                    -0.049658
      5 C                     0.062206
      6 C                     0.028489
      7 C                     0.056785
      8 C                     0.046968
      9 C                     0.206074
     10 N                    -0.522232
     11 N                    -0.547448
     12 C                     0.207957
     13 C                     0.305334
     14 S                     0.599364
     15 N                    -0.555287
     16 C                    -0.219784
     17 S                     0.345347
     18 C                    -0.100053
     19 C                    -0.214758
     20 S                     0.305517
     21 C                     0.118617
     22 C                     0.025832
     23 C                    -0.311156
     24 C                    -0.077735
     25 N                    -0.399231
     26 S                     0.269754
     27 C                     0.122376
     28 C                    -0.304001
     29 C                    -0.246426
     30 H                     0.084520
     31 H                     0.110839
     32 H                     0.105749
     33 H                     0.107522
     34 H                     0.129493
     35 H                     0.114936
     36 H                     0.122093
     37 H                     0.127576
     38 H                     0.115456
     39 C                    -0.170174
     40 H                     0.095319
     41 H                     0.087086
     42 H                     0.120912
     43 C                    -0.178071
     44 H                     0.086959
     45 C                    -0.179543
     46 H                     0.093721
     47 H                     0.097360
     48 H                     0.087293
     49 C                    -0.175929
     50 H                     0.100927
     51 C                    -0.316521
     52 H                     0.094340
     53 H                     0.095111
     54 H                     0.103293
     55 H                     0.104258
     56 C                     0.274349
     57 C                    -0.120918
     58 N                    -0.474356
     59 C                    -0.077520
     60 C                     0.068787
     61 C                     0.053122
     62 C                     0.077416
     63 C                     0.041461
     64 C                     0.193815
     65 N                    -0.542297
     66 N                    -0.538365
     67 C                     0.209615
     68 C                     0.328686
     69 S                     0.598592
     70 N                    -0.555210
     71 C                    -0.237415
     72 S                     0.322085
     73 C                    -0.109003
     74 C                    -0.227678
     75 S                     0.306763
     76 C                     0.200996
     77 C                     0.052407
     78 C                    -0.302694
     79 C                    -0.092473
     80 N                    -0.424218
     81 S                     0.272620
     82 C                     0.098955
     83 C                    -0.302212
     84 C                    -0.220919
     85 H                     0.092346
     86 H                     0.106743
     87 H                     0.104292
     88 H                     0.098004
     89 H                     0.112415
     90 H                     0.115005
     91 H                     0.114873
     92 H                     0.141603
     93 H                     0.119445
     94 C                    -0.184523
     95 H                     0.084350
     96 H                     0.115061
     97 H                     0.091144
     98 C                    -0.180024
     99 H                     0.085421
    100 C                    -0.169196
    101 H                     0.093051
    102 H                     0.095028
    103 H                     0.095966
    104 C                    -0.173697
    105 H                     0.093334
    106 C                    -0.325909
    107 H                     0.091148
    108 H                     0.104088
    109 H                     0.101287
    110 H                     0.104866
  ----------------------------------------
  Sum of atomic charges =     0.000000

                    Cartesian Multipole Moments
 -----------------------------------------------------------------
    Charge (ESU x 10^10)
                 0.0000
    Dipole Moment (Debye)
         X       0.9579      Y      -1.8632      Z      -1.2282
       Tot       2.4286
    Quadrupole Moments (Debye-Ang)
        XX    -462.0441     XY       2.4615     YY    -404.2709
        XZ      20.2031     YZ       4.1324     ZZ    -426.1975

 Total job time:  79.91s(wall), 925.35s(cpu)
        *  Thank you very much for using Q-Chem.  Have a nice day.  *
