 Q-Chem 4.4, Q-Chem, Inc., Pleasanton, CA (2016)
 Q-Chem 4.4.2 for Intel X86 Linux

User input:
--------------------------------------------------------------
$comment
SP
$end

$rem
MEM_STATIC 5000
MEM_TOTAL 20000
JOBTYPE SP
EXCHANGE B3LYP
BASIS 6-31g(d,p)
$end

$molecule
0 1
C         -22.175000     -3.012000      2.327000
C         -23.515000     -3.374000      2.043000
N         -21.467000     -3.793000      3.218000
C         -24.115000     -4.453000      2.659000
C         -22.129000     -4.743000      3.934000
C         -23.426000     -5.197000      3.605000
C         -24.106000     -6.317000      4.277000
C         -25.538000     -6.293000      4.479000
C         -23.550000     -7.624000      4.527000
N         -26.210000     -7.420000      4.816000
N         -22.230000     -7.899000      4.486000
C         -24.294000     -8.734000      4.840000
C         -25.672000     -8.614000      4.877000
S         -22.091000     -9.454000      4.869000
N         -23.607000     -9.855000      5.079000
C         -26.623000     -9.762000      5.144000
S         -28.271000     -9.705000      5.794000
C         -26.332000    -11.103000      4.655000
C         -28.433000    -11.470000      5.743000
S         -25.359000    -11.663000      3.316000
C         -27.474000    -11.925000      4.831000
C         -29.707000    -12.111000      6.140000
C         -26.191000    -13.234000      3.391000
C         -27.323000    -13.180000      4.184000
N         -29.904000    -13.398000      6.099000
S         -30.982000    -11.102000      6.617000
C         -31.145000    -13.772000      6.504000
C         -31.868000    -12.638000      6.823000
C         -21.442000     -2.003000      1.412000
H         -24.148000     -2.880000      1.312000
H         -25.142000     -4.671000      2.378000
H         -21.576000     -5.188000      4.760000
H         -26.294000     -5.523000      4.326000
H         -25.924000    -14.051000      2.734000
H         -28.002000    -14.018000      4.292000
H         -31.367000    -14.831000      6.522000
H         -32.871000    -12.503000      7.204000
H         -20.523000     -1.709000      1.934000
C         -22.317000     -0.753000      1.050000
H         -21.212000     -2.387000      0.410000
H         -22.654000     -0.368000      2.021000
H         -23.172000     -1.034000      0.423000
C         -21.577000      0.376000      0.386000
H         -20.786000      0.629000      1.102000
C         -22.428000      1.552000      0.003000
H         -21.103000     -0.031000     -0.516000
H         -23.049000      1.933000      0.822000
H         -23.158000      1.215000     -0.744000
C         -21.788000      2.726000     -0.732000
H         -22.394000      3.630000     -0.596000
C         -21.687000      2.398000     -2.203000
H         -20.829000      2.903000     -0.229000
H         -21.196000      1.423000     -2.307000
H         -21.138000      3.120000     -2.820000
H         -22.668000      2.193000     -2.650000
C         -22.173000    -13.708000     -3.465000
C         -21.912000    -12.358000     -3.245000
N         -23.248000    -14.249000     -2.842000
C         -22.760000    -11.559000     -2.413000
C         -24.071000    -13.545000     -2.030000
C         -23.884000    -12.167000     -1.746000
C         -24.892000    -11.407000     -0.964000
C         -26.234000    -11.805000     -0.889000
C         -24.548000    -10.364000     -0.054000
N         -27.251000    -11.260000     -0.127000
N         -23.326000     -9.748000      0.107000
C         -25.555000     -9.708000      0.633000
C         -26.923000    -10.198000      0.617000
S         -23.590000     -8.622000      1.215000
N         -25.193000     -8.657000      1.413000
C         -27.999000     -9.427000      1.258000
S         -28.002000     -7.758000      1.709000
C         -29.104000    -10.018000      1.880000
C         -29.308000     -7.996000      2.830000
S         -29.484000    -11.723000      1.868000
C         -29.790000     -9.230000      2.694000
C         -29.731000     -6.973000      3.685000
C         -30.750000    -11.349000      3.057000
C         -30.718000     -9.991000      3.425000
N         -30.413000     -7.278000      4.755000
S         -29.349000     -5.280000      3.367000
C         -30.830000     -6.121000      5.370000
C         -30.260000     -4.967000      4.892000
C         -21.438000    -14.582000     -4.530000
H         -21.068000    -11.807000     -3.650000
H         -22.445000    -10.537000     -2.226000
H         -24.918000    -14.087000     -1.612000
H         -26.591000    -12.655000     -1.467000
H         -31.299000    -12.160000      3.517000
H         -31.271000     -9.634000      4.286000
H         -31.378000     -6.164000      6.302000
H         -30.481000     -3.947000      5.177000
H         -20.360000    -14.671000     -4.350000
C         -21.687000    -14.114000     -5.984000
H         -21.777000    -15.624000     -4.476000
H         -21.456000    -13.042000     -6.000000
H         -22.756000    -14.144000     -6.226000
C         -20.864000    -14.847000     -7.119000
H         -19.782000    -14.732000     -6.981000
C         -21.328000    -14.398000     -8.577000
H         -21.087000    -15.921000     -7.139000
H         -21.043000    -13.359000     -8.782000
H         -22.425000    -14.395000     -8.561000
C         -20.843000    -15.290000     -9.706000
H         -19.750000    -15.277000     -9.617000
C         -21.185000    -14.707000    -11.094000
H         -21.105000    -16.354000     -9.644000
H         -22.257000    -14.607000    -11.302000
H         -20.569000    -15.133000    -11.895000
H         -20.922000    -13.643000    -11.137000
$end

--------------------------------------------------------------

             Standard Nuclear Orientation (Angstroms)
    I     Atom           X                Y                Z
 ----------------------------------------------------------------
    1      C       1.5356694592     6.6374573629    -1.2285034520
    2      C       1.7673046371     5.7376088909    -0.1589624889
    3      N       1.5716359992     6.1388724479    -2.5150591215
    4      C       2.0549688001     4.4075775248    -0.3869162003
    5      C       2.0210409509     4.8700847847    -2.7190519030
    6      C       2.1583925540     3.9209097934    -1.6813778824
    7      C       2.5083913842     2.5065401045    -1.8945519941
    8      C       3.3270687505     1.7990237286    -0.9347645448
    9      C       1.8870483867     1.6082843999    -2.8363346487
   10      N       3.4092998838     0.4469661628    -0.9562210001
   11      N       1.1365548265     2.0162695435    -3.8803717835
   12      C       1.9906280292     0.2407309335    -2.7846260972
   13      C       2.6975412372    -0.3269543929    -1.7393222722
   14      S       0.7014953414     0.6796473424    -4.6602431421
   15      N       1.3813582895    -0.4332948710    -3.7645294594
   16      C       2.8429706289    -1.8177788911    -1.5159691717
   17      S       4.1232438018    -2.6872158107    -0.6518898665
   18      C       1.7514101234    -2.7304770066    -1.8283164349
   19      C       3.3961811736    -4.2647982443    -1.0078162633
   20      S       0.0240477341    -2.4835115101    -1.9203882530
   21      C       2.0532731813    -4.0169221402    -1.3137665223
   22      C       4.0083333311    -5.5024965896    -0.4740199141
   23      C      -0.2166327123    -4.2418768430    -1.7934462241
   24      C       0.9392715598    -4.8930544233    -1.4022403029
   25      N       3.5110537048    -6.6900617040    -0.6721639836
   26      S       5.3946599331    -5.3449867593     0.4875019036
   27      C       4.2295537192    -7.6850787622    -0.0910609092
   28      C       5.2957205913    -7.1246109065     0.5868845043
   29      C       0.9243205027     8.0291563042    -0.9421094749
   30      H       1.6982252324     5.9960653935     0.8934225510
   31      H       2.2087580728     3.7809384711     0.4876616155
   32      H       2.2216550157     4.5967550216    -3.7540180076
   33      H       3.8834063770     2.1231216758    -0.0553931978
   34      H      -1.2023189769    -4.6856802560    -1.8368987064
   35      H       0.9707883805    -5.9572723247    -1.1987803601
   36      H       3.8879220656    -8.7010406391    -0.2400517746
   37      H       6.1067816871    -7.5651714891     1.1503392689
   38      H       1.0402319056     8.6224489760    -1.8575598298
   39      C       1.5787855332     8.7466871349     0.2891476189
   40      H      -0.1267769955     8.0042196864    -0.6275745575
   41      H       2.6547858018     8.7269468555     0.0735815191
   42      H       1.3575475249     8.2155136262     1.2229695758
   43      C       1.2116308007    10.1960908069     0.4551699008
   44      H       1.5192573692    10.6553952821    -0.4917996306
   45      C       1.8069152526    10.8659273786     1.6596703735
   46      H       0.1176570755    10.2496763463     0.5205845662
   47      H       2.8918012573    10.7353276325     1.7464405474
   48      H       1.4111848721    10.3701074947     2.5552361771
   49      C       1.4492735800    12.3193471777     1.9559208106
   50      H       2.2204627422    12.7746338203     2.5891106315
   51      C       0.1153943427    12.3704455306     2.6628728164
   52      H       1.4817522710    12.8354875543     0.9881588325
   53      H      -0.6091922502    11.7929372813     2.0763743156
   54      H      -0.3037817835    13.3708180479     2.8269465861
   55      H       0.1244924425    11.8089981381     3.6056819435
   56      C      -7.5911424019    -1.3945166974    -0.8538276636
   57      C      -6.9562709300    -0.1567092332    -0.7922492937
   58      N      -6.8501738906    -2.4944007415    -0.5751598417
   59      C      -5.5778622071    -0.0415848059    -0.4228379258
   60      C      -5.5396745590    -2.4446408869    -0.2398921001
   61      C      -4.8092120666    -1.2308143818    -0.1529509545
   62      C      -3.4138652673    -1.2164269265     0.3549745428
   63      C      -2.9170214989    -2.2170906951     1.2016216310
   64      C      -2.4112604223    -0.3339647820    -0.1453544373
   65      N      -1.6258657685    -2.3870550267     1.6663656528
   66      N      -2.5756259540     0.7499776795    -0.9800482208
   67      C      -1.1352527983    -0.3897604623     0.3885419809
   68      C      -0.7371846426    -1.4641088099     1.2824644447
   69      S      -1.1065550952     1.3727169201    -1.1188381697
   70      N      -0.2387080540     0.5332159673    -0.0454707287
   71      C       0.5839108891    -1.4459145431     1.9285863873
   72      S       1.6563593940    -0.1067942589     2.1420859626
   73      C       1.3161792687    -2.6028043309     2.2159520763
   74      C       3.0211188815    -1.1545330502     2.3841520001
   75      S       0.7444696202    -4.2414947375     2.0174304678
   76      C       2.6021822055    -2.4156583385     2.4715079883
   77      C       4.3208539423    -0.6477285339     2.4857440955
   78      C       2.4079017224    -4.7596823150     2.3650340867
   79      C       3.2656665539    -3.6537169696     2.5123166333
   80      N       5.3333512573    -1.4426412116     2.2712399652
   81      S       4.6292646236     1.0451484550     2.8760610849
   82      C       6.5010641320    -0.7721803051     2.5499724805
   83      C       6.3669337286     0.5810040661     2.7397120189
   84      C      -9.1321346559    -1.5833394538    -1.0212040056
   85      H      -7.4180137229     0.7986137297    -1.0248726585
   86      H      -5.1346674561     0.9480543059    -0.4764181574
   87      H      -5.0625552499    -3.3962118426    -0.0101816711
   88      H      -3.5717341695    -3.0046269561     1.5692776613
   89      H       2.6663346530    -5.8059634821     2.2689604710
   90      H       4.3420342305    -3.7801951955     2.5161744972
   91      H       7.4580476769    -1.2519914050     2.3926803855
   92      H       7.1292781531     1.2921180819     3.0288725885
   93      H      -9.5201854969    -1.1752713091    -1.9621088541
   94      C      -9.9504994545    -1.0232171455     0.1669386863
   95      H      -9.3851974755    -2.6479974064    -1.0990734687
   96      H      -9.6057949673     0.0078090030     0.3117312884
   97      H      -9.6661693187    -1.5167949045     1.1038284182
   98      C     -11.5252618043    -1.0356380426     0.0159013967
   99      H     -11.8599168679    -0.4431039099    -0.8442743354
  100      C     -12.2572125417    -0.5944682239     1.3621102621
  101      H     -11.9025247333    -2.0575986312    -0.1139994797
  102      H     -12.0985946219     0.4706853620     1.5696173556
  103      H     -11.7448319392    -1.1229348174     2.1756600010
  104      C     -13.7422177693    -0.9066897584     1.4150931597
  105      H     -14.1640406173    -0.3866652785     0.5465432042
  106      C     -14.4172883407    -0.3056749156     2.6666753113
  107      H     -14.0335284790    -1.9546433263     1.2684119066
  108      H     -14.0490466499    -0.6960615065     3.6229411566
  109      H     -15.5052725758    -0.2194284230     2.5599755143
  110      H     -14.1116227315     0.7391046431     2.8012792084
 ----------------------------------------------------------------

   10   -5663.4693342462      7.25E-06 Convergence criterion met
 Total energy in the final basis set = -5663.4693342462

                    Orbital Energies (a.u.)
 --------------------------------------------------------------

 Alpha MOs
 -- Occupied --
-88.989 -88.988 -88.925 -88.924 -88.922 -88.922 -88.907 -88.902
-14.389 -14.385 -14.380 -14.376 -14.353 -14.341 -14.336 -14.334
-14.333 -14.329 -10.265 -10.265 -10.263 -10.259 -10.255 -10.254
-10.254 -10.246 -10.245 -10.242 -10.241 -10.238 -10.237 -10.236
-10.236 -10.234 -10.231 -10.231 -10.231 -10.230 -10.230 -10.230
-10.229 -10.228 -10.228 -10.222 -10.222 -10.221 -10.220 -10.216
-10.214 -10.206 -10.205 -10.202 -10.197 -10.194 -10.193 -10.192
-10.191 -10.191 -10.187 -10.187 -10.184 -10.180 -10.180 -10.180
-10.179 -10.176 -10.173 -10.173  -8.044  -8.044  -7.986  -7.985
 -7.982  -7.980  -7.967  -7.962  -6.009  -6.009  -6.004  -6.003
 -6.003  -6.002  -5.949  -5.949  -5.947  -5.946  -5.946  -5.945
 -5.943  -5.943  -5.942  -5.941  -5.939  -5.937  -5.932  -5.928
 -5.926  -5.923  -5.923  -5.918  -1.055  -1.047  -0.975  -0.973
 -0.958  -0.956  -0.931  -0.928  -0.926  -0.911  -0.909  -0.900
 -0.848  -0.840  -0.835  -0.831  -0.817  -0.812  -0.806  -0.805
 -0.800  -0.799  -0.793  -0.790  -0.785  -0.783  -0.768  -0.768
 -0.752  -0.751  -0.741  -0.739  -0.723  -0.717  -0.712  -0.707
 -0.693  -0.689  -0.672  -0.671  -0.656  -0.651  -0.647  -0.645
 -0.637  -0.634  -0.623  -0.622  -0.613  -0.610  -0.602  -0.596
 -0.590  -0.589  -0.587  -0.581  -0.581  -0.577  -0.574  -0.569
 -0.557  -0.548  -0.539  -0.536  -0.524  -0.521  -0.512  -0.510
 -0.508  -0.505  -0.501  -0.500  -0.487  -0.487  -0.483  -0.479
 -0.476  -0.473  -0.469  -0.468  -0.466  -0.465  -0.451  -0.450
 -0.448  -0.445  -0.443  -0.438  -0.438  -0.432  -0.431  -0.428
 -0.427  -0.426  -0.425  -0.422  -0.416  -0.416  -0.412  -0.409
 -0.409  -0.406  -0.402  -0.402  -0.399  -0.398  -0.397  -0.396
 -0.394  -0.392  -0.390  -0.389  -0.387  -0.383  -0.382  -0.381
 -0.379  -0.376  -0.375  -0.374  -0.373  -0.367  -0.359  -0.357
 -0.356  -0.351  -0.348  -0.347  -0.347  -0.346  -0.343  -0.342
 -0.341  -0.340  -0.335  -0.332  -0.330  -0.326  -0.324  -0.322
 -0.319  -0.315  -0.314  -0.312  -0.310  -0.308  -0.302  -0.298
 -0.295  -0.292  -0.291  -0.290  -0.286  -0.285  -0.284  -0.277
 -0.274  -0.270  -0.269  -0.261  -0.254  -0.250  -0.247  -0.245
 -0.243  -0.237  -0.230  -0.230  -0.193  -0.189

          Ground-State Mulliken Net Atomic Charges

     Atom                 Charge (a.u.)
  ----------------------------------------
      1 C                     0.255526
      2 C                    -0.107764
      3 N                    -0.481419
      4 C                    -0.080240
      5 C                     0.075248
      6 C                     0.049809
      7 C                    -0.002658
      8 C                     0.047843
      9 C                     0.229160
     10 N                    -0.525482
     11 N                    -0.542727
     12 C                     0.198897
     13 C                     0.315700
     14 S                     0.609753
     15 N                    -0.532561
     16 C                    -0.212468
     17 S                     0.342322
     18 C                    -0.120000
     19 C                    -0.194750
     20 S                     0.257747
     21 C                     0.077354
     22 C                     0.081752
     23 C                    -0.310192
     24 C                    -0.023800
     25 N                    -0.442218
     26 S                     0.262198
     27 C                     0.133782
     28 C                    -0.327040
     29 C                    -0.226572
     30 H                     0.086746
     31 H                     0.105490
     32 H                     0.118951
     33 H                     0.127539
     34 H                     0.130467
     35 H                     0.122883
     36 H                     0.124378
     37 H                     0.121586
     38 H                     0.117483
     39 C                    -0.188844
     40 H                     0.119470
     41 H                     0.099773
     42 H                     0.093020
     43 C                    -0.164984
     44 H                     0.092690
     45 C                    -0.178950
     46 H                     0.088561
     47 H                     0.085920
     48 H                     0.084710
     49 C                    -0.166966
     50 H                     0.093513
     51 C                    -0.321895
     52 H                     0.093340
     53 H                     0.102932
     54 H                     0.100292
     55 H                     0.103536
     56 C                     0.272580
     57 C                    -0.118846
     58 N                    -0.486499
     59 C                    -0.082901
     60 C                     0.071606
     61 C                     0.039425
     62 C                     0.038869
     63 C                     0.027839
     64 C                     0.221976
     65 N                    -0.497664
     66 N                    -0.533252
     67 C                     0.168061
     68 C                     0.291679
     69 S                     0.613751
     70 N                    -0.545192
     71 C                    -0.198323
     72 S                     0.321450
     73 C                    -0.144577
     74 C                    -0.243792
     75 S                     0.282598
     76 C                     0.225896
     77 C                     0.095887
     78 C                    -0.305624
     79 C                    -0.088090
     80 N                    -0.436116
     81 S                     0.227458
     82 C                     0.122448
     83 C                    -0.296142
     84 C                    -0.225150
     85 H                     0.090320
     86 H                     0.121860
     87 H                     0.103744
     88 H                     0.113233
     89 H                     0.134424
     90 H                     0.125361
     91 H                     0.113453
     92 H                     0.128123
     93 H                     0.103713
     94 C                    -0.180979
     95 H                     0.119763
     96 H                     0.093647
     97 H                     0.105024
     98 C                    -0.187636
     99 H                     0.093183
    100 C                    -0.174025
    101 H                     0.098051
    102 H                     0.092161
    103 H                     0.091985
    104 C                    -0.173956
    105 H                     0.093706
    106 C                    -0.324514
    107 H                     0.095775
    108 H                     0.104750
    109 H                     0.102095
    110 H                     0.098543
  ----------------------------------------
  Sum of atomic charges =     0.000000

                    Cartesian Multipole Moments
 -----------------------------------------------------------------
    Charge (ESU x 10^10)
                 0.0000
    Dipole Moment (Debye)
         X       1.1818      Y       1.1580      Z       2.5015
       Tot       2.9992
    Quadrupole Moments (Debye-Ang)
        XX    -412.0633     XY     -14.9700     YY    -425.3065
        XZ      16.2746     YZ       8.9239     ZZ    -455.0590

 Total job time:  114.21s(wall), 1333.21s(cpu)
        *  Thank you very much for using Q-Chem.  Have a nice day.  *
