 Q-Chem 4.4, Q-Chem, Inc., Pleasanton, CA (2016)
 Q-Chem 4.4.2 for Intel X86 Linux

User input:
--------------------------------------------------------------
$comment
SP
$end

$rem
MEM_STATIC 5000
MEM_TOTAL 20000
JOBTYPE SP
EXCHANGE B3LYP
BASIS 6-31g(d,p)
$end

$molecule
0 1
C          16.387000     15.929000    -13.363000
C          16.984000     14.700000    -13.412000
N          16.950000     16.942000    -12.682000
C          18.176000     14.504000    -12.769000
C          18.111000     16.768000    -11.985000
C          18.867000     15.520000    -12.033000
C          20.054000     15.304000    -11.182000
C          20.096000     15.822000     -9.887000
C          21.143000     14.478000    -11.540000
N          21.065000     15.615000     -9.018000
N          21.227000     13.899000    -12.702000
C          22.241000     14.336000    -10.655000
C          22.153000     14.883000     -9.341000
S          22.707000     13.142000    -12.655000
N          23.228000     13.539000    -11.134000
C          23.152000     14.559000     -8.312000
S          24.425000     13.272000     -8.418000
C          23.152000     14.923000     -6.983000
C          24.868000     13.279000     -6.697000
S          22.350000     16.272000     -6.212000
C          24.059000     14.215000     -6.143000
C          25.960000     12.514000     -6.156000
C          23.176000     15.811000     -4.694000
C          24.108000     14.771000     -4.843000
N          26.699000     11.863000     -7.058000
S          26.393000     12.241000     -4.503000
C          27.760000     11.215000     -6.391000
C          27.758000     11.313000     -5.032000
C          15.061000     16.114000    -14.127000
H          16.538000     13.828000    -13.882000
H          18.623000     13.519000    -12.863000
H          18.423000     17.582000    -11.332000
H          19.277000     16.484000     -9.609000
H          22.891000     16.432000     -3.855000
H          24.810000     14.406000     -4.102000
H          28.426000     10.639000     -7.019000
H          28.380000     10.790000     -4.317000
H          14.563000     15.154000    -13.948000
C          15.143000     16.433000    -15.636000
H          14.437000     16.873000    -13.640000
H          15.600000     17.411000    -15.829000
H          14.094000     16.560000    -15.927000
C          15.849000     15.406000    -16.572000
H          16.914000     15.628000    -16.432000
C          15.624000     15.726000    -18.011000
H          15.703000     14.355000    -16.294000
H          16.415000     15.261000    -18.611000
H          15.815000     16.803000    -18.093000
C          14.258000     15.587000    -18.693000
H          13.427000     16.110000    -18.205000
C          13.765000     14.183000    -18.786000
H          14.310000     15.930000    -19.734000
H          13.794000     13.621000    -17.844000
H          14.415000     13.544000    -19.395000
H          12.769000     14.117000    -19.243000
C          18.702000     11.962000     -6.790000
C          19.483000     12.778000     -7.627000
N          18.278000     10.765000     -7.145000
C          19.954000     12.218000     -8.837000
C          18.660000     10.226000     -8.328000
C          19.530000     10.911000     -9.220000
C          20.007000     10.188000    -10.427000
C          21.395000     10.063000    -10.767000
C          19.100000      9.411000    -11.327000
N          21.868000      9.360000    -11.838000
N          17.760000      9.351000    -11.149000
C          19.639000      8.734000    -12.402000
C          21.061000      8.665000    -12.583000
S          17.292000      8.615000    -12.561000
N          18.707000      8.230000    -13.196000
C          21.667000      7.953000    -13.771000
S          20.799000      7.167000    -15.032000
C          23.010000      7.689000    -13.970000
C          22.237000      6.480000    -15.738000
S          24.430000      8.437000    -13.121000
C          23.344000      6.916000    -15.038000
C          22.176000      5.720000    -16.897000
C          25.477000      7.637000    -14.301000
C          24.732000      6.789000    -15.198000
N          23.277000      5.644000    -17.571000
S          20.817000      4.766000    -17.547000
C          23.141000      4.887000    -18.716000
C          21.955000      4.269000    -18.875000
C          18.422000     12.428000     -5.357000
H          19.788000     13.757000     -7.270000
H          20.664000     12.730000     -9.480000
H          18.236000      9.284000     -8.670000
H          22.126000     10.521000    -10.101000
H          26.536000      7.858000    -14.301000
H          25.230000      6.192000    -15.953000
H          23.930000      4.893000    -19.456000
H          21.570000      3.611000    -19.643000
H          18.450000     13.512000     -5.197000
C          19.159000     11.684000     -4.261000
H          17.370000     12.171000     -5.177000
H          18.758000     10.664000     -4.211000
H          18.770000     11.988000     -3.282000
C          20.706000     11.756000     -4.275000
H          21.061000     12.674000     -4.759000
C          21.415000     10.492000     -5.023000
H          21.086000     11.762000     -3.246000
H          21.298000     10.606000     -6.108000
H          20.993000      9.523000     -4.731000
C          22.904000     10.395000     -4.769000
H          23.226000      9.645000     -5.502000
C          23.220000     10.006000     -3.315000
H          23.419000     11.328000     -5.032000
H          22.982000      8.935000     -3.305000
H          22.711000     10.584000     -2.533000
H          24.308000     10.090000     -3.198000
$end

--------------------------------------------------------------

             Standard Nuclear Orientation (Angstroms)
    I     Atom           X                Y                Z
 ----------------------------------------------------------------
    1      C      -2.4759303310    -6.3417814749     0.2607873736
    2      C      -2.6751063523    -5.0126600600     0.0097571428
    3      N      -1.3721970229    -6.7643448808     0.9011872117
    4      C      -1.7435860863    -4.1012631362     0.4273150926
    5      C      -0.3970978163    -5.8890947703     1.2847556951
    6      C      -0.5451399698    -4.4447170289     1.1324387196
    7      C       0.5633060391    -3.5190745272     1.4396184787
    8      C       1.8816628871    -3.8819122191     1.1614152603
    9      C       0.3826813710    -2.1939361355     1.8954078732
   10      N       2.9321241274    -3.1009069352     1.3148197228
   11      N      -0.7914651458    -1.7029547280     2.1653304819
   12      C       1.5120300314    -1.3815797540     2.1667779393
   13      C       2.8101757638    -1.8489017433     1.8062549639
   14      S      -0.4546062994    -0.1803378175     2.7431036740
   15      N       1.1967660252    -0.1445100174     2.6240372455
   16      C       3.9784075406    -0.9568166138     1.8414208176
   17      S       3.9490363085     0.8441143774     2.0509891726
   18      C       5.2663726186    -1.2265907222     1.4326361697
   19      C       5.6345144777     1.1346028739     1.5683725810
   20      S       6.0700604232    -2.7716495122     1.2766706340
   21      C       6.1202749241    -0.0969216063     1.2770355880
   22      C       6.2710914146     2.4226472160     1.6463570413
   23      C       7.5707864213    -1.8783116853     0.8908079571
   24      C       7.4568338956    -0.4847265752     1.0225666862
   25      N       5.5365896841     3.3859218106     2.2086161127
   26      S       7.8094085831     2.9231068754     1.0319081677
   27      C       6.3089141414     4.5648839032     2.2724699844
   28      C       7.5436852089     4.5001941409     1.7000674639
   29      C      -3.5652376137    -7.3304906109    -0.1997133194
   30      H      -3.5084721357    -4.6234174675    -0.5683359944
   31      H      -1.9628635213    -3.0564222531     0.2295906998
   32      H       0.5343484217    -6.3164428226     1.6537144297
   33      H       2.0374145604    -4.9100264139     0.8373602980
   34      H       8.4000496672    -2.5318831039     0.6542622536
   35      H       8.2528128190     0.2486954183     0.9624024692
   36      H       5.8142748710     5.4264205183     2.7000242534
   37      H       8.2414640252     5.3052013722     1.5084791522
   38      H      -3.8669708866    -6.8999827320    -1.1616202786
   39      C      -4.7809975749    -7.5396544662     0.7296650742
   40      H      -3.1265598374    -8.3085413065    -0.4312400898
   41      H      -4.5007513295    -8.0101580869     1.6797547461
   42      H      -5.3703139311    -8.3039479904     0.2102686541
   43      C      -5.6691206243    -6.3062655969     1.0749915086
   44      H      -5.1044068257    -5.8036185256     1.8696947534
   45      C      -6.9303754477    -6.7096610165     1.7607424880
   46      H      -5.7862951925    -5.5817969946     0.2597514428
   47      H      -7.3231991516    -5.8548286396     2.3236431408
   48      H      -6.6156666158    -7.4240186030     2.5313173318
   49      C      -8.0573296780    -7.4718999169     1.0540834319
   50      H      -7.7607339007    -8.3979853413     0.5474960934
   51      C      -8.7308135148    -6.6967604517    -0.0268848059
   52      H      -8.8610746673    -7.7143209181     1.7606667960
   53      H      -8.0516109153    -6.2343759973    -0.7541629131
   54      H      -9.2329513287    -5.7963583547     0.3457217956
   55      H      -9.5062552394    -7.2795520570    -0.5409519967
   56      C       2.9925213361    -1.7444075153    -3.3807551622
   57      C       2.7668356151    -1.8904810288    -2.0008586139
   58      N       2.1723003873    -1.0884170790    -4.1779528432
   59      C       1.6917859275    -1.1699800299    -1.4310450656
   60      C       1.0961751335    -0.4402069120    -3.6702994009
   61      C       0.8139915761    -0.4290289085    -2.2767297069
   62      C      -0.3047694575     0.4215709793    -1.7951068457
   63      C      -0.1557910672     1.3928453700    -0.7500228791
   64      C      -1.6536380911     0.4417952052    -2.4404923042
   65      N      -1.1492882011     2.2266726071    -0.3226184060
   66      N      -1.9845694483    -0.3572994156    -3.4810768629
   67      C      -2.6197494478     1.2971716399    -1.9511713446
   68      C      -2.3010238278     2.2480207655    -0.9245721437
   69      S      -3.6213888249    -0.0959888697    -3.5647615506
   70      N      -3.8021127943     1.0910683721    -2.5102906161
   71      C      -3.3542965450     3.1718337025    -0.3564962326
   72      S      -5.0125752528     3.2203685536    -0.8137675913
   73      C      -3.1373237199     4.2236381649     0.5150404368
   74      C      -5.3380655922     4.6552772286     0.1207601683
   75      S      -1.6620023462     4.5497554540     1.5219065442
   76      C      -4.1978456162     5.0238400742     0.8060373641
   77      C      -6.6143626983     5.1948326757     0.1881961854
   78      C      -2.5793120777     5.8206383979     2.3416677285
   79      C      -3.8896840383     5.9983190332     1.7671305960
   80      N      -6.8481836405     5.9436194979     1.2162521478
   81      S      -7.9528693351     5.0687028069    -0.9831228316
   82      C      -8.1375280562     6.4335608529     1.2271354500
   83      C      -8.8794343308     6.1610222600     0.1366773832
   84      C       4.3047059375    -2.2692755773    -3.9738235303
   85      H       3.4821533264    -2.4528038524    -1.4083819359
   86      H       1.5229213556    -1.1236473748    -0.3591164106
   87      H       0.3633423840     0.0183518912    -4.3311957508
   88      H       0.8286066998     1.5063262250    -0.2964105646
   89      H      -2.1412769107     6.3189793472     3.1961286643
   90      H      -4.5623636824     6.7687388945     2.1254507513
   91      H      -8.5152297574     6.9209527600     2.1159253879
   92      H      -9.8922231835     6.4203038268    -0.1426876268
   93      H       4.7790057282    -3.0898875124    -3.4233003606
   94      C       5.3153753135    -1.2168452706    -4.3847479299
   95      H       4.0182017062    -2.7336460572    -4.9264138844
   96      H       4.9153887723    -0.6797127741    -5.2537706269
   97      H       6.1380580842    -1.6893000542    -4.9344365111
   98      C       5.8682240564    -0.2946635559    -3.2700604613
   99      H       5.8364567709    -0.7858497941    -2.2898911295
  100      C       5.0775403599     1.1259571536    -3.1414638369
  101      H       6.9169986932    -0.0495951746    -3.4781235518
  102      H       4.1072101666     0.9536901352    -2.6590808039
  103      H       4.9001535911     1.6125274352    -4.1079483403
  104      C       5.7976222251     2.1448588124    -2.2845113779
  105      H       5.0370876470     2.9227358029    -2.1432048208
  106      C       7.0836598851     2.6593818664    -2.9528422570
  107      H       6.0227378403     1.7452439516    -1.2872581890
  108      H       6.6903012822     3.3387134159    -3.7193686136
  109      H       7.7707876363     1.8969750344    -3.3417899092
  110      H       7.5949959077     3.2832692253    -2.2086722258
 ----------------------------------------------------------------

   10   -5663.5264774587      6.09E-06 Convergence criterion met
 Total energy in the final basis set = -5663.5264774587

                    Orbital Energies (a.u.)
 --------------------------------------------------------------

 Alpha MOs
 -- Occupied --
-88.989 -88.986 -88.936 -88.922 -88.921 -88.919 -88.915 -88.906
-14.397 -14.391 -14.389 -14.386 -14.354 -14.352 -14.348 -14.336
-14.329 -14.324 -10.276 -10.271 -10.268 -10.264 -10.261 -10.259
-10.257 -10.255 -10.246 -10.245 -10.244 -10.240 -10.239 -10.236
-10.236 -10.236 -10.235 -10.235 -10.234 -10.232 -10.231 -10.227
-10.227 -10.227 -10.226 -10.226 -10.225 -10.224 -10.221 -10.214
-10.212 -10.212 -10.211 -10.207 -10.203 -10.197 -10.195 -10.191
-10.188 -10.185 -10.179 -10.178 -10.176 -10.176 -10.175 -10.173
-10.168 -10.168 -10.167 -10.165  -8.046  -8.042  -7.997  -7.983
 -7.981  -7.977  -7.975  -7.965  -6.011  -6.007  -6.005  -6.003
 -6.001  -5.999  -5.962  -5.958  -5.954  -5.947  -5.945  -5.943
 -5.942  -5.942  -5.940  -5.939  -5.938  -5.937  -5.936  -5.934
 -5.932  -5.930  -5.926  -5.921  -1.052  -1.041  -0.973  -0.969
 -0.967  -0.965  -0.936  -0.933  -0.919  -0.918  -0.913  -0.912
 -0.842  -0.840  -0.831  -0.828  -0.815  -0.812  -0.811  -0.808
 -0.799  -0.797  -0.794  -0.790  -0.788  -0.778  -0.772  -0.767
 -0.755  -0.749  -0.747  -0.738  -0.721  -0.720  -0.716  -0.701
 -0.700  -0.689  -0.681  -0.675  -0.657  -0.654  -0.648  -0.644
 -0.640  -0.638  -0.628  -0.625  -0.621  -0.616  -0.606  -0.598
 -0.595  -0.589  -0.588  -0.583  -0.583  -0.570  -0.555  -0.553
 -0.552  -0.550  -0.545  -0.542  -0.530  -0.524  -0.521  -0.512
 -0.506  -0.505  -0.502  -0.501  -0.489  -0.484  -0.481  -0.480
 -0.477  -0.472  -0.471  -0.465  -0.463  -0.456  -0.455  -0.453
 -0.447  -0.446  -0.441  -0.440  -0.439  -0.435  -0.432  -0.431
 -0.428  -0.427  -0.426  -0.424  -0.420  -0.419  -0.414  -0.414
 -0.413  -0.412  -0.410  -0.402  -0.400  -0.398  -0.398  -0.396
 -0.395  -0.394  -0.392  -0.390  -0.388  -0.386  -0.386  -0.383
 -0.383  -0.381  -0.374  -0.370  -0.369  -0.362  -0.360  -0.359
 -0.356  -0.353  -0.350  -0.347  -0.346  -0.342  -0.341  -0.337
 -0.337  -0.335  -0.333  -0.332  -0.329  -0.324  -0.319  -0.317
 -0.317  -0.316  -0.311  -0.309  -0.306  -0.304  -0.302  -0.301
 -0.296  -0.294  -0.287  -0.286  -0.285  -0.284  -0.283  -0.277
 -0.276  -0.275  -0.271  -0.267  -0.262  -0.256  -0.246  -0.246
 -0.244  -0.240  -0.235  -0.229  -0.200  -0.193

          Ground-State Mulliken Net Atomic Charges

     Atom                 Charge (a.u.)
  ----------------------------------------
      1 C                     0.279003
      2 C                    -0.094066
      3 N                    -0.494115
      4 C                    -0.061982
      5 C                     0.062964
      6 C                     0.022631
      7 C                     0.065536
      8 C                     0.064321
      9 C                     0.213835
     10 N                    -0.525884
     11 N                    -0.555309
     12 C                     0.212223
     13 C                     0.294036
     14 S                     0.606930
     15 N                    -0.552814
     16 C                    -0.239023
     17 S                     0.346942
     18 C                    -0.112589
     19 C                    -0.232354
     20 S                     0.281666
     21 C                     0.145353
     22 C                     0.066034
     23 C                    -0.315926
     24 C                    -0.070227
     25 N                    -0.428118
     26 S                     0.288136
     27 C                     0.118412
     28 C                    -0.307745
     29 C                    -0.232973
     30 H                     0.090402
     31 H                     0.103303
     32 H                     0.105690
     33 H                     0.111027
     34 H                     0.134014
     35 H                     0.110292
     36 H                     0.119837
     37 H                     0.143350
     38 H                     0.100421
     39 C                    -0.174700
     40 H                     0.112095
     41 H                     0.107444
     42 H                     0.099450
     43 C                    -0.176808
     44 H                     0.106133
     45 C                    -0.175645
     46 H                     0.086161
     47 H                     0.088791
     48 H                     0.089238
     49 C                    -0.168687
     50 H                     0.094809
     51 C                    -0.314893
     52 H                     0.095487
     53 H                     0.096040
     54 H                     0.093756
     55 H                     0.095720
     56 C                     0.298946
     57 C                    -0.131885
     58 N                    -0.492591
     59 C                    -0.060397
     60 C                     0.091109
     61 C                     0.027028
     62 C                    -0.001562
     63 C                     0.044749
     64 C                     0.208441
     65 N                    -0.516141
     66 N                    -0.548118
     67 C                     0.217733
     68 C                     0.338204
     69 S                     0.592407
     70 N                    -0.545971
     71 C                    -0.224627
     72 S                     0.325901
     73 C                    -0.152749
     74 C                    -0.261225
     75 S                     0.276314
     76 C                     0.239725
     77 C                     0.073047
     78 C                    -0.312524
     79 C                    -0.077289
     80 N                    -0.441233
     81 S                     0.231555
     82 C                     0.137906
     83 C                    -0.304197
     84 C                    -0.229394
     85 H                     0.117723
     86 H                     0.079599
     87 H                     0.117650
     88 H                     0.133263
     89 H                     0.133618
     90 H                     0.118733
     91 H                     0.115067
     92 H                     0.135231
     93 H                     0.096711
     94 C                    -0.176170
     95 H                     0.111587
     96 H                     0.110709
     97 H                     0.086390
     98 C                    -0.188494
     99 H                     0.099379
    100 C                    -0.169139
    101 H                     0.086871
    102 H                     0.096178
    103 H                     0.088409
    104 C                    -0.186493
    105 H                     0.092505
    106 C                    -0.315250
    107 H                     0.088151
    108 H                     0.103217
    109 H                     0.105336
    110 H                     0.098432
  ----------------------------------------
  Sum of atomic charges =     0.000000

                    Cartesian Multipole Moments
 -----------------------------------------------------------------
    Charge (ESU x 10^10)
                 0.0000
    Dipole Moment (Debye)
         X       0.3227      Y       2.2489      Z       0.5958
       Tot       2.3488
    Quadrupole Moments (Debye-Ang)
        XX    -375.9835     XY       3.0879     YY    -434.5675
        XZ       4.4827     YZ       9.6941     ZZ    -456.7365

 Total job time:  104.47s(wall), 1207.61s(cpu)
        *  Thank you very much for using Q-Chem.  Have a nice day.  *
