 Q-Chem 4.4, Q-Chem, Inc., Pleasanton, CA (2016)
 Q-Chem 4.4.2 for Intel X86 Linux

User input:
--------------------------------------------------------------
$comment
SP
$end

$rem
MEM_STATIC 5000
MEM_TOTAL 20000
JOBTYPE SP
EXCHANGE B3LYP
BASIS 6-31g(d,p)
$end

$molecule
0 1
C          -2.548000     18.844000     -3.788000
C          -2.735000     20.108000     -3.271000
N          -1.515000     18.591000     -4.649000
C          -1.998000     21.169000     -3.626000
C          -0.663000     19.653000     -4.927000
C          -0.849000     20.978000     -4.484000
C           0.126000     22.110000     -4.771000
C          -0.306000     23.320000     -5.304000
C           1.530000     21.998000     -4.573000
N           0.524000     24.366000     -5.550000
N           2.152000     20.878000     -4.138000
C           2.344000     23.119000     -4.821000
C           1.810000     24.332000     -5.212000
S           3.736000     21.281000     -4.182000
N           3.651000     22.838000     -4.713000
C           2.563000     25.603000     -5.234000
S           2.306000     26.834000     -6.535000
C           3.330000     26.101000     -4.244000
C           3.416000     27.865000     -5.731000
S           3.887000     25.337000     -2.799000
C           3.728000     27.385000     -4.449000
C           3.783000     29.207000     -6.192000
C           4.755000     26.886000     -2.386000
C           4.615000     27.789000     -3.433000
N           2.961000     29.816000     -6.983000
S           5.308000     30.068000     -5.742000
C           3.535000     31.053000     -7.272000
C           4.838000     31.320000     -6.918000
C          -3.318000     17.636000     -3.182000
H          -3.464000     20.249000     -2.479000
H          -2.182000     22.082000     -3.068000
H           0.184000     19.465000     -5.586000
H          -1.346000     23.585000     -5.493000
H           5.483000     26.870000     -1.586000
H           5.273000     28.649000     -3.476000
H           2.988000     31.700000     -7.946000
H           5.455000     32.173000     -7.170000
H          -3.535000     17.947000     -2.152000
C          -2.484000     16.284000     -3.166000
H          -4.284000     17.483000     -3.678000
H          -1.495000     16.422000     -2.712000
H          -2.261000     16.033000     -4.210000
C          -3.248000     15.127000     -2.494000
H          -3.437000     15.340000     -1.435000
C          -2.425000     13.832000     -2.632000
H          -4.218000     14.973000     -2.982000
H          -1.423000     14.157000     -2.323000
H          -2.358000     13.530000     -3.684000
C          -3.075000     12.641000     -1.830000
H          -3.167000     12.981000     -0.791000
C          -2.307000     11.332000     -1.870000
H          -4.073000     12.472000     -2.254000
H          -2.654000     10.555000     -1.178000
H          -1.312000     11.644000     -1.528000
H          -2.053000     10.924000     -2.856000
C           7.345000     20.227000     -2.659000
C           7.792000     20.765000     -1.496000
N           6.259000     19.424000     -2.718000
C           7.084000     20.518000     -0.311000
C           5.601000     19.176000     -1.655000
C           5.989000     19.602000     -0.398000
C           5.204000     19.332000      0.869000
C           3.799000     19.478000      0.810000
C           5.755000     18.983000      2.095000
N           3.038000     19.098000      1.825000
N           7.040000     18.929000      2.324000
C           4.906000     18.589000      3.108000
C           3.482000     18.603000      3.011000
S           7.157000     18.345000      3.875000
N           5.567000     18.300000      4.311000
C           2.470000     18.169000      4.036000
S           2.770000     17.127000      5.470000
C           1.103000     18.337000      3.890000
C           1.068000     16.903000      5.775000
S           0.242000     19.226000      2.734000
C           0.301000     17.630000      4.856000
C           0.557000     15.992000      6.784000
C          -1.238000     18.603000      3.436000
C          -1.055000     17.773000      4.515000
N          -0.727000     16.055000      7.020000
S           1.546000     15.155000      7.943000
C          -1.044000     15.362000      8.142000
C           0.057000     14.726000      8.727000
C           7.988000     20.594000     -3.973000
H           8.647000     21.433000     -1.507000
H           7.430000     20.886000      0.650000
H           4.679000     18.609000     -1.778000
H           3.265000     19.791000     -0.086000
H          -2.168000     18.959000      3.012000
H          -1.915000     17.301000      4.976000
H          -2.079000     15.166000      8.391000
H           0.075000     13.965000      9.496000
H           7.219000     21.133000     -4.541000
C           8.523000     19.317000     -4.711000
H           8.813000     21.318000     -3.966000
H           7.688000     18.656000     -4.976000
H           9.214000     18.739000     -4.086000
C           9.268000     19.776000     -5.984000
H           8.618000     20.415000     -6.593000
C           9.564000     18.482000     -6.834000
H          10.195000     20.335000     -5.808000
H           8.605000     18.030000     -7.116000
H          10.159000     17.749000     -6.276000
C          10.311000     18.910000     -8.126000
H           9.737000     19.667000     -8.674000
C          10.641000     17.738000     -9.017000
H          11.292000     19.310000     -7.841000
H          11.201000     16.930000     -8.531000
H          11.198000     18.012000     -9.921000
H           9.737000     17.353000     -9.506000
$end

--------------------------------------------------------------

             Standard Nuclear Orientation (Angstroms)
    I     Atom           X                Y                Z
 ----------------------------------------------------------------
    1      C      -0.9235537089     5.8784747669    -1.5385827588
    2      C      -0.4747337934     5.8716345912    -0.2353299455
    3      N      -0.2352034789     5.2102278931    -2.5143076567
    4      C       0.6759768016     5.3024732486     0.1478612506
    5      C       0.8923235769     4.5064538529    -2.1088241937
    6      C       1.4337860227     4.5243301372    -0.8076828262
    7      C       2.6462639843     3.7082610141    -0.3853720652
    8      C       3.7220408002     4.2966915322     0.2713369784
    9      C       2.7924152603     2.3233409589    -0.6745091352
   10      N       4.8110081343     3.6024300760     0.6904827474
   11      N       1.8937639574     1.5907517521    -1.3718239062
   12      C       3.9293552563     1.6446457082    -0.1975592404
   13      C       4.8829076702     2.2792621135     0.5753610737
   14      S       2.6012326395     0.1204406443    -1.4770584541
   15      N       3.9987598732     0.3822790039    -0.6453173258
   16      C       5.9493444351     1.5788235173     1.3203660399
   17      S       7.6150768302     2.2705003162     1.4650373701
   18      C       5.7972676895     0.5143203222     2.1328305689
   19      C       8.0394065512     0.9482761171     2.4715881414
   20      S       4.4241721806    -0.5095246199     2.3526492626
   21      C       6.9083205511     0.2103582121     2.8555017073
   22      C       9.3587463434     0.7623877016     3.0822942978
   23      C       5.4070488368    -1.4696717542     3.5507581721
   24      C       6.7054108660    -0.9755282991     3.5867621548
   25      N      10.1071732569     1.8072714678     3.2248462898
   26      S      10.0190256497    -0.8253623359     3.6413354913
   27      C      11.2895221100     1.3676379282     3.8180912143
   28      C      11.5580893090     0.0224447163     3.9309667308
   29      C      -2.3555846047     6.3914536087    -1.8634523041
   30      H      -1.1133751907     6.2791061157     0.5422882913
   31      H       0.8600401164     5.2791539197     1.2176116444
   32      H       1.4373916411     3.9421466517    -2.8647952171
   33      H       3.7660564286     5.3369804503     0.5929074858
   34      H       5.0290739492    -2.4305897532     3.8732664413
   35      H       7.4843795754    -1.5788898433     4.0379556797
   36      H      12.0529899726     2.1139281925     3.9977065373
   37      H      12.4663697217    -0.4697169955     4.2543945300
   38      H      -2.9131031751     6.2358070664    -0.9308981784
   39      C      -3.0671037576     5.6063755310    -3.0471367667
   40      H      -2.3628239844     7.4699567291    -2.0618448713
   41      H      -3.0350813017     4.5209567725    -2.8918252056
   42      H      -2.4578291342     5.7611672258    -3.9457412206
   43      C      -4.5087777431     6.0906673823    -3.2940507645
   44      H      -5.1454137956     5.8988462139    -2.4220013530
   45      C      -5.0781055698     5.3694098092    -4.5305989192
   46      H      -4.5232466643     7.1701372904    -3.4871708510
   47      H      -4.8161409306     4.3219555884    -4.3322956590
   48      H      -4.5376203766     5.6733175517    -5.4349842574
   49      C      -6.6035163511     5.7016376880    -4.7472359078
   50      H      -7.1157234326     5.4256261110    -3.8171571396
   51      C      -7.2641216310     4.9978510259    -5.9190678064
   52      H      -6.6795294888     6.7851041366    -4.9042819444
   53      H      -8.3563074156     5.0836060833    -5.9717772178
   54      H      -7.0355483559     3.9454942601    -5.7078037647
   55      H      -6.7931172949     5.1036626654    -6.9040220248
   56      C       1.7580767579    -3.7911757798    -2.1431448677
   57      C       1.4316390011    -4.6159821324    -1.1160349069
   58      N       0.9787934108    -2.7511749730    -2.5157059861
   59      C       0.2644408654    -4.3643299058    -0.3806318413
   60      C      -0.0919450943    -2.5039262117    -1.8700868231
   61      C      -0.5741356511    -3.3059504830    -0.8520896054
   62      C      -1.8332503466    -3.0106182341    -0.0635320322
   63      C      -2.0527977948    -1.6732046479     0.3388928894
   64      C      -2.7760285373    -3.9533209482     0.3250022341
   65      N      -3.2058567645    -1.3124616027     0.8811709248
   66      N      -2.6425281456    -5.2375745360     0.1263760335
   67      C      -3.9596496903    -3.5093613233     0.8764973090
   68      C      -4.2469691381    -2.1406808325     1.1620533436
   69      S      -4.0797188871    -5.8861467006     0.6500008226
   70      N      -4.8178751050    -4.5472815931     1.2686983430
   71      C      -5.5075650026    -1.5480238377     1.7301913134
   72      S      -7.1265676964    -2.3266338858     1.7988693333
   73      C      -5.6423792869    -0.2159872323     2.0847792302
   74      C      -7.9237099777    -0.8368644003     2.2291669784
   75      S      -4.4623323549     0.9920295826     2.2119114960
   76      C      -6.9929880249     0.2008120250     2.3646781694
   77      C      -9.3675414162    -0.7074816559     2.3171094741
   78      C      -5.7468716848     2.1361774140     2.5469002268
   79      C      -7.0070471896     1.5904583705     2.5748004539
   80      N      -9.8162395917     0.4139544370     2.8164811161
   81      S     -10.4818202466    -2.0366269566     2.1999495068
   82      C     -11.1413337733     0.3217597815     3.0907939948
   83      C     -11.6942729906    -0.9129203270     2.7319831092
   84      C       3.0789511191    -3.9371958113    -2.8563791016
   85      H       2.1090813467    -5.4148308292    -0.8326930147
   86      H      -0.0629964078    -5.0238446305     0.4171689860
   87      H      -0.6256032934    -1.5957971692    -2.1479583199
   88      H      -1.3581871580    -0.8612482390     0.1286933334
   89      H      -5.4507642550     3.1549916284     2.7607926918
   90      H      -7.8644913124     2.2370133540     2.7219779981
   91      H     -11.7104058979     1.2056902679     3.3486036381
   92      H     -12.7356281880    -1.1961681786     2.6535228808
   93      H       3.6394225304    -3.0195019542    -2.6367981785
   94      C       2.8630813444    -4.1796392392    -4.3913772856
   95      H       3.7741210688    -4.7142830568    -2.5132695653
   96      H       2.3863255968    -3.3034773335    -4.8489964198
   97      H       2.2169133737    -5.0439856380    -4.5851871317
   98      C       4.2438327259    -4.4357104647    -5.0349517955
   99      H       4.9306312798    -3.6154745188    -4.7957390457
  100      C       4.0328529740    -4.4150855412    -6.5968782204
  101      H       4.7367148129    -5.3669620762    -4.7306104009
  102      H       3.6773910381    -3.4171216182    -6.8818761513
  103      H       3.3037498767    -5.1658463854    -6.9246659997
  104      C       5.4063064755    -4.6663644165    -7.2758048777
  105      H       6.1500775882    -3.9388125125    -6.9289594381
  106      C       5.3148006933    -4.6635514543    -8.7817875400
  107      H       5.7301785980    -5.6859070384    -7.0324415891
  108      H       4.5758626677    -5.3563090915    -9.2021652873
  109      H       6.2673565165    -4.8715090668    -9.2837158566
  110      H       5.1617991122    -3.6452073814    -9.1614292993
 ----------------------------------------------------------------

   10   -5663.5221657521      5.09E-06 Convergence criterion met
 Total energy in the final basis set = -5663.5221657521

                    Orbital Energies (a.u.)
 --------------------------------------------------------------

 Alpha MOs
 -- Occupied --
-88.987 -88.982 -88.931 -88.926 -88.925 -88.924 -88.908 -88.908
-14.394 -14.382 -14.382 -14.381 -14.346 -14.343 -14.342 -14.342
-14.332 -14.326 -10.272 -10.269 -10.268 -10.256 -10.255 -10.254
-10.250 -10.247 -10.246 -10.243 -10.238 -10.238 -10.235 -10.234
-10.234 -10.234 -10.233 -10.233 -10.229 -10.229 -10.228 -10.226
-10.225 -10.225 -10.223 -10.222 -10.219 -10.219 -10.218 -10.212
-10.212 -10.212 -10.207 -10.207 -10.206 -10.194 -10.194 -10.191
-10.188 -10.185 -10.180 -10.177 -10.177 -10.175 -10.175 -10.174
-10.173 -10.173 -10.166 -10.165  -8.042  -8.037  -7.992  -7.985
 -7.984  -7.984  -7.969  -7.969  -6.007  -6.002  -6.002  -6.000
 -5.997  -5.995  -5.956  -5.953  -5.949  -5.949  -5.949  -5.948
 -5.945  -5.945  -5.945  -5.942  -5.941  -5.941  -5.934  -5.933
 -5.930  -5.929  -5.925  -5.925  -1.036  -1.034  -0.979  -0.972
 -0.959  -0.957  -0.955  -0.924  -0.920  -0.912  -0.905  -0.903
 -0.848  -0.845  -0.828  -0.825  -0.813  -0.808  -0.805  -0.804
 -0.802  -0.797  -0.797  -0.796  -0.788  -0.779  -0.767  -0.764
 -0.751  -0.745  -0.744  -0.741  -0.731  -0.723  -0.709  -0.709
 -0.692  -0.692  -0.673  -0.670  -0.651  -0.650  -0.647  -0.642
 -0.631  -0.630  -0.626  -0.621  -0.611  -0.609  -0.599  -0.597
 -0.595  -0.594  -0.583  -0.581  -0.577  -0.572  -0.572  -0.569
 -0.550  -0.544  -0.537  -0.537  -0.525  -0.525  -0.514  -0.511
 -0.507  -0.504  -0.502  -0.501  -0.494  -0.481  -0.479  -0.476
 -0.474  -0.473  -0.470  -0.465  -0.462  -0.459  -0.451  -0.447
 -0.444  -0.442  -0.441  -0.440  -0.439  -0.437  -0.432  -0.431
 -0.426  -0.424  -0.424  -0.422  -0.419  -0.416  -0.415  -0.411
 -0.411  -0.408  -0.407  -0.406  -0.404  -0.399  -0.397  -0.391
 -0.390  -0.388  -0.387  -0.386  -0.385  -0.384  -0.382  -0.381
 -0.377  -0.372  -0.369  -0.367  -0.366  -0.363  -0.357  -0.356
 -0.353  -0.352  -0.349  -0.348  -0.345  -0.344  -0.342  -0.341
 -0.338  -0.337  -0.333  -0.331  -0.330  -0.328  -0.324  -0.319
 -0.318  -0.314  -0.314  -0.312  -0.305  -0.299  -0.298  -0.295
 -0.295  -0.295  -0.293  -0.292  -0.289  -0.287  -0.287  -0.281
 -0.269  -0.267  -0.265  -0.260  -0.253  -0.252  -0.252  -0.252
 -0.247  -0.245  -0.234  -0.233  -0.196  -0.192

          Ground-State Mulliken Net Atomic Charges

     Atom                 Charge (a.u.)
  ----------------------------------------
      1 C                     0.279262
      2 C                    -0.102889
      3 N                    -0.496276
      4 C                    -0.066899
      5 C                     0.090920
      6 C                     0.016112
      7 C                     0.017557
      8 C                     0.047487
      9 C                     0.232021
     10 N                    -0.499726
     11 N                    -0.550718
     12 C                     0.198556
     13 C                     0.264313
     14 S                     0.621244
     15 N                    -0.549917
     16 C                    -0.208987
     17 S                     0.352653
     18 C                    -0.086401
     19 C                    -0.205050
     20 S                     0.245308
     21 C                     0.128117
     22 C                     0.067067
     23 C                    -0.297462
     24 C                    -0.086874
     25 N                    -0.409058
     26 S                     0.242710
     27 C                     0.105044
     28 C                    -0.294663
     29 C                    -0.245404
     30 H                     0.083109
     31 H                     0.100757
     32 H                     0.109137
     33 H                     0.118384
     34 H                     0.133980
     35 H                     0.114273
     36 H                     0.106347
     37 H                     0.141841
     38 H                     0.103069
     39 C                    -0.175110
     40 H                     0.116044
     41 H                     0.102177
     42 H                     0.119745
     43 C                    -0.176259
     44 H                     0.088494
     45 C                    -0.177649
     46 H                     0.088366
     47 H                     0.091475
     48 H                     0.093612
     49 C                    -0.173175
     50 H                     0.093316
     51 C                    -0.320189
     52 H                     0.091601
     53 H                     0.100512
     54 H                     0.101020
     55 H                     0.101972
     56 C                     0.274214
     57 C                    -0.115006
     58 N                    -0.478733
     59 C                    -0.061039
     60 C                     0.086252
     61 C                     0.022148
     62 C                    -0.022235
     63 C                     0.071958
     64 C                     0.304171
     65 N                    -0.526793
     66 N                    -0.571750
     67 C                     0.124152
     68 C                     0.319424
     69 S                     0.591936
     70 N                    -0.532273
     71 C                    -0.207788
     72 S                     0.310723
     73 C                    -0.117167
     74 C                    -0.246658
     75 S                     0.296174
     76 C                     0.173033
     77 C                     0.076123
     78 C                    -0.308688
     79 C                    -0.062283
     80 N                    -0.424206
     81 S                     0.277493
     82 C                     0.123207
     83 C                    -0.316009
     84 C                    -0.233409
     85 H                     0.089310
     86 H                     0.115875
     87 H                     0.099459
     88 H                     0.122765
     89 H                     0.124071
     90 H                     0.122184
     91 H                     0.117054
     92 H                     0.135834
     93 H                     0.119205
     94 C                    -0.170790
     95 H                     0.096697
     96 H                     0.119534
     97 H                     0.096116
     98 C                    -0.183702
     99 H                     0.095218
    100 C                    -0.172357
    101 H                     0.091635
    102 H                     0.095273
    103 H                     0.090725
    104 C                    -0.171794
    105 H                     0.092909
    106 C                    -0.320007
    107 H                     0.091513
    108 H                     0.100836
    109 H                     0.093266
    110 H                     0.097306
  ----------------------------------------
  Sum of atomic charges =     0.000000

                    Cartesian Multipole Moments
 -----------------------------------------------------------------
    Charge (ESU x 10^10)
                 0.0000
    Dipole Moment (Debye)
         X      -1.6927      Y      -3.2603      Z       2.7728
       Tot       4.6026
    Quadrupole Moments (Debye-Ang)
        XX    -380.5130     XY     -23.8155     YY    -423.8982
        XZ       4.6659     YZ       2.1191     ZZ    -452.5731

 Total job time:  92.59s(wall), 1023.45s(cpu)
        *  Thank you very much for using Q-Chem.  Have a nice day.  *
