 Q-Chem 4.4, Q-Chem, Inc., Pleasanton, CA (2016)
 Q-Chem 4.4.2 for Intel X86 Linux

User input:
--------------------------------------------------------------
$comment
SP
$end

$rem
MEM_STATIC 5000
MEM_TOTAL 20000
JOBTYPE SP
EXCHANGE B3LYP
BASIS 6-31g(d,p)
$end

$molecule
0 1
C          13.860000     19.931000     15.414000
C          12.597000     19.817000     14.952000
N          14.906000     19.745000     14.682000
C          12.385000     19.620000     13.568000
C          14.699000     19.581000     13.329000
C          13.426000     19.576000     12.686000
C          13.187000     19.459000     11.158000
C          12.071000     18.781000     10.642000
C          13.919000     20.181000     10.163000
N          11.875000     18.528000      9.309000
N          14.840000     21.064000     10.479000
C          13.742000     19.948000      8.838000
C          12.688000     19.150000      8.405000
S          15.585000     21.498000      9.069000
N          14.620000     20.641000      8.020000
C          12.286000     19.006000      7.021000
S          12.880000     19.921000      5.674000
C          11.366000     18.060000      6.609000
C          11.935000     19.003000      4.509000
S          10.430000     16.760000      7.412000
C          11.186000     18.068000      5.219000
C          11.724000     19.355000      3.128000
C           9.879000     16.201000      5.824000
C          10.237000     17.106000      4.799000
N          10.576000     19.159000      2.489000
S          12.940000     20.238000      2.246000
C          10.688000     19.676000      1.182000
C          11.862000     20.347000      0.896000
C          14.160000     19.880000     16.904000
H          11.761000     19.898000     15.640000
H          11.370000     19.472000     13.211000
H          15.492000     19.378000     12.610000
H          11.416000     18.208000     11.296000
H           9.311000     15.280000      5.794000
H           9.828000     17.032000      3.798000
H           9.883000     19.582000      0.465000
H          12.217000     20.717000     -0.057000
H          14.982000     20.532000     17.223000
C          14.584000     18.396000     17.390000
H          13.252000     20.216000     17.419000
H          15.489000     18.088000     16.852000
H          13.818000     17.692000     17.042000
C          14.743000     18.270000     18.907000
H          15.490000     18.965000     19.311000
C          15.058000     16.841000     19.440000
H          13.792000     18.527000     19.391000
H          15.351000     16.915000     20.495000
H          15.998000     16.518000     18.977000
C          13.912000     15.828000     19.324000
H          13.073000     16.165000     19.946000
C          14.331000     14.468000     19.896000
H          13.547000     15.839000     18.290000
H          15.390000     14.317000     19.655000
H          13.784000     13.682000     19.361000
H          14.145000     14.391000     20.974000
C           7.345000     20.227000     -2.659000
C           7.792000     20.765000     -1.496000
N           6.259000     19.424000     -2.718000
C           7.084000     20.518000     -0.311000
C           5.601000     19.176000     -1.655000
C           5.989000     19.602000     -0.398000
C           5.204000     19.332000      0.869000
C           3.799000     19.478000      0.810000
C           5.755000     18.983000      2.095000
N           3.038000     19.098000      1.825000
N           7.040000     18.929000      2.324000
C           4.906000     18.589000      3.108000
C           3.482000     18.603000      3.011000
S           7.157000     18.345000      3.875000
N           5.567000     18.300000      4.311000
C           2.470000     18.169000      4.036000
S           2.770000     17.127000      5.470000
C           1.103000     18.337000      3.890000
C           1.068000     16.903000      5.775000
S           0.242000     19.226000      2.734000
C           0.301000     17.630000      4.856000
C           0.557000     15.992000      6.784000
C          -1.238000     18.603000      3.436000
C          -1.055000     17.773000      4.515000
N          -0.727000     16.055000      7.020000
S           1.546000     15.155000      7.943000
C          -1.044000     15.362000      8.142000
C           0.057000     14.726000      8.727000
C           7.988000     20.594000     -3.973000
H           8.647000     21.433000     -1.507000
H           7.430000     20.886000      0.650000
H           4.679000     18.609000     -1.778000
H           3.265000     19.791000     -0.086000
H          -2.168000     18.959000      3.012000
H          -1.915000     17.301000      4.976000
H          -2.079000     15.166000      8.391000
H           0.075000     13.965000      9.496000
H           7.219000     21.133000     -4.541000
C           8.523000     19.317000     -4.711000
H           8.813000     21.318000     -3.966000
H           7.688000     18.656000     -4.976000
H           9.214000     18.739000     -4.086000
C           9.268000     19.776000     -5.984000
H           8.618000     20.415000     -6.593000
C           9.564000     18.482000     -6.834000
H          10.195000     20.335000     -5.808000
H           8.605000     18.030000     -7.116000
H          10.159000     17.749000     -6.276000
C          10.311000     18.910000     -8.126000
H           9.737000     19.667000     -8.674000
C          10.641000     17.738000     -9.017000
H          11.292000     19.310000     -7.841000
H          11.201000     16.930000     -8.531000
H          11.198000     18.012000     -9.921000
H           9.737000     17.353000     -9.506000
$end

--------------------------------------------------------------

             Standard Nuclear Orientation (Angstroms)
    I     Atom           X                Y                Z
 ----------------------------------------------------------------
    1      C      11.0181551092    -0.3702290219    -1.4328260843
    2      C      10.0175999732     0.5310742176    -1.5231083651
    3      N      10.8679687971    -1.5551023099    -0.9449169093
    4      C       8.7000495586     0.1321818089    -1.2003782127
    5      C       9.5796103920    -1.9521568210    -0.6571073628
    6      C       8.4130284356    -1.1506661862    -0.8323280852
    7      C       6.9545245383    -1.6110118643    -0.5745641656
    8      C       5.9842103895    -0.7245773075    -0.0804789208
    9      C       6.4105753399    -2.8644296868    -0.9990591971
   10      N       4.7200366185    -1.1005684484     0.2934319492
   11      N       7.1095082661    -3.7236918093    -1.7068355527
   12      C       5.1620993316    -3.2579043708    -0.6416681929
   13      C       4.2960308609    -2.3581035013    -0.0288935203
   14      S       6.2100519686    -5.1073066907    -1.7966644395
   15      N       4.8434716943    -4.5492596797    -1.0304289097
   16      C       2.8881887112    -2.6067469375     0.2033841648
   17      S       1.9658176238    -3.9479979269    -0.3922225517
   18      C       2.1060172114    -1.7767523860     0.9846503098
   19      C       0.5072755164    -3.4450784398     0.4519935998
   20      S       2.3933999552    -0.2963383449     1.9524779937
   21      C       0.7951038939    -2.2551661892     1.1157628828
   22      C      -0.8155695868    -3.9756136097     0.2417573839
   23      C       0.7418115427    -0.4098531021     2.5827129623
   24      C      -0.0075361128    -1.4000716325     1.9076134487
   25      N      -1.9168287372    -3.2335738973     0.2770610517
   26      S      -1.0343786189    -5.6317316243    -0.2538883861
   27      C      -3.0248163492    -4.0473476322    -0.0363360764
   28      C      -2.7344674808    -5.3458815162    -0.4102615860
   29      C      12.4744436625     0.0609732975    -1.5102160676
   30      H      10.2294843894     1.5410851712    -1.8604270094
   31      H       7.9094229508     0.8765619455    -1.2200194800
   32      H       9.3220016802    -2.9099817547    -0.2062990356
   33      H       6.2613674991     0.2721366976     0.2583648908
   34      H       0.4619650032     0.2855214541     3.3636772002
   35      H      -1.0819302489    -1.4857167609     2.0220693453
   36      H      -4.0349022473    -3.6595328500    -0.0197176141
   37      H      -3.4135246590    -6.1720691004    -0.5758798953
   38      H      13.1329384145    -0.6563896484    -2.0145215954
   39      C      13.1255284852     0.2750100675    -0.0444381804
   40      H      12.4959218640     0.9928515474    -2.0879068276
   41      H      13.0819217631    -0.6714737159     0.5083727290
   42      H      12.4686245831     0.9436826869     0.5255005806
   43      C      14.5403776305     0.8574882006    -0.0814127750
   44      H      15.2378650948     0.2327007117    -0.6536031549
   45      C      15.1807420427     1.1731334842     1.3026596488
   46      H      14.5154726949     1.8312021964    -0.5873443895
   47      H      16.2481360570     1.3828086143     1.1575515584
   48      H      15.2200004335     0.2342749736     1.8677273224
   49      C      14.5542440215     2.3475000559     2.0650928490
   50      H      14.7025792708     3.2685074338     1.4870651129
   51      C      15.2769287079     2.5750142033     3.3986254346
   52      H      13.4701621708     2.1886676976     2.1102683187
   53      H      15.5654047377     1.5934260560     3.7931242170
   54      H      14.5594788482     2.9906598437     4.1167719379
   55      H      16.1413400303     3.2424226763     3.2987855832
   56      C      -7.9955040230    -3.0553366563    -0.7716654407
   57      C      -6.7674345894    -3.0404483406    -1.3491131044
   58      N      -8.5466872415    -1.9571215423    -0.2079220389
   59      C      -6.0518750572    -1.8357150030    -1.4047021430
   60      C      -7.9151726614    -0.8504191811    -0.2368394878
   61      C      -6.6302622285    -0.7152880642    -0.7296008506
   62      C      -5.8782867176     0.5982613656    -0.7890544146
   63      C      -6.5942420809     1.7417273170    -1.2118020174
   64      C      -4.5320805760     0.7660251117    -0.4923014029
   65      N      -6.0515498124     2.9467821793    -1.1276956523
   66      N      -3.7241033497    -0.2194719847    -0.2049857667
   67      C      -4.0323810769     2.0490396876    -0.4124264467
   68      C      -4.7887790251     3.2233311608    -0.7061655825
   69      S      -2.2920275017     0.5247140275     0.1895924194
   70      N      -2.6555768977     2.0975495265    -0.1484036305
   71      C      -4.3546464422     4.6612628838    -0.6224621757
   72      S      -2.9325675212     5.3055847465     0.2689753598
   73      C      -5.1297794888     5.7273431532    -1.0477510415
   74      C      -3.4616660301     6.9581338346     0.0982671902
   75      S      -6.5685105674     5.7273295555    -1.9410767846
   76      C      -4.6446051602     7.0240423842    -0.6485193105
   77      C      -2.7983935950     8.0737972136     0.7497945509
   78      C      -6.6367801295     7.4656562180    -1.7291978536
   79      C      -5.5861704422     7.9981933652    -1.0226191447
   80      N      -3.1958942161     9.2673315986     0.3951257926
   81      S      -1.2975321237     7.9528411267     1.6185611875
   82      C      -2.3449292030    10.2153737244     0.8606326929
   83      C      -1.3006862541     9.6894120115     1.6299459843
   84      C      -8.8572954113    -4.2917417305    -0.8295627244
   85      H      -6.3847134019    -3.9397597876    -1.8204234204
   86      H      -5.0469363014    -1.7849432434    -1.8123555810
   87      H      -8.4491866261     0.0212402828     0.1396453918
   88      H      -7.6408209371     1.7178297617    -1.5118730166
   89      H      -7.4541945461     7.9853866311    -2.2120290551
   90      H      -5.5773363304     9.0588695741    -0.7994758316
   91      H      -2.6097296053    11.2635270741     0.8068060967
   92      H      -0.6022688487    10.2061909690     2.2748945381
   93      H      -9.7287036829    -4.0195475345    -1.4387129062
   94      C      -9.2367109383    -4.7783291611     0.6129609427
   95      H      -8.4736840951    -5.1706246446    -1.3636574550
   96      H      -9.8535605124    -4.0231364431     1.1164999796
   97      H      -8.3511632121    -4.9483454676     1.2367314776
   98      C     -10.0157122890    -6.1057779173     0.4815391215
   99      H     -10.8687734126    -5.9783572654    -0.1950351146
  100      C     -10.6062106207    -6.4340649599     1.9056498398
  101      H      -9.4324734757    -6.9557449099     0.1071401388
  102      H     -11.2996542283    -5.6305125658     2.1830457897
  103      H      -9.8225947367    -6.5148220875     2.6686062164
  104      C     -11.4005536552    -7.7643917668     1.8071271000
  105      H     -12.1658271145    -7.7028890624     1.0239266467
  106      C     -12.0130723014    -8.1698239772     3.1250082140
  107      H     -10.6933064170    -8.5729402752     1.5843342509
  108      H     -11.3082964722    -8.2351813261     3.9626713011
  109      H     -12.5523081265    -9.1239644991     3.0878384740
  110      H     -12.8642205000    -7.5235412178     3.3748628495
 ----------------------------------------------------------------

   11   -5663.5360539058      7.32E-06 Convergence criterion met
 Total energy in the final basis set = -5663.5360539058

                    Orbital Energies (a.u.)
 --------------------------------------------------------------

 Alpha MOs
 -- Occupied --
-88.993 -88.979 -88.932 -88.928 -88.926 -88.922 -88.914 -88.904
-14.395 -14.386 -14.383 -14.374 -14.355 -14.351 -14.340 -14.338
-14.329 -14.323 -10.273 -10.265 -10.264 -10.264 -10.256 -10.255
-10.250 -10.244 -10.244 -10.244 -10.243 -10.243 -10.240 -10.234
-10.234 -10.233 -10.233 -10.233 -10.232 -10.231 -10.231 -10.231
-10.225 -10.224 -10.219 -10.219 -10.219 -10.215 -10.215 -10.211
-10.210 -10.210 -10.209 -10.209 -10.202 -10.195 -10.193 -10.191
-10.185 -10.185 -10.182 -10.180 -10.178 -10.177 -10.177 -10.176
-10.176 -10.174 -10.172 -10.167  -8.048  -8.034  -7.991  -7.989
 -7.988  -7.981  -7.973  -7.965  -6.013  -6.008  -6.006  -5.999
 -5.993  -5.991  -5.955  -5.953  -5.952  -5.951  -5.950  -5.948
 -5.948  -5.947  -5.946  -5.945  -5.942  -5.938  -5.937  -5.934
 -5.929  -5.929  -5.926  -5.922  -1.039  -1.028  -0.977  -0.966
 -0.957  -0.957  -0.951  -0.950  -0.915  -0.908  -0.904  -0.898
 -0.846  -0.845  -0.834  -0.824  -0.815  -0.810  -0.810  -0.807
 -0.802  -0.800  -0.799  -0.795  -0.786  -0.782  -0.768  -0.765
 -0.749  -0.749  -0.742  -0.742  -0.728  -0.719  -0.709  -0.707
 -0.696  -0.689  -0.679  -0.668  -0.656  -0.649  -0.649  -0.643
 -0.640  -0.632  -0.628  -0.622  -0.611  -0.609  -0.600  -0.596
 -0.594  -0.591  -0.587  -0.581  -0.581  -0.580  -0.573  -0.562
 -0.553  -0.546  -0.543  -0.533  -0.523  -0.520  -0.514  -0.513
 -0.507  -0.505  -0.503  -0.498  -0.492  -0.492  -0.479  -0.476
 -0.474  -0.473  -0.468  -0.465  -0.459  -0.458  -0.450  -0.448
 -0.447  -0.443  -0.441  -0.439  -0.437  -0.434  -0.433  -0.429
 -0.429  -0.425  -0.421  -0.421  -0.420  -0.418  -0.417  -0.415
 -0.414  -0.408  -0.407  -0.406  -0.404  -0.401  -0.400  -0.396
 -0.394  -0.389  -0.389  -0.387  -0.386  -0.385  -0.383  -0.379
 -0.378  -0.375  -0.374  -0.371  -0.365  -0.360  -0.358  -0.354
 -0.353  -0.351  -0.348  -0.348  -0.347  -0.345  -0.344  -0.341
 -0.341  -0.338  -0.336  -0.333  -0.332  -0.331  -0.329  -0.319
 -0.315  -0.315  -0.313  -0.312  -0.304  -0.302  -0.301  -0.300
 -0.294  -0.292  -0.291  -0.290  -0.288  -0.286  -0.286  -0.285
 -0.282  -0.267  -0.265  -0.257  -0.256  -0.253  -0.251  -0.250
 -0.249  -0.241  -0.235  -0.229  -0.199  -0.189

          Ground-State Mulliken Net Atomic Charges

     Atom                 Charge (a.u.)
  ----------------------------------------
      1 C                     0.278106
      2 C                    -0.110188
      3 N                    -0.481522
      4 C                    -0.089345
      5 C                     0.084861
      6 C                     0.061308
      7 C                     0.028904
      8 C                     0.049486
      9 C                     0.243846
     10 N                    -0.527146
     11 N                    -0.554184
     12 C                     0.223659
     13 C                     0.303208
     14 S                     0.604523
     15 N                    -0.570194
     16 C                    -0.238276
     17 S                     0.347765
     18 C                    -0.099394
     19 C                    -0.233465
     20 S                     0.287011
     21 C                     0.155599
     22 C                     0.065475
     23 C                    -0.317618
     24 C                    -0.073271
     25 N                    -0.439128
     26 S                     0.266384
     27 C                     0.103942
     28 C                    -0.301838
     29 C                    -0.221077
     30 H                     0.090769
     31 H                     0.093043
     32 H                     0.102646
     33 H                     0.113449
     34 H                     0.139192
     35 H                     0.125805
     36 H                     0.126952
     37 H                     0.138834
     38 H                     0.111617
     39 C                    -0.169680
     40 H                     0.083421
     41 H                     0.114456
     42 H                     0.090311
     43 C                    -0.180144
     44 H                     0.088847
     45 C                    -0.180678
     46 H                     0.087336
     47 H                     0.086983
     48 H                     0.089140
     49 C                    -0.173833
     50 H                     0.092950
     51 C                    -0.320543
     52 H                     0.096791
     53 H                     0.105332
     54 H                     0.100972
     55 H                     0.108205
     56 C                     0.273556
     57 C                    -0.124737
     58 N                    -0.473406
     59 C                    -0.066183
     60 C                     0.088334
     61 C                     0.021624
     62 C                    -0.022442
     63 C                     0.072471
     64 C                     0.303392
     65 N                    -0.528383
     66 N                    -0.575456
     67 C                     0.121352
     68 C                     0.317620
     69 S                     0.613503
     70 N                    -0.539577
     71 C                    -0.207564
     72 S                     0.309888
     73 C                    -0.117017
     74 C                    -0.247191
     75 S                     0.293954
     76 C                     0.172965
     77 C                     0.076325
     78 C                    -0.308162
     79 C                    -0.062967
     80 N                    -0.424287
     81 S                     0.274947
     82 C                     0.122865
     83 C                    -0.316037
     84 C                    -0.228021
     85 H                     0.085649
     86 H                     0.122083
     87 H                     0.095355
     88 H                     0.117533
     89 H                     0.124358
     90 H                     0.121319
     91 H                     0.115976
     92 H                     0.134336
     93 H                     0.117692
     94 C                    -0.170545
     95 H                     0.092151
     96 H                     0.121272
     97 H                     0.093286
     98 C                    -0.183018
     99 H                     0.094357
    100 C                    -0.171960
    101 H                     0.089745
    102 H                     0.095486
    103 H                     0.090529
    104 C                    -0.171551
    105 H                     0.092284
    106 C                    -0.319825
    107 H                     0.091053
    108 H                     0.101019
    109 H                     0.093222
    110 H                     0.097220
  ----------------------------------------
  Sum of atomic charges =     0.000000

                    Cartesian Multipole Moments
 -----------------------------------------------------------------
    Charge (ESU x 10^10)
                 0.0000
    Dipole Moment (Debye)
         X       0.3227      Y       0.0918      Z       0.2646
       Tot       0.4273
    Quadrupole Moments (Debye-Ang)
        XX    -457.0665     XY      27.1935     YY    -395.4217
        XZ       7.4290     YZ      16.2110     ZZ    -444.9333

 Total job time:  98.95s(wall), 1147.03s(cpu)
        *  Thank you very much for using Q-Chem.  Have a nice day.  *
