 Q-Chem 4.4, Q-Chem, Inc., Pleasanton, CA (2016)
 Q-Chem 4.4.2 for Intel X86 Linux

User input:
--------------------------------------------------------------
$comment
SP
$end

$rem
MEM_STATIC 5000
MEM_TOTAL 20000
JOBTYPE SP
EXCHANGE B3LYP
BASIS 6-31g(d,p)
$end

$molecule
0 1
C          11.911000     29.351000      6.157000
C          12.056000     28.170000      5.304000
N          11.005000     29.388000      7.152000
C          11.243000     27.078000      5.494000
C          10.290000     28.261000      7.443000
C          10.364000     27.099000      6.634000
C           9.473000     25.908000      6.884000
C           8.742000     25.257000      5.873000
C           9.025000     25.402000      8.187000
N           7.804000     24.296000      5.977000
N           9.486000     25.922000      9.353000
C           8.096000     24.390000      8.365000
C           7.444000     23.883000      7.175000
S           8.700000     25.089000     10.507000
N           7.746000     24.126000      9.622000
C           6.360000     22.898000      7.286000
S           6.078000     21.820000      8.643000
C           5.472000     22.614000      6.238000
C           4.763000     20.984000      7.833000
S           5.182000     23.423000      4.718000
C           4.666000     21.554000      6.546000
C           3.904000     20.018000      8.408000
C           4.080000     22.038000      4.320000
C           3.898000     21.209000      5.407000
N           2.861000     19.578000      7.697000
S           4.194000     19.187000      9.891000
C           2.209000     18.614000      8.401000
C           2.785000     18.218000      9.567000
C          12.694000     30.660000      5.900000
H          12.797000     28.182000      4.511000
H          11.141000     26.201000      4.861000
H           9.699000     28.415000      8.344000
H           8.889000     25.606000      4.852000
H           3.606000     22.053000      3.347000
H           3.207000     20.375000      5.347000
H           1.318000     18.211000      7.938000
H           2.480000     17.427000     10.239000
H          12.892000     31.153000      6.859000
C          12.000000     31.674000      5.017000
H          13.581000     30.342000      5.339000
H          10.938000     31.610000      5.287000
H          12.083000     31.322000      3.981000
C          12.620000     33.040000      5.142000
H          12.514000     33.406000      6.170000
C          11.935000     34.138000      4.273000
H          13.693000     33.079000      4.916000
H          11.992000     33.821000      3.225000
H          12.412000     35.125000      4.322000
C          10.354000     34.246000      4.536000
H           9.934000     33.237000      4.435000
C           9.839000     35.311000      3.571000
H          10.233000     34.683000      5.535000
H          10.495000     36.172000      3.392000
H           8.949000     35.788000      4.000000
H           9.571000     34.869000      2.604000
C           7.345000     20.227000     -2.659000
C           7.792000     20.765000     -1.496000
N           6.259000     19.424000     -2.718000
C           7.084000     20.518000     -0.311000
C           5.601000     19.176000     -1.655000
C           5.989000     19.602000     -0.398000
C           5.204000     19.332000      0.869000
C           3.799000     19.478000      0.810000
C           5.755000     18.983000      2.095000
N           3.038000     19.098000      1.825000
N           7.040000     18.929000      2.324000
C           4.906000     18.589000      3.108000
C           3.482000     18.603000      3.011000
S           7.157000     18.345000      3.875000
N           5.567000     18.300000      4.311000
C           2.470000     18.169000      4.036000
S           2.770000     17.127000      5.470000
C           1.103000     18.337000      3.890000
C           1.068000     16.903000      5.775000
S           0.242000     19.226000      2.734000
C           0.301000     17.630000      4.856000
C           0.557000     15.992000      6.784000
C          -1.238000     18.603000      3.436000
C          -1.055000     17.773000      4.515000
N          -0.727000     16.055000      7.020000
S           1.546000     15.155000      7.943000
C          -1.044000     15.362000      8.142000
C           0.057000     14.726000      8.727000
C           7.988000     20.594000     -3.973000
H           8.647000     21.433000     -1.507000
H           7.430000     20.886000      0.650000
H           4.679000     18.609000     -1.778000
H           3.265000     19.791000     -0.086000
H          -2.168000     18.959000      3.012000
H          -1.915000     17.301000      4.976000
H          -2.079000     15.166000      8.391000
H           0.075000     13.965000      9.496000
H           7.219000     21.133000     -4.541000
C           8.523000     19.317000     -4.711000
H           8.813000     21.318000     -3.966000
H           7.688000     18.656000     -4.976000
H           9.214000     18.739000     -4.086000
C           9.268000     19.776000     -5.984000
H           8.618000     20.415000     -6.593000
C           9.564000     18.482000     -6.834000
H          10.195000     20.335000     -5.808000
H           8.605000     18.030000     -7.116000
H          10.159000     17.749000     -6.276000
C          10.311000     18.910000     -8.126000
H           9.737000     19.667000     -8.674000
C          10.641000     17.738000     -9.017000
H          11.292000     19.310000     -7.841000
H          11.201000     16.930000     -8.531000
H          11.198000     18.012000     -9.921000
H           9.737000     17.353000     -9.506000
$end

--------------------------------------------------------------

             Standard Nuclear Orientation (Angstroms)
    I     Atom           X                Y                Z
 ----------------------------------------------------------------
    1      C       9.6806810197    -0.7482300359    -0.8496524679
    2      C       8.7098929717     0.2125242765    -1.3768305374
    3      N       9.2966284025    -1.9623844114    -0.4131175441
    4      C       7.3732482485    -0.1063593620    -1.4118606537
    5      C       7.9953402553    -2.3459315253    -0.5730418055
    6      C       7.0045666555    -1.4494002025    -1.0471728644
    7      C       5.5483074316    -1.8391944272    -1.0944119936
    8      C       4.5094083953    -1.0295626268    -0.5989645796
    9      C       5.0017451639    -3.1652307538    -1.4065759696
   10      N       3.2027703121    -1.3145203196    -0.4387240330
   11      N       5.7960792263    -4.1891118007    -1.8105289362
   12      C       3.6649952023    -3.5135080376    -1.3032731449
   13      C       2.7723010053    -2.5233314903    -0.7367923634
   14      S       4.7772757615    -5.4418892138    -2.0002372738
   15      N       3.3683231008    -4.7890019115    -1.5427434811
   16      C       1.3648729370    -2.8551567407    -0.4786446620
   17      S       0.4450178739    -4.1331678692    -1.2555688657
   18      C       0.5370184207    -2.0887431920     0.3548846849
   19      C      -1.0543072182    -3.6678530038    -0.4683412340
   20      S       0.9002126251    -0.7972165207     1.4724847148
   21      C      -0.7584091052    -2.5208964026     0.2982178711
   22      C      -2.2771932009    -4.3782087728    -0.5084230839
   23      C      -0.8939690797    -0.6134043590     1.6678256972
   24      C      -1.5778223928    -1.6274965617     1.0307262932
   25      N      -3.2889978211    -3.9638496478     0.2606854430
   26      S      -2.6619401617    -5.6325083578    -1.6276426009
   27      C      -4.3824805510    -4.7372482215     0.0236914227
   28      C      -4.2783298374    -5.6455821410    -0.9824050536
   29      C      11.1730745166    -0.3936823172    -0.6504626950
   30      H       9.0607413958     1.1819561240    -1.7162142089
   31      H       6.5351001434     0.5458559414    -1.6406508457
   32      H       7.8751500618    -3.3896470116    -0.2884187194
   33      H       4.7844260600    -0.0454391341    -0.2225110827
   34      H      -1.2369953680     0.1748148066     2.3256049249
   35      H      -2.6568908132    -1.6959428240     1.1176944099
   36      H      -5.2557827612    -4.5184082965     0.6237841961
   37      H      -5.0381727014    -6.3033567402    -1.3827316685
   38      H      11.7788536599    -1.2942044021    -0.8054646444
   39      C      11.5382098739     0.1553334419     0.7114399693
   40      H      11.3552859592     0.4266635392    -1.3550517001
   41      H      10.9164646608    -0.4042400273     1.4221793186
   42      H      11.1986194755     1.1980809634     0.7494527001
   43      C      13.0218002589     0.0935192462     0.9586637036
   44      H      13.3593147512    -0.9495339289     0.9486616349
   45      C      13.4624595206     0.6242697853     2.3565597227
   46      H      13.6331865488     0.6166040548     0.2126643152
   47      H      13.1360418911     1.6677683427     2.4378265181
   48      H      14.5468260555     0.6273920062     2.5246027814
   49      C      12.6914212249    -0.0946175608     3.5686219860
   50      H      11.6159958392    -0.0296864149     3.3590362369
   51      C      13.1910910006     0.5798748272     4.8437945757
   52      H      13.0763385295    -1.1207615514     3.6184033002
   53      H      14.2506567673     0.8634619736     4.8682223588
   54      H      13.1259290035    -0.1298395966     5.6778984966
   55      H      12.5874218818     1.4631377484     5.0840178198
   56      C      -1.2065159170     7.1456972930     0.1364723653
   57      C      -0.4054647922     6.1189984608    -0.2456645256
   58      N      -2.4809139779     6.9589358019     0.5472225663
   59      C      -0.8950709402     4.8067318935    -0.1768148612
   60      C      -2.9546884924     5.7775029497     0.6119614666
   61      C      -2.2701786347     4.6541766722     0.1857533846
   62      C      -2.8141981946     3.2435091720     0.2778072943
   63      C      -3.4853452840     2.8790636354     1.4675816575
   64      C      -2.6797538093     2.2665389694    -0.6999104208
   65      N      -4.1299167645     1.7253302084     1.5522739590
   66      N      -1.9841868997     2.4259465289    -1.7941489251
   67      C      -3.3852685236     1.0904403687    -0.5541466754
   68      C      -4.1792968425     0.7685329679     0.5874643154
   69      S      -2.2559465615     1.0345117559    -2.6604063688
   70      N      -3.1420024821     0.1619094003    -1.5770361483
   71      C      -5.0078266669    -0.4626928601     0.8339319410
   72      S      -5.5653253898    -1.6484730978    -0.3970190742
   73      C      -5.6476637605    -0.7351968588     2.0316710880
   74      C      -6.6736240021    -2.4126882988     0.7109765543
   75      S      -5.5042259528     0.0367024120     3.5321960332
   76      C      -6.5890652917    -1.8247968351     1.9792874197
   77      C      -7.6162922844    -3.4405414204     0.3059858508
   78      C      -6.7801822003    -1.0055717273     4.1296349614
   79      C      -7.2614254785    -1.9060732912     3.2108684836
   80      N      -8.2607637171    -4.0435125962     1.2700415201
   81      S      -7.6450179656    -4.1828347197    -1.2656841187
   82      C      -8.9048645337    -5.1423155451     0.8037924263
   83      C      -8.7586057051    -5.3232547890    -0.5763493581
   84      C      -0.6663884482     8.5512513456     0.2225776661
   85      H       0.6220236561     6.3175598418    -0.5323888996
   86      H      -0.3092802698     3.9584514628    -0.5173006927
   87      H      -3.9488884478     5.6781176097     1.0460017906
   88      H      -3.6093302076     3.5497754089     2.3165306875
   89      H      -7.0464925241    -0.9033048556     5.1736810803
   90      H      -8.0885332122    -2.5524255244     3.4811028032
   91      H      -9.6221827214    -5.6622046592     1.4257344869
   92      H      -9.3040605029    -5.9824462008    -1.2387327411
   93      H      -0.7052540915     8.8210025560     1.2857003054
   94      C      -1.4874270224     9.5241792752    -0.6944310053
   95      H       0.3921151204     8.7189355997    -0.0147031509
   96      H      -2.5235572815     9.5937607264    -0.3395176244
   97      H      -1.5190318646     9.1809923402    -1.7353026889
   98      C      -0.8106592837    10.9120023369    -0.6478737587
   99      H      -0.7043899201    11.2463646609     0.3906880635
  100      C      -1.7897804663    11.9238390511    -1.3564358052
  101      H       0.1846630350    10.9630581335    -1.1055994271
  102      H      -2.7246969447    11.9548956404    -0.7833078381
  103      H      -2.0089737694    11.6305487271    -2.3901732389
  104      C      -1.1391907792    13.3331267068    -1.3232942517
  105      H      -0.8875541230    13.6208274021    -0.2953174508
  106      C      -2.0026032225    14.3829439207    -1.9780978637
  107      H      -0.2345222092    13.3102591804    -1.9434860402
  108      H      -2.3098298665    14.1548309261    -3.0058314142
  109      H      -1.5491651245    15.3812527982    -1.9958257005
  110      H      -2.8707619387    14.6211702504    -1.3503155293
 ----------------------------------------------------------------

   10   -5663.5357988409      3.76E-06 Convergence criterion met
 Total energy in the final basis set = -5663.5357988409

                    Orbital Energies (a.u.)
 --------------------------------------------------------------

 Alpha MOs
 -- Occupied --
-88.984 -88.984 -88.933 -88.925 -88.924 -88.924 -88.908 -88.904
-14.391 -14.387 -14.380 -14.379 -14.345 -14.345 -14.342 -14.335
-14.330 -14.321 -10.270 -10.267 -10.263 -10.260 -10.255 -10.253
-10.252 -10.247 -10.246 -10.242 -10.239 -10.237 -10.237 -10.237
-10.236 -10.235 -10.235 -10.228 -10.228 -10.228 -10.224 -10.223
-10.223 -10.222 -10.220 -10.219 -10.219 -10.218 -10.218 -10.216
-10.212 -10.209 -10.208 -10.208 -10.202 -10.194 -10.190 -10.188
-10.186 -10.183 -10.179 -10.178 -10.178 -10.177 -10.176 -10.176
-10.175 -10.174 -10.168 -10.166  -8.040  -8.039  -7.994  -7.985
 -7.984  -7.983  -7.969  -7.963  -6.005  -6.004  -6.000  -5.999
 -5.998  -5.997  -5.958  -5.955  -5.952  -5.949  -5.948  -5.948
 -5.946  -5.944  -5.944  -5.942  -5.941  -5.940  -5.933  -5.929
 -5.928  -5.925  -5.924  -5.919  -1.045  -1.033  -0.982  -0.969
 -0.961  -0.956  -0.953  -0.931  -0.912  -0.911  -0.906  -0.902
 -0.848  -0.840  -0.828  -0.825  -0.816  -0.808  -0.805  -0.805
 -0.805  -0.803  -0.796  -0.795  -0.787  -0.778  -0.767  -0.766
 -0.751  -0.748  -0.743  -0.736  -0.722  -0.722  -0.709  -0.708
 -0.693  -0.691  -0.672  -0.670  -0.649  -0.649  -0.644  -0.640
 -0.631  -0.630  -0.625  -0.623  -0.610  -0.609  -0.598  -0.597
 -0.594  -0.589  -0.584  -0.583  -0.579  -0.575  -0.571  -0.560
 -0.550  -0.550  -0.539  -0.536  -0.524  -0.520  -0.511  -0.510
 -0.505  -0.504  -0.501  -0.496  -0.492  -0.489  -0.478  -0.475
 -0.473  -0.472  -0.471  -0.466  -0.462  -0.459  -0.453  -0.449
 -0.444  -0.442  -0.440  -0.438  -0.435  -0.433  -0.430  -0.429
 -0.427  -0.424  -0.423  -0.421  -0.418  -0.418  -0.413  -0.413
 -0.411  -0.410  -0.406  -0.404  -0.403  -0.398  -0.395  -0.395
 -0.392  -0.389  -0.388  -0.387  -0.386  -0.384  -0.383  -0.381
 -0.381  -0.373  -0.371  -0.370  -0.364  -0.363  -0.358  -0.356
 -0.351  -0.350  -0.347  -0.347  -0.345  -0.344  -0.343  -0.341
 -0.339  -0.336  -0.336  -0.333  -0.330  -0.330  -0.327  -0.324
 -0.316  -0.314  -0.314  -0.309  -0.306  -0.301  -0.296  -0.294
 -0.293  -0.291  -0.291  -0.290  -0.289  -0.286  -0.284  -0.280
 -0.275  -0.268  -0.265  -0.260  -0.253  -0.251  -0.248  -0.247
 -0.243  -0.241  -0.231  -0.229  -0.193  -0.189

          Ground-State Mulliken Net Atomic Charges

     Atom                 Charge (a.u.)
  ----------------------------------------
      1 C                     0.255652
      2 C                    -0.130034
      3 N                    -0.477426
      4 C                    -0.057909
      5 C                     0.085936
      6 C                     0.025766
      7 C                     0.058267
      8 C                     0.034471
      9 C                     0.172788
     10 N                    -0.508227
     11 N                    -0.536652
     12 C                     0.218116
     13 C                     0.303493
     14 S                     0.593651
     15 N                    -0.550715
     16 C                    -0.235146
     17 S                     0.323205
     18 C                    -0.102473
     19 C                    -0.222368
     20 S                     0.258001
     21 C                     0.154034
     22 C                     0.064840
     23 C                    -0.323973
     24 C                    -0.051462
     25 N                    -0.433994
     26 S                     0.265195
     27 C                     0.134913
     28 C                    -0.316718
     29 C                    -0.212479
     30 H                     0.090420
     31 H                     0.106996
     32 H                     0.122859
     33 H                     0.098038
     34 H                     0.135553
     35 H                     0.138759
     36 H                     0.128476
     37 H                     0.135065
     38 H                     0.119481
     39 C                    -0.170122
     40 H                     0.092908
     41 H                     0.116538
     42 H                     0.088164
     43 C                    -0.177046
     44 H                     0.096414
     45 C                    -0.186685
     46 H                     0.090037
     47 H                     0.087164
     48 H                     0.087815
     49 C                    -0.175093
     50 H                     0.105388
     51 C                    -0.319986
     52 H                     0.096833
     53 H                     0.102613
     54 H                     0.095435
     55 H                     0.103410
     56 C                     0.273328
     57 C                    -0.116454
     58 N                    -0.474307
     59 C                    -0.061834
     60 C                     0.088160
     61 C                     0.019594
     62 C                    -0.020551
     63 C                     0.068112
     64 C                     0.308922
     65 N                    -0.530812
     66 N                    -0.572085
     67 C                     0.137156
     68 C                     0.318924
     69 S                     0.597384
     70 N                    -0.530373
     71 C                    -0.219067
     72 S                     0.328796
     73 C                    -0.113038
     74 C                    -0.270140
     75 S                     0.294296
     76 C                     0.181264
     77 C                     0.070512
     78 C                    -0.307284
     79 C                    -0.063555
     80 N                    -0.423272
     81 S                     0.270421
     82 C                     0.121930
     83 C                    -0.320972
     84 C                    -0.227549
     85 H                     0.087613
     86 H                     0.119822
     87 H                     0.093284
     88 H                     0.119515
     89 H                     0.126088
     90 H                     0.121930
     91 H                     0.118313
     92 H                     0.135330
     93 H                     0.116231
     94 C                    -0.170841
     95 H                     0.093814
     96 H                     0.119985
     97 H                     0.095514
     98 C                    -0.183299
     99 H                     0.093543
    100 C                    -0.171806
    101 H                     0.091061
    102 H                     0.094792
    103 H                     0.090751
    104 C                    -0.171626
    105 H                     0.091976
    106 C                    -0.319824
    107 H                     0.091475
    108 H                     0.100960
    109 H                     0.092889
    110 H                     0.096816
  ----------------------------------------
  Sum of atomic charges =     0.000000

                    Cartesian Multipole Moments
 -----------------------------------------------------------------
    Charge (ESU x 10^10)
                 0.0000
    Dipole Moment (Debye)
         X      -1.4789      Y      -0.8299      Z      -1.8533
       Tot       2.5121
    Quadrupole Moments (Debye-Ang)
        XX    -416.0470     XY      50.0258     YY    -428.0078
        XZ      -0.4827     YZ       8.2346     ZZ    -437.6413

 Total job time:  94.50s(wall), 1110.39s(cpu)
        *  Thank you very much for using Q-Chem.  Have a nice day.  *
