 Q-Chem 4.4, Q-Chem, Inc., Pleasanton, CA (2016)
 Q-Chem 4.4.2 for Intel X86 Linux

User input:
--------------------------------------------------------------
$comment
SP
$end

$rem
MEM_STATIC 5000
MEM_TOTAL 20000
JOBTYPE SP
EXCHANGE B3LYP
BASIS 6-31g(d,p)
$end

$molecule
0 1
C          10.156000     11.611000      8.023000
C          11.127000     11.146000      7.113000
N           9.064000     12.256000      7.586000
C          10.941000     11.285000      5.727000
C           8.947000     12.501000      6.252000
C           9.822000     12.070000      5.275000
C           9.529000     12.269000      3.921000
C           9.104000     13.501000      3.441000
C           9.681000     11.285000      2.873000
N           8.797000     13.836000      2.215000
N          10.109000     10.057000      3.107000
C           9.437000     11.653000      1.516000
C           8.951000     12.928000      1.217000
S          10.260000      9.422000      1.627000
N           9.683000     10.605000      0.668000
C           8.784000     13.394000     -0.202000
S           8.895000     12.355000     -1.706000
C           8.471000     14.722000     -0.470000
C           8.581000     13.863000     -2.689000
S           8.393000     16.068000      0.548000
C           8.285000     14.959000     -1.836000
C           8.891000     14.029000     -4.086000
C           8.138000     17.086000     -0.876000
C           8.169000     16.384000     -2.081000
N          10.058000     13.600000     -4.481000
S           7.843000     14.835000     -5.205000
C          10.160000     13.828000     -5.825000
C           9.128000     14.550000     -6.359000
C          10.300000     11.297000      9.486000
H          11.912000     10.529000      7.539000
H          11.698000     10.808000      5.112000
H           8.002000     12.976000      5.993000
H           9.084000     14.377000      4.089000
H           8.165000     18.149000     -0.679000
H           8.283000     16.872000     -3.043000
H          11.019000     13.678000     -6.466000
H           9.032000     14.979000     -7.347000
H           9.623000     10.474000      9.746000
C          10.036000     12.571000     10.385000
H          11.247000     10.794000      9.718000
H           9.987000     12.105000     11.376000
H           9.036000     13.002000     10.253000
C          11.213000     13.583000     10.199000
H          12.168000     13.134000     10.501000
C          11.053000     14.924000     10.977000
H          11.330000     13.747000      9.120000
H          10.171000     15.485000     10.642000
H          11.927000     15.527000     10.701000
C          10.984000     14.601000     12.547000
H          10.067000     14.045000     12.777000
C          11.154000     15.946000     13.310000
H          11.806000     13.939000     12.846000
H          11.213000     15.679000     14.372000
H          10.349000     16.687000     13.225000
H          12.059000     16.420000     12.910000
C           7.345000     20.227000     -2.659000
C           7.792000     20.765000     -1.496000
N           6.259000     19.424000     -2.718000
C           7.084000     20.518000     -0.311000
C           5.601000     19.176000     -1.655000
C           5.989000     19.602000     -0.398000
C           5.204000     19.332000      0.869000
C           3.799000     19.478000      0.810000
C           5.755000     18.983000      2.095000
N           3.038000     19.098000      1.825000
N           7.040000     18.929000      2.324000
C           4.906000     18.589000      3.108000
C           3.482000     18.603000      3.011000
S           7.157000     18.345000      3.875000
N           5.567000     18.300000      4.311000
C           2.470000     18.169000      4.036000
S           2.770000     17.127000      5.470000
C           1.103000     18.337000      3.890000
C           1.068000     16.903000      5.775000
S           0.242000     19.226000      2.734000
C           0.301000     17.630000      4.856000
C           0.557000     15.992000      6.784000
C          -1.238000     18.603000      3.436000
C          -1.055000     17.773000      4.515000
N          -0.727000     16.055000      7.020000
S           1.546000     15.155000      7.943000
C          -1.044000     15.362000      8.142000
C           0.057000     14.726000      8.727000
C           7.988000     20.594000     -3.973000
H           8.647000     21.433000     -1.507000
H           7.430000     20.886000      0.650000
H           4.679000     18.609000     -1.778000
H           3.265000     19.791000     -0.086000
H          -2.168000     18.959000      3.012000
H          -1.915000     17.301000      4.976000
H          -2.079000     15.166000      8.391000
H           0.075000     13.965000      9.496000
H           7.219000     21.133000     -4.541000
C           8.523000     19.317000     -4.711000
H           8.813000     21.318000     -3.966000
H           7.688000     18.656000     -4.976000
H           9.214000     18.739000     -4.086000
C           9.268000     19.776000     -5.984000
H           8.618000     20.415000     -6.593000
C           9.564000     18.482000     -6.834000
H          10.195000     20.335000     -5.808000
H           8.605000     18.030000     -7.116000
H          10.159000     17.749000     -6.276000
C          10.311000     18.910000     -8.126000
H           9.737000     19.667000     -8.674000
C          10.641000     17.738000     -9.017000
H          11.292000     19.310000     -7.841000
H          11.201000     16.930000     -8.531000
H          11.198000     18.012000     -9.921000
H           9.737000     17.353000     -9.506000
$end

--------------------------------------------------------------

             Standard Nuclear Orientation (Angstroms)
    I     Atom           X                Y                Z
 ----------------------------------------------------------------
    1      C       5.8105926229     5.4504695961     0.1006327875
    2      C       4.8144642096     6.4460527153     0.0397358491
    3      N       5.5030722705     4.1627203956    -0.1152172286
    4      C       3.4937075236     6.1233542516    -0.3157644715
    5      C       4.1998997348     3.8361652502    -0.3351560368
    6      C       3.1531247834     4.7300951475    -0.4403536595
    7      C       1.8748570473     4.2880223795    -0.8000330482
    8      C       1.2872762534     3.1861053678    -0.1922693522
    9      C       1.0039904460     4.9235217356    -1.7630470311
   10      N       0.1117034541     2.6607244648    -0.4193233112
   11      N       1.3533073091     6.0093303380    -2.4300713245
   12      C      -0.3164314757     4.4206370734    -1.9630519441
   13      C      -0.7245347355     3.2561490762    -1.3083448084
   14      S       0.0062729848     6.4091778743    -3.2313493518
   15      N      -1.0029500083     5.1826646756    -2.8718589852
   16      C      -2.1374467684     2.7530837865    -1.4043182516
   17      S      -3.4296132319     3.3582379873    -2.5523392549
   18      C      -2.5604503039     1.6982836119    -0.6031680781
   19      C      -4.5722015566     2.1491916721    -1.7962652320
   20      S      -1.7962132903     0.9061006730     0.6784371569
   21      C      -3.8788623278     1.3189174264    -0.8762834980
   22      C      -6.0103109848     2.2083437563    -1.8563260615
   23      C      -3.2911324782     0.0054106659     0.9667063592
   24      C      -4.3370088759     0.3665320799     0.1172807385
   25      N      -6.5569331052     3.3739331656    -1.6452322759
   26      S      -7.0116116546     0.8159149128    -2.0984827970
   27      C      -7.9118813452     3.2327507556    -1.7588403480
   28      C      -8.3384800691     1.9412874228    -1.9058096945
   29      C       7.2443779391     5.8480133184     0.3149215081
   30      H       5.1697468643     7.4698322756     0.1032940679
   31      H       2.8278545438     6.9734530246    -0.4287905102
   32      H       4.0629281468     2.7788005251    -0.5564016516
   33      H       1.7643248559     2.6943042464     0.6552188706
   34      H      -3.2904634166    -0.5888747203     1.8702169746
   35      H      -5.3713613033     0.1062471887     0.3146403881
   36      H      -8.6802315587     3.9696346893    -1.5641559428
   37      H      -9.3444641292     1.5454625310    -1.8789819891
   38      H       7.7762649600     5.8080217028    -0.6435955067
   39      C       7.9447068565     4.9411598672     1.4049349142
   40      H       7.3597648037     6.9217782420     0.5082004783
   41      H       8.9898152700     5.2425617387     1.2687610694
   42      H       7.9489839370     3.8739725033     1.1514041727
   43      C       7.3485488575     5.2759512171     2.8108436567
   44      H       7.5203921826     6.3287918609     3.0693517814
   45      C       7.8993514382     4.4050791988     3.9801868248
   46      H       6.2568201403     5.2020866906     2.7242501252
   47      H       7.6613580190     3.3424649940     3.8420557850
   48      H       7.3494863821     4.7324754403     4.8713215627
   49      C       9.4816002145     4.6438230542     4.0962910084
   50      H       9.9878927724     4.2510477986     3.2061671718
   51      C       9.9493372056     4.0347619806     5.4491992521
   52      H       9.7147054363     5.7156179955     4.1119932134
   53      H      11.0062467922     4.3098693754     5.5485574280
   54      H       9.9052254051     2.9439384774     5.5609544932
   55      H       9.2959223370     4.4552473853     6.2237585035
   56      C      -5.3876555818    -2.6072026191     2.5328039611
   57      C      -4.4523103239    -2.4899687150     3.5091274015
   58      N      -5.0823059548    -3.0086133708     1.2784846183
   59      C      -3.1224983645    -2.8349196950     3.2278677813
   60      C      -3.8801278955    -3.3208071291     0.9925825880
   61      C      -2.8227569382    -3.1785450772     1.8722400027
   62      C      -1.3941391763    -3.5663753834     1.5512213986
   63      C      -1.1869754303    -4.7855781563     0.8660573446
   64      C      -0.2663736352    -2.8366520075     1.9035375620
   65      N       0.0129588910    -5.1055896615     0.4061701181
   66      N      -0.3009710244    -1.7571407712     2.6384120487
   67      C       0.9521650847    -3.2192218214     1.3829516174
   68      C       1.1494270730    -4.3780898517     0.5733260271
   69      S       1.2697530179    -1.2157706916     2.6479209748
   70      N       2.0247748644    -2.4381196840     1.8379666846
   71      C       2.4199823004    -4.8671802224    -0.0666778972
   72      S       3.9194148228    -3.9154756916    -0.3461069530
   73      C       2.5317243941    -6.0745777045    -0.7359566318
   74      C       4.6022116797    -5.1305167509    -1.3937083450
   75      S       1.4419621387    -7.3682835670    -0.8179405828
   76      C       3.7493572244    -6.2372840143    -1.4890210031
   77      C       5.8365861365    -4.9358796443    -2.1336807074
   78      C       2.5303560281    -8.1428103418    -1.9523302939
   79      C       3.6753206189    -7.4338554351    -2.2226431239
   80      N       6.3173280704    -5.9893801459    -2.7397705408
   81      S       6.8939128881    -3.5698913139    -1.9384705098
   82      C       7.5829771090    -5.7604180550    -3.1702712632
   83      C       8.0296498171    -4.4610442221    -2.9037508433
   84      C      -6.8490638137    -2.3939478171     2.8386509316
   85      H      -4.7542296685    -2.1988961849     4.5098728694
   86      H      -2.3315858754    -2.7115257634     3.9612792430
   87      H      -3.7109289073    -3.7342699831    -0.0009576330
   88      H      -1.9941571472    -5.4586746698     0.5808560832
   89      H       2.2519088630    -9.1285507524    -2.3018943355
   90      H       4.3778848162    -7.8153603407    -2.9546011526
   91      H       8.0697047443    -6.4597525744    -3.8378560435
   92      H       8.8980617038    -3.9458484891    -3.2926469116
   93      H      -7.3309522700    -3.3680466819     2.6856119915
   94      C      -7.4495759649    -1.2569935578     1.9395857680
   95      H      -7.1371383896    -2.1589310352     3.8714288124
   96      H      -7.4188348021    -1.5542593472     0.8836222121
   97      H      -6.8899942877    -0.3187527728     2.0331943999
   98      C      -8.9083711280    -1.0135184685     2.3855359366
   99      H      -9.4715122526    -1.9538544370     2.3670334998
  100      C      -9.5646352702    -0.0659021066     1.3104114757
  101      H      -9.0261666237    -0.5878248749     3.3893761557
  102      H      -9.5608297929    -0.5875741048     0.3453452372
  103      H      -9.0230686305     0.8825058132     1.2108826235
  104      C     -11.0367913166     0.1962733889     1.7281166164
  105      H     -11.5771918815    -0.7488033674     1.8608801436
  106      C     -11.7606102956     1.0963371107     0.7573764956
  107      H     -11.0332575400     0.7665852513     2.6653027730
  108      H     -11.2682432453     2.0562673673     0.5604790849
  109      H     -12.7933333726     1.3224323758     1.0487610823
  110      H     -11.9790833140     0.5656271673    -0.1781332565
 ----------------------------------------------------------------

   10   -5663.5273003873      4.14E-06 Convergence criterion met
 Total energy in the final basis set = -5663.5273003873

                    Orbital Energies (a.u.)
 --------------------------------------------------------------

 Alpha MOs
 -- Occupied --
-88.985 -88.983 -88.928 -88.924 -88.924 -88.923 -88.906 -88.903
-14.393 -14.387 -14.381 -14.379 -14.343 -14.341 -14.341 -14.339
-14.326 -14.325 -10.268 -10.266 -10.261 -10.257 -10.255 -10.252
-10.251 -10.249 -10.244 -10.242 -10.238 -10.237 -10.237 -10.232
-10.231 -10.228 -10.227 -10.227 -10.225 -10.224 -10.222 -10.222
-10.221 -10.219 -10.218 -10.217 -10.215 -10.214 -10.213 -10.211
-10.211 -10.210 -10.208 -10.207 -10.197 -10.196 -10.193 -10.193
-10.188 -10.186 -10.184 -10.182 -10.181 -10.181 -10.180 -10.180
-10.178 -10.175 -10.173 -10.170  -8.041  -8.039  -7.990  -7.986
 -7.983  -7.979  -7.967  -7.963  -6.006  -6.004  -6.000  -5.999
 -5.998  -5.997  -5.954  -5.951  -5.949  -5.947  -5.947  -5.946
 -5.944  -5.944  -5.943  -5.940  -5.940  -5.935  -5.931  -5.928
 -5.927  -5.924  -5.923  -5.919  -1.040  -1.034  -0.977  -0.974
 -0.960  -0.960  -0.954  -0.933  -0.910  -0.910  -0.904  -0.899
 -0.846  -0.837  -0.829  -0.828  -0.811  -0.811  -0.807  -0.804
 -0.802  -0.799  -0.796  -0.790  -0.787  -0.777  -0.768  -0.762
 -0.752  -0.744  -0.743  -0.734  -0.721  -0.716  -0.711  -0.707
 -0.692  -0.687  -0.672  -0.670  -0.653  -0.648  -0.647  -0.646
 -0.631  -0.627  -0.626  -0.620  -0.612  -0.609  -0.599  -0.594
 -0.592  -0.589  -0.586  -0.584  -0.581  -0.577  -0.572  -0.561
 -0.548  -0.539  -0.538  -0.536  -0.523  -0.517  -0.512  -0.509
 -0.508  -0.507  -0.501  -0.495  -0.494  -0.488  -0.479  -0.477
 -0.472  -0.472  -0.467  -0.463  -0.463  -0.451  -0.449  -0.447
 -0.443  -0.438  -0.438  -0.437  -0.435  -0.432  -0.429  -0.428
 -0.425  -0.424  -0.423  -0.421  -0.418  -0.418  -0.413  -0.410
 -0.409  -0.408  -0.403  -0.402  -0.400  -0.397  -0.393  -0.393
 -0.392  -0.391  -0.389  -0.387  -0.384  -0.384  -0.382  -0.379
 -0.379  -0.375  -0.374  -0.373  -0.369  -0.359  -0.356  -0.353
 -0.352  -0.352  -0.351  -0.348  -0.346  -0.345  -0.343  -0.341
 -0.339  -0.337  -0.336  -0.335  -0.332  -0.324  -0.323  -0.322
 -0.320  -0.318  -0.316  -0.313  -0.303  -0.298  -0.294  -0.293
 -0.292  -0.292  -0.291  -0.289  -0.287  -0.286  -0.284  -0.276
 -0.269  -0.267  -0.266  -0.259  -0.253  -0.251  -0.248  -0.248
 -0.244  -0.240  -0.232  -0.227  -0.191  -0.188

          Ground-State Mulliken Net Atomic Charges

     Atom                 Charge (a.u.)
  ----------------------------------------
      1 C                     0.302081
      2 C                    -0.129842
      3 N                    -0.491810
      4 C                    -0.049248
      5 C                     0.061344
      6 C                     0.027759
      7 C                     0.056268
      8 C                     0.046627
      9 C                     0.204766
     10 N                    -0.521632
     11 N                    -0.549156
     12 C                     0.208531
     13 C                     0.304163
     14 S                     0.596348
     15 N                    -0.554323
     16 C                    -0.221569
     17 S                     0.338311
     18 C                    -0.103233
     19 C                    -0.214635
     20 S                     0.299709
     21 C                     0.115101
     22 C                     0.026010
     23 C                    -0.314593
     24 C                    -0.077008
     25 N                    -0.401529
     26 S                     0.276099
     27 C                     0.118982
     28 C                    -0.301484
     29 C                    -0.246074
     30 H                     0.083835
     31 H                     0.110635
     32 H                     0.105225
     33 H                     0.102784
     34 H                     0.135705
     35 H                     0.116045
     36 H                     0.113174
     37 H                     0.132663
     38 H                     0.114720
     39 C                    -0.169797
     40 H                     0.095114
     41 H                     0.086441
     42 H                     0.120280
     43 C                    -0.177948
     44 H                     0.086958
     45 C                    -0.179333
     46 H                     0.093830
     47 H                     0.097040
     48 H                     0.087085
     49 C                    -0.175769
     50 H                     0.100531
     51 C                    -0.316083
     52 H                     0.094358
     53 H                     0.094889
     54 H                     0.103166
     55 H                     0.104189
     56 C                     0.275040
     57 C                    -0.126458
     58 N                    -0.473624
     59 C                    -0.064638
     60 C                     0.099191
     61 C                     0.008340
     62 C                    -0.015671
     63 C                     0.074192
     64 C                     0.313834
     65 N                    -0.528720
     66 N                    -0.585134
     67 C                     0.128435
     68 C                     0.319745
     69 S                     0.602944
     70 N                    -0.531646
     71 C                    -0.208397
     72 S                     0.313269
     73 C                    -0.117352
     74 C                    -0.246428
     75 S                     0.294865
     76 C                     0.174070
     77 C                     0.076853
     78 C                    -0.308631
     79 C                    -0.062439
     80 N                    -0.424390
     81 S                     0.279665
     82 C                     0.122786
     83 C                    -0.315491
     84 C                    -0.226591
     85 H                     0.091016
     86 H                     0.118365
     87 H                     0.098643
     88 H                     0.118987
     89 H                     0.125079
     90 H                     0.122289
     91 H                     0.116643
     92 H                     0.136079
     93 H                     0.118460
     94 C                    -0.181268
     95 H                     0.095876
     96 H                     0.123109
     97 H                     0.102853
     98 C                    -0.185247
     99 H                     0.094927
    100 C                    -0.177218
    101 H                     0.094279
    102 H                     0.090030
    103 H                     0.099466
    104 C                    -0.171936
    105 H                     0.093530
    106 C                    -0.323908
    107 H                     0.094697
    108 H                     0.101115
    109 H                     0.096797
    110 H                     0.094020
  ----------------------------------------
  Sum of atomic charges =     0.000000

                    Cartesian Multipole Moments
 -----------------------------------------------------------------
    Charge (ESU x 10^10)
                 0.0000
    Dipole Moment (Debye)
         X      -0.4826      Y       0.2668      Z       1.1330
       Tot       1.2601
    Quadrupole Moments (Debye-Ang)
        XX    -392.6066     XY      10.0210     YY    -426.6355
        XZ     -20.9683     YZ       6.0818     ZZ    -434.7766

 Total job time:  94.39s(wall), 1104.76s(cpu)
        *  Thank you very much for using Q-Chem.  Have a nice day.  *
