 Q-Chem 4.4, Q-Chem, Inc., Pleasanton, CA (2016)
 Q-Chem 4.4.2 for Intel X86 Linux

User input:
--------------------------------------------------------------
$comment
SP
$end

$rem
MEM_STATIC 5000
MEM_TOTAL 20000
JOBTYPE SP
EXCHANGE B3LYP
BASIS 6-31g(d,p)
$end

$molecule
0 1
C          10.913000     23.372000      2.705000
C          11.901000     23.622000      3.661000
N           9.735000     22.771000      3.015000
C          11.637000     23.244000      4.988000
C           9.519000     22.365000      4.290000
C          10.437000     22.604000      5.339000
C          10.235000     22.070000      6.776000
C          10.887000     22.741000      7.826000
C           9.390000     21.000000      7.130000
N          10.772000     22.408000      9.106000
N           8.629000     20.218000      6.214000
C           9.322000     20.600000      8.495000
C           9.983000     21.317000      9.487000
S           7.962000     19.081000      7.234000
N           8.482000     19.510000      8.612000
C           9.683000     21.077000     10.940000
S           8.312000     20.128000     11.605000
C          10.232000     21.810000     11.960000
C           8.554000     20.810000     13.217000
S          11.492000     23.036000     11.934000
C           9.633000     21.651000     13.187000
C           7.683000     20.762000     14.375000
C          11.272000     23.287000     13.704000
C          10.297000     22.442000     14.193000
N           8.113000     20.975000     15.583000
S           5.942000     20.429000     14.272000
C           7.077000     20.839000     16.471000
C           5.867000     20.719000     15.967000
C          11.019000     23.962000      1.271000
H          12.820000     24.094000      3.327000
H          12.384000     23.409000      5.759000
H           8.613000     21.821000      4.557000
H          11.469000     23.659000      7.745000
H          11.841000     23.909000     14.382000
H          10.022000     22.441000     15.241000
H           7.116000     20.820000     17.552000
H           4.920000     20.686000     16.491000
H          11.457000     24.967000      1.248000
C           9.672000     24.000000      0.446000
H          11.791000     23.396000      0.736000
H           9.083000     24.844000      0.826000
H           9.135000     23.062000      0.636000
C           9.942000     24.301000     -1.075000
H          10.550000     25.211000     -1.155000
C           8.672000     24.539000     -1.984000
H          10.656000     23.516000     -1.352000
H           8.390000     25.564000     -1.711000
H           7.826000     23.999000     -1.541000
C           8.893000     24.418000     -3.522000
H           9.453000     25.287000     -3.888000
C           7.514000     24.402000     -4.306000
H           9.446000     23.479000     -3.654000
H           7.087000     25.361000     -3.987000
H           6.925000     23.553000     -3.939000
H           7.784000     24.307000     -5.366000
C           7.345000     20.227000     -2.659000
C           7.792000     20.765000     -1.496000
N           6.259000     19.424000     -2.718000
C           7.084000     20.518000     -0.311000
C           5.601000     19.176000     -1.655000
C           5.989000     19.602000     -0.398000
C           5.204000     19.332000      0.869000
C           3.799000     19.478000      0.810000
C           5.755000     18.983000      2.095000
N           3.038000     19.098000      1.825000
N           7.040000     18.929000      2.324000
C           4.906000     18.589000      3.108000
C           3.482000     18.603000      3.011000
S           7.157000     18.345000      3.875000
N           5.567000     18.300000      4.311000
C           2.470000     18.169000      4.036000
S           2.770000     17.127000      5.470000
C           1.103000     18.337000      3.890000
C           1.068000     16.903000      5.775000
S           0.242000     19.226000      2.734000
C           0.301000     17.630000      4.856000
C           0.557000     15.992000      6.784000
C          -1.238000     18.603000      3.436000
C          -1.055000     17.773000      4.515000
N          -0.727000     16.055000      7.020000
S           1.546000     15.155000      7.943000
C          -1.044000     15.362000      8.142000
C           0.057000     14.726000      8.727000
C           7.988000     20.594000     -3.973000
H           8.647000     21.433000     -1.507000
H           7.430000     20.886000      0.650000
H           4.679000     18.609000     -1.778000
H           3.265000     19.791000     -0.086000
H          -2.168000     18.959000      3.012000
H          -1.915000     17.301000      4.976000
H          -2.079000     15.166000      8.391000
H           0.075000     13.965000      9.496000
H           7.219000     21.133000     -4.541000
C           8.523000     19.317000     -4.711000
H           8.813000     21.318000     -3.966000
H           7.688000     18.656000     -4.976000
H           9.214000     18.739000     -4.086000
C           9.268000     19.776000     -5.984000
H           8.618000     20.415000     -6.593000
C           9.564000     18.482000     -6.834000
H          10.195000     20.335000     -5.808000
H           8.605000     18.030000     -7.116000
H          10.159000     17.749000     -6.276000
C          10.311000     18.910000     -8.126000
H           9.737000     19.667000     -8.674000
C          10.641000     17.738000     -9.017000
H          11.292000     19.310000     -7.841000
H          11.201000     16.930000     -8.531000
H          11.198000     18.012000     -9.921000
H           9.737000     17.353000     -9.506000
$end

--------------------------------------------------------------

             Standard Nuclear Orientation (Angstroms)
    I     Atom           X                Y                Z
 ----------------------------------------------------------------
    1      C       2.1625953206    -5.1391543391     0.7728761089
    2      C       1.2345449415    -6.1417644591     0.4794899454
    3      N       1.8201073985    -3.8264083116     0.8390946160
    4      C      -0.0990270738    -5.7555512943     0.2651675913
    5      C       0.5398890712    -3.4664122315     0.5772533346
    6      C      -0.4830837166    -4.4051955228     0.3080719695
    7      C      -1.9247332107    -3.9969614610    -0.0739236939
    8      C      -2.9565613159    -4.9224784305     0.1639714520
    9      C      -2.3014315390    -2.7379312830    -0.5810552157
   10      N      -4.2390002803    -4.6865615184    -0.0854428887
   11      N      -1.4065198259    -1.6656749323    -0.8623030500
   12      C      -3.6674568931    -2.5110748309    -0.9132597944
   13      C      -4.6410947038    -3.4660656941    -0.6392235469
   14      S      -2.4438900793    -0.5428670204    -1.5265495030
   15      N      -3.8070911064    -1.2406714881    -1.4366780144
   16      C      -6.1017489353    -3.1209652373    -0.7179883282
   17      S      -6.8042228617    -1.4752256370    -0.8613011007
   18      C      -7.1065395527    -3.9878031032    -0.3743636356
   19      C      -8.4093693157    -2.0651538544    -0.4166421757
   20      S      -7.0461745702    -5.6917930585     0.0547357713
   21      C      -8.3497629207    -3.4193863443    -0.2297640312
   22      C      -9.5913662714    -1.3155702776    -0.0385989796
   23      C      -8.8218787918    -5.6697704166     0.3558844397
   24      C      -9.3373749452    -4.4144302783     0.1065736839
   25      N     -10.7869786858    -1.8231244825    -0.0879212208
   26      S      -9.5370845064     0.3594329919     0.5479132004
   27      C     -11.7036469518    -0.8802620369     0.3007504899
   28      C     -11.2337740652     0.2382974223     0.8112014735
   29      C       3.5984974461    -5.4925408149     1.2514104177
   30      H       1.5938507217    -7.1652569893     0.4319147738
   31      H      -0.8488552245    -6.5026997476     0.0218531175
   32      H       0.2479847889    -2.4164391104     0.5570213063
   33      H      -2.8600200945    -5.8843544429     0.6674427315
   34      H      -9.4841461260    -6.4900440215     0.5985409688
   35      H     -10.3926935454    -4.2011720100     0.2280379298
   36      H     -12.7831055587    -0.9302850188     0.2486945831
   37      H     -11.7841725834     1.0612242872     1.2497523214
   38      H       3.6329361989    -6.3749288841     1.9014898494
   39      C       4.3852531357    -4.3271095139     1.9720097291
   40      H       4.1554888224    -5.8633716217     0.3826123287
   41      H       3.9881063715    -4.2502864477     2.9918281757
   42      H       4.1810380440    -3.3967169925     1.4270519762
   43      C       5.9129838175    -4.6752459328     2.1195969830
   44      H       6.0092636246    -5.6556151879     2.6030949895
   45      C       6.7856985568    -3.6747272233     2.9758424477
   46      H       6.2106358888    -4.8922197157     1.0866034583
   47      H       6.5039870077    -3.9516214708     3.9998767141
   48      H       6.3195480130    -2.6828497506     2.9263677113
   49      C       8.3294101022    -3.7683767643     2.7832017766
   50      H       8.7102621837    -4.6798363866     3.2595525391
   51      C       9.0743288185    -2.5491632813     3.4725257852
   52      H       8.4777248909    -3.7723361589     1.6955708435
   53      H       8.7426145234    -2.6686609780     4.5114949507
   54      H       8.6916441676    -1.6226842062     3.0280035905
   55      H      10.1415852406    -2.7096498488     3.2707021215
   56      C       7.4268461318    -0.3478637541    -0.0787945593
   57      C       6.2764123624    -1.0320891792     0.1451690755
   58      N       7.4559746857     0.9954846040    -0.2279680022
   59      C       5.0721829785    -0.3242661371     0.2689274374
   60      C       6.3751041226     1.6634884027    -0.1283349218
   61      C       5.1291452511     1.0842237077     0.0269322793
   62      C       3.8408026262     1.8682096536     0.1681884917
   63      C       3.8601367639     3.0113096318     0.9999159896
   64      C       2.6310875584     1.5375384111    -0.4282375173
   65      N       2.8244646937     3.8357486976     1.0377259074
   66      N       2.4383659731     0.4479883615    -1.1227309154
   67      C       1.5949518081     2.4451444033    -0.3583800201
   68      C       1.6518509190     3.6718039811     0.3692529721
   69      S       0.8917769052     0.6027358283    -1.7096393212
   70      N       0.4112694101     1.9898024023    -0.9577218613
   71      C       0.5991701722     4.7401402744     0.4860682526
   72      S      -0.8249213726     4.9692089541    -0.5870630590
   73      C       0.7065195533     5.8414226949     1.3190641353
   74      C      -1.1774756342     6.5460555945     0.0681202476
   75      S       1.8370755152     6.1675777806     2.5370313258
   76      C      -0.2810416554     6.8665358395     1.0952899192
   77      C      -2.1996585712     7.4208497656    -0.4786888615
   78      C       1.0942680559     7.7431401458     2.7298351429
   79      C       0.0215615561     7.9755078925     1.9040409823
   80      N      -2.4717325351     8.4939086923     0.2161789662
   81      S      -3.3296583804     6.9578510807    -1.7159049497
   82      C      -3.6016033629     9.0888800948    -0.2410113035
   83      C      -4.1548546302     8.4419104940    -1.3519862676
   84      C       8.7580922953    -1.0565990117    -0.0642347895
   85      H       6.3108761589    -2.1062870147     0.2944381509
   86      H       4.1209759066    -0.8310420125     0.3994813280
   87      H       6.4726153419     2.7481548770    -0.1546446431
   88      H       4.7404918304     3.3374556704     1.5517716941
   89      H       1.4916351565     8.3788656051     3.5104531850
   90      H      -0.4630345468     8.9449470852     1.9201428038
   91      H      -3.8794445279    10.0762476988     0.1047509003
   92      H      -4.9223843452     8.7897490531    -2.0307443050
   93      H       9.3037719413    -0.6484605753     0.7960923231
   94      C       9.5119538048    -0.8609448310    -1.4262224055
   95      H       8.7736709288    -2.1333793944     0.1482535952
   96      H       9.7539371591     0.1990418626    -1.5753641691
   97      H       8.9071367599    -1.1834313698    -2.2820195628
   98      C      10.8050052448    -1.7050161397    -1.3838360950
   99      H      11.3949288937    -1.4489680799    -0.4960684004
  100      C      11.6641152058    -1.2914883738    -2.6390161066
  101      H      10.6546625713    -2.7912592290    -1.3677416436
  102      H      11.9194231659    -0.2287210936    -2.5449280957
  103      H      11.1237059404    -1.4516000407    -3.5797605352
  104      C      12.9762422395    -2.1212830184    -2.6241670180
  105      H      13.5072252947    -1.9916098184    -1.6733406110
  106      C      13.8771864912    -1.7973811655    -3.7902510823
  107      H      12.7185992892    -3.1770584911    -2.7743144835
  108      H      13.4078293323    -1.8878810289    -4.7772534288
  109      H      14.7962568305    -2.3948909973    -3.8191078375
  110      H      14.3409013077    -0.8108399352    -3.6627090505
 ----------------------------------------------------------------

   11   -5663.5210661912      6.58E-06 Convergence criterion met
 Total energy in the final basis set = -5663.5210661912

                    Orbital Energies (a.u.)
 --------------------------------------------------------------

 Alpha MOs
 -- Occupied --
-88.999 -88.983 -88.932 -88.929 -88.923 -88.922 -88.909 -88.905
-14.391 -14.389 -14.388 -14.377 -14.355 -14.347 -14.340 -14.339
-14.332 -14.317 -10.275 -10.271 -10.266 -10.265 -10.264 -10.262
-10.252 -10.248 -10.245 -10.245 -10.244 -10.244 -10.240 -10.235
-10.233 -10.232 -10.232 -10.231 -10.229 -10.226 -10.225 -10.225
-10.224 -10.223 -10.218 -10.218 -10.216 -10.215 -10.214 -10.214
-10.209 -10.207 -10.204 -10.203 -10.203 -10.194 -10.192 -10.191
-10.185 -10.183 -10.179 -10.179 -10.179 -10.179 -10.176 -10.175
-10.174 -10.173 -10.173 -10.164  -8.054  -8.038  -7.990  -7.990
 -7.984  -7.982  -7.968  -7.966  -6.019  -6.013  -6.013  -6.003
 -5.997  -5.995  -5.955  -5.954  -5.951  -5.951  -5.948  -5.947
 -5.947  -5.947  -5.945  -5.943  -5.941  -5.939  -5.933  -5.930
 -5.929  -5.926  -5.924  -5.922  -1.044  -1.031  -0.983  -0.977
 -0.956  -0.952  -0.949  -0.933  -0.917  -0.909  -0.901  -0.898
 -0.845  -0.841  -0.828  -0.822  -0.819  -0.813  -0.811  -0.803
 -0.800  -0.797  -0.794  -0.792  -0.784  -0.780  -0.768  -0.763
 -0.749  -0.748  -0.740  -0.739  -0.729  -0.720  -0.707  -0.705
 -0.695  -0.688  -0.680  -0.669  -0.654  -0.648  -0.647  -0.641
 -0.636  -0.627  -0.626  -0.620  -0.609  -0.606  -0.594  -0.593
 -0.591  -0.590  -0.580  -0.580  -0.577  -0.576  -0.571  -0.570
 -0.552  -0.547  -0.545  -0.533  -0.521  -0.520  -0.516  -0.509
 -0.508  -0.502  -0.500  -0.499  -0.488  -0.485  -0.480  -0.475
 -0.473  -0.471  -0.470  -0.467  -0.463  -0.456  -0.454  -0.447
 -0.446  -0.443  -0.440  -0.438  -0.438  -0.434  -0.430  -0.428
 -0.428  -0.425  -0.421  -0.420  -0.420  -0.418  -0.416  -0.410
 -0.409  -0.408  -0.407  -0.404  -0.403  -0.401  -0.398  -0.397
 -0.393  -0.392  -0.387  -0.385  -0.384  -0.384  -0.381  -0.379
 -0.378  -0.372  -0.371  -0.368  -0.366  -0.361  -0.354  -0.354
 -0.353  -0.350  -0.348  -0.345  -0.344  -0.342  -0.341  -0.341
 -0.337  -0.336  -0.335  -0.334  -0.332  -0.327  -0.324  -0.318
 -0.316  -0.314  -0.312  -0.312  -0.307  -0.302  -0.300  -0.297
 -0.293  -0.292  -0.290  -0.289  -0.288  -0.286  -0.284  -0.280
 -0.276  -0.271  -0.262  -0.257  -0.255  -0.251  -0.250  -0.248
 -0.244  -0.241  -0.236  -0.228  -0.199  -0.189

          Ground-State Mulliken Net Atomic Charges

     Atom                 Charge (a.u.)
  ----------------------------------------
      1 C                     0.281489
      2 C                    -0.112646
      3 N                    -0.505923
      4 C                    -0.087807
      5 C                     0.085864
      6 C                     0.045742
      7 C                     0.030981
      8 C                     0.061292
      9 C                     0.209188
     10 N                    -0.520090
     11 N                    -0.586032
     12 C                     0.182580
     13 C                     0.295960
     14 S                     0.647480
     15 N                    -0.523229
     16 C                    -0.227185
     17 S                     0.328476
     18 C                    -0.115010
     19 C                    -0.237367
     20 S                     0.279430
     21 C                     0.166373
     22 C                     0.061170
     23 C                    -0.310775
     24 C                    -0.055531
     25 N                    -0.437533
     26 S                     0.250011
     27 C                     0.128074
     28 C                    -0.287437
     29 C                    -0.253647
     30 H                     0.093236
     31 H                     0.097198
     32 H                     0.129542
     33 H                     0.123307
     34 H                     0.129608
     35 H                     0.127313
     36 H                     0.112782
     37 H                     0.135712
     38 H                     0.109621
     39 C                    -0.181531
     40 H                     0.109537
     41 H                     0.098066
     42 H                     0.128782
     43 C                    -0.192424
     44 H                     0.086632
     45 C                    -0.188669
     46 H                     0.084344
     47 H                     0.090680
     48 H                     0.099862
     49 C                    -0.189595
     50 H                     0.098465
     51 C                    -0.316664
     52 H                     0.097342
     53 H                     0.108073
     54 H                     0.115337
     55 H                     0.103793
     56 C                     0.271876
     57 C                    -0.124180
     58 N                    -0.476612
     59 C                    -0.071891
     60 C                     0.088650
     61 C                     0.018111
     62 C                    -0.019075
     63 C                     0.073337
     64 C                     0.301104
     65 N                    -0.527920
     66 N                    -0.565341
     67 C                     0.124169
     68 C                     0.317724
     69 S                     0.605671
     70 N                    -0.546351
     71 C                    -0.207602
     72 S                     0.304658
     73 C                    -0.117719
     74 C                    -0.246770
     75 S                     0.295308
     76 C                     0.173648
     77 C                     0.076955
     78 C                    -0.308248
     79 C                    -0.063129
     80 N                    -0.424504
     81 S                     0.273593
     82 C                     0.122042
     83 C                    -0.315393
     84 C                    -0.233470
     85 H                     0.099945
     86 H                     0.133409
     87 H                     0.091762
     88 H                     0.119205
     89 H                     0.124877
     90 H                     0.121494
     91 H                     0.116233
     92 H                     0.134397
     93 H                     0.116813
     94 C                    -0.173225
     95 H                     0.100980
     96 H                     0.119673
     97 H                     0.095364
     98 C                    -0.182784
     99 H                     0.093063
    100 C                    -0.171845
    101 H                     0.090653
    102 H                     0.094728
    103 H                     0.090620
    104 C                    -0.171642
    105 H                     0.091720
    106 C                    -0.319143
    107 H                     0.091265
    108 H                     0.100730
    109 H                     0.092275
    110 H                     0.096550
  ----------------------------------------
  Sum of atomic charges =     0.000000

                    Cartesian Multipole Moments
 -----------------------------------------------------------------
    Charge (ESU x 10^10)
                 0.0000
    Dipole Moment (Debye)
         X      -3.8600      Y      -0.4461      Z       0.1899
       Tot       3.8903
    Quadrupole Moments (Debye-Ang)
        XX    -410.6311     XY     -36.2582     YY    -404.3398
        XZ       1.0630     YZ      -6.5521     ZZ    -445.8086

 Total job time:  105.47s(wall), 1198.89s(cpu)
        *  Thank you very much for using Q-Chem.  Have a nice day.  *
