 Q-Chem 4.4, Q-Chem, Inc., Pleasanton, CA (2016)
 Q-Chem 4.4.2 for Intel X86 Linux

User input:
--------------------------------------------------------------
$comment
SP
$end

$rem
MEM_STATIC 5000
MEM_TOTAL 20000
JOBTYPE SP
EXCHANGE B3LYP
BASIS 6-31g(d,p)
$end

$molecule
0 1
C           6.082000    -11.632000      5.765000
C           7.084000    -11.088000      6.622000
N           6.374000    -11.935000      4.488000
C           8.322000    -10.704000      6.096000
C           7.580000    -11.612000      3.990000
C           8.565000    -10.916000      4.732000
C           9.769000    -10.299000      4.031000
C          10.292000     -9.099000      4.472000
C          10.508000    -11.054000      3.106000
N          11.395000     -8.616000      4.017000
N          10.325000    -12.326000      2.742000
C          11.595000    -10.458000      2.497000
C          12.060000     -9.206000      3.029000
S          11.594000    -12.706000      1.805000
N          12.292000    -11.247000      1.622000
C          13.289000     -8.528000      2.484000
S          14.387000     -9.034000      1.162000
C          13.768000     -7.328000      3.031000
C          15.485000     -7.745000      1.533000
S          13.116000     -6.285000      4.238000
C          14.948000     -6.880000      2.415000
C          16.729000     -7.485000      0.893000
C          14.523000     -5.239000      4.032000
C          15.369000     -5.686000      2.989000
N          16.741000     -7.728000     -0.420000
S          18.194000     -6.785000      1.499000
C          17.982000     -7.510000     -0.977000
C          18.935000     -7.017000     -0.061000
C           4.640000    -11.974000      6.132000
H           6.905000    -10.933000      7.682000
H           9.032000    -10.172000      6.721000
H           7.741000    -11.667000      2.914000
H           9.748000     -8.413000      5.120000
H          14.487000     -4.327000      4.613000
H          16.276000     -5.189000      2.665000
H          18.084000     -7.571000     -2.052000
H          19.887000     -6.599000     -0.361000
H           4.235000    -12.711000      5.428000
C           3.687000    -10.771000      6.193000
H           4.642000    -12.465000      7.113000
H           2.637000    -11.055000      6.342000
H           3.736000    -10.184000      5.268000
C           4.050000     -9.820000      7.395000
H           5.083000     -9.463000      7.294000
C           3.875000    -10.450000      8.805000
H           3.441000     -8.911000      7.310000
H           3.949000     -9.754000      9.649000
H           4.565000    -11.252000      9.096000
C           2.448000    -11.165000      9.008000
H           2.244000    -11.909000      8.228000
C           1.325000    -10.159000      8.977000
H           2.373000    -11.692000      9.968000
H           1.581000     -9.414000      9.741000
H           0.349000    -10.591000      9.229000
H           1.337000     -9.858000      7.922000
C          26.700000    -15.465000     -0.878000
C          25.545000    -15.994000     -1.600000
N          26.972000    -14.155000     -0.974000
C          24.753000    -15.158000     -2.379000
C          26.188000    -13.411000     -1.740000
C          25.126000    -13.819000     -2.507000
C          24.307000    -12.829000     -3.203000
C          23.913000    -11.596000     -2.628000
C          23.917000    -12.905000     -4.592000
N          23.209000    -10.650000     -3.207000
N          24.237000    -13.988000     -5.308000
C          23.169000    -11.892000     -5.237000
C          22.914000    -10.692000     -4.470000
S          23.754000    -13.628000     -6.830000
N          22.959000    -12.195000     -6.586000
C          22.121000     -9.586000     -5.049000
S          21.770000     -9.396000     -6.737000
C          21.519000     -8.514000     -4.371000
C          20.875000     -7.912000     -6.502000
S          21.608000     -8.036000     -2.685000
C          20.819000     -7.581000     -5.156000
C          20.189000     -7.169000     -7.482000
C          20.738000     -6.511000     -3.044000
C          20.461000     -6.333000     -4.373000
N          19.988000     -7.836000     -8.572000
S          19.718000     -5.543000     -7.307000
C          19.317000     -6.958000     -9.341000
C          19.010000     -5.709000     -8.906000
C          27.668000    -16.413000     -0.123000
H          25.243000    -17.036000     -1.556000
H          23.863000    -15.565000     -2.850000
H          26.386000    -12.342000     -1.695000
H          24.225000    -11.378000     -1.608000
H          20.700000     -5.704000     -2.325000
H          19.922000     -5.462000     -4.728000
H          19.101000     -7.164000    -10.381000
H          18.582000     -4.887000     -9.464000
H          27.423000    -17.482000     -0.116000
C          27.984000    -15.916000      1.423000
H          28.644000    -16.341000     -0.619000
H          28.199000    -14.843000      1.350000
H          28.846000    -16.400000      1.898000
C          26.779000    -16.319000      2.244000
H          26.274000    -17.139000      1.719000
C          25.721000    -15.186000      2.322000
H          27.134000    -16.772000      3.178000
H          25.148000    -15.015000      1.402000
H          26.304000    -14.289000      2.566000
C          24.747000    -15.372000      3.473000
H          25.294000    -15.462000      4.420000
C          23.881000    -16.548000      3.213000
H          24.009000    -14.575000      3.322000
H          23.767000    -16.784000      2.148000
H          22.823000    -16.334000      3.408000
H          24.295000    -17.395000      3.774000
$end

--------------------------------------------------------------

             Standard Nuclear Orientation (Angstroms)
    I     Atom           X                Y                Z
 ----------------------------------------------------------------
    1      C     -12.2576003863     1.4379802429     1.8889331407
    2      C     -11.8530419559     1.8513856440     0.5851626660
    3      N     -11.3539505528     0.9470782076     2.7550937322
    4      C     -10.5538147446     1.5877080398     0.1387785549
    5      C     -10.0909953055     0.7365638514     2.3459522539
    6      C      -9.6579262846     0.9624559699     1.0168062973
    7      C      -8.3225164854     0.4099282170     0.5340022477
    8      C      -8.1863350362    -0.0488718977    -0.7617473685
    9      C      -7.1643669438     0.5931844147     1.3065809202
   10      N      -7.0474592858    -0.3784497111    -1.2630092660
   11      N      -7.0368802859     1.2471831873     2.4641653696
   12      C      -5.9737217570     0.0806752432     0.8297535003
   13      C      -5.9368153165    -0.3757541019    -0.5329875491
   14      S      -5.4446931094     1.2959201391     2.7728637732
   15      N      -4.8735826124     0.3082237534     1.6119750404
   16      C      -4.6611679055    -0.8689894428    -1.1627435188
   17      S      -3.0184738983    -1.0149677879    -0.4630502134
   18      C      -4.6150090168    -1.2741270032    -2.5052720713
   19      C      -2.3564576109    -1.4224439928    -2.0123931637
   20      S      -5.8600410703    -1.4686851921    -3.6807908065
   21      C      -3.3275890001    -1.6567574077    -2.9160075995
   22      C      -0.9857194947    -1.6645509818    -2.3076849221
   23      C      -4.6269578027    -1.9710285023    -4.8398239613
   24      C      -3.3444727776    -2.0568544407    -4.2471688603
   25      N      -0.3126698074    -2.2996781409    -1.3449909883
   26      S      -0.0697804868    -1.3925773339    -3.7535573469
   27      C       1.0184646305    -2.4602654328    -1.6614508276
   28      C       1.3559841848    -1.9864739315    -2.9467197348
   29      C     -13.6597785361     1.5152828368     2.4880472743
   30      H     -12.5398850792     2.3471625649    -0.0946297793
   31      H     -10.2883145319     1.7843962600    -0.8949391924
   32      H      -9.4204790739     0.1526191023     2.9753476091
   33      H      -9.0338867625    -0.2995772311    -1.3983311469
   34      H      -5.0199841091    -2.2874875397    -5.7968950141
   35      H      -2.4409967250    -2.3697721425    -4.7575094664
   36      H       1.6377813674    -3.0556136413    -1.0043684203
   37      H       2.2935268249    -2.2141107550    -3.4368455091
   38      H     -13.6043939347     1.5044299868     3.5833211038
   39      C     -14.6194880648     0.4072932166     2.0292928497
   40      H     -14.0958067040     2.4852496361     2.2188078918
   41      H     -15.5797074307     0.4156716229     2.5615198424
   42      H     -14.1747429193    -0.5839458144     2.1784301653
   43      C     -14.9730443442     0.5594232208     0.5019328989
   44      H     -14.0572721528     0.5227147221    -0.1020147641
   45      C     -15.7606295179     1.8486338451     0.1368704929
   46      H     -15.5376695693    -0.3283786924     0.1898541943
   47      H     -16.1683293950     1.8844422908    -0.8803446100
   48      H     -15.2355143632     2.8087221595     0.2173037129
   49      C     -17.0378180235     2.1012185788     1.0822558501
   50      H     -16.7701788111     2.1041689134     2.1461696377
   51      C     -18.0833487953     1.0329468427     0.8827893039
   52      H     -17.5273602992     3.0630576485     0.8818363795
   53      H     -18.2981061146     1.0337862516    -0.1933777784
   54      H     -19.0170672745     1.2343103279     1.4216088919
   55      H     -17.5827956147     0.1599663084     1.3199637546
   56      C       9.2166981192     5.8511608190     0.0719017982
   57      C       8.6120304155     5.4681360201     1.3458009196
   58      N       9.3881329310     4.9080990036    -0.8664715377
   59      C       8.2340466067     4.1513544897     1.5828992992
   60      C       9.0185792458     3.6689804684    -0.5784379817
   61      C       8.5063396989     3.1952704243     0.6030045437
   62      C       8.0512126113     1.8098368648     0.6963329214
   63      C       7.3229590924     1.1550201503    -0.3269030644
   64      C       8.3981827446     0.8933298202     1.7578523814
   65      N       6.9142201107    -0.0934539720    -0.3226828018
   66      N       9.1183430444     1.3300704200     2.7963954913
   67      C       7.9778017136    -0.4574754613     1.7752558363
   68      C       7.2791675690    -0.9300755983     0.5997247042
   69      S       9.4124400157    -0.0142088209     3.6828453172
   70      N       8.4808316868    -1.1328351212     2.8917504292
   71      C       6.7795260474    -2.3204530228     0.5323825390
   72      S       7.2838660344    -3.6067542026     1.5810557257
   73      C       5.8340578399    -2.8512390959    -0.3595972888
   74      C       6.2654946185    -4.7961407597     0.8020914923
   75      S       5.0463070870    -2.1281363975    -1.7508457349
   76      C       5.5306123438    -4.2171649587    -0.2221877979
   77      C       6.0857307550    -6.1403131220     1.1814733762
   78      C       4.3365509917    -3.7099071603    -2.2043361307
   79      C       4.7306438320    -4.7436198743    -1.3976249939
   80      N       6.5009706415    -6.3856454361     2.3817974543
   81      S       5.4526950058    -7.3529785513     0.1690257001
   82      C       6.2195668873    -7.6932873958     2.5346713641
   83      C       5.6339261317    -8.4226546204     1.5505355213
   84      C       9.7687579877     7.2839916411    -0.1471386931
   85      H       8.4171336709     6.1743132455     2.1471953202
   86      H       7.7263330727     3.9088150811     2.5118727125
   87      H       9.0773735910     2.9694328365    -1.4098021231
   88      H       7.0765735169     1.7164339610    -1.2265567096
   89      H       3.8832688044    -3.8642486833    -3.1740618409
   90      H       4.3620312093    -5.7519975997    -1.5475786444
   91      H       6.5580519077    -8.2492078558     3.3990048259
   92      H       5.4651023123    -9.4904881248     1.5122977804
   93      H       9.6437370521     8.0027920676     0.6717207042
   94      C       9.2449078953     7.9693051590    -1.5588424378
   95      H      10.8524475121     7.1944781795    -0.2933589206
   96      H       9.3758101397     7.1981921761    -2.3276937693
   97      H       9.8022901504     8.8588487670    -1.8765879196
   98      C       7.8317246440     8.4394944245    -1.2936818206
   99      H       7.7198531751     8.5728744363    -0.2107485138
  100      C       6.7785117392     7.3641040522    -1.6723837144
  101      H       7.7218996367     9.4506474007    -1.7048972463
  102      H       6.7162641610     6.5074476631    -0.9895696328
  103      H       7.0889184729     7.0213425572    -2.6674697495
  104      C       5.3860459041     7.9448861654    -1.8507205725
  105      H       5.4056178664     8.7517942472    -2.5941143349
  106      C       4.8615469082     8.4032076877    -0.5409976302
  107      H       4.7512391057     7.0621476571    -1.9937137701
  108      H       5.3033642062     7.8820899584     0.3169946701
  109      H       3.8294522219     8.0733707819    -0.3701960669
  110      H       5.0188802344     9.4873134149    -0.4819468325
 ----------------------------------------------------------------

    9   -5663.4791735007      8.14E-06 Convergence criterion met
 Total energy in the final basis set = -5663.4791735007

                    Orbital Energies (a.u.)
 --------------------------------------------------------------

 Alpha MOs
 -- Occupied --
-88.989 -88.989 -88.932 -88.932 -88.926 -88.925 -88.913 -88.910
-14.395 -14.388 -14.384 -14.379 -14.348 -14.344 -14.343 -14.337
-14.332 -14.326 -10.269 -10.264 -10.264 -10.263 -10.262 -10.257
-10.250 -10.250 -10.244 -10.242 -10.240 -10.238 -10.237 -10.235
-10.235 -10.233 -10.231 -10.231 -10.231 -10.228 -10.228 -10.227
-10.225 -10.224 -10.224 -10.222 -10.222 -10.219 -10.218 -10.217
-10.211 -10.211 -10.210 -10.209 -10.203 -10.203 -10.202 -10.199
-10.196 -10.185 -10.185 -10.184 -10.183 -10.181 -10.176 -10.171
-10.168 -10.168 -10.167 -10.162  -8.044  -8.044  -7.994  -7.992
 -7.986  -7.983  -7.973  -7.970  -6.009  -6.009  -6.004  -6.004
 -6.002  -6.002  -5.958  -5.956  -5.954  -5.953  -5.951  -5.950
 -5.950  -5.947  -5.946  -5.943  -5.942  -5.940  -5.937  -5.934
 -5.934  -5.930  -5.929  -5.926  -1.042  -1.031  -0.997  -0.976
 -0.974  -0.963  -0.947  -0.935  -0.915  -0.914  -0.905  -0.900
 -0.848  -0.845  -0.838  -0.832  -0.824  -0.811  -0.809  -0.806
 -0.805  -0.804  -0.800  -0.796  -0.784  -0.778  -0.772  -0.767
 -0.751  -0.747  -0.741  -0.740  -0.732  -0.721  -0.710  -0.708
 -0.693  -0.693  -0.677  -0.676  -0.657  -0.656  -0.649  -0.644
 -0.636  -0.635  -0.625  -0.623  -0.615  -0.613  -0.605  -0.600
 -0.596  -0.595  -0.584  -0.583  -0.580  -0.577  -0.555  -0.549
 -0.547  -0.545  -0.543  -0.541  -0.529  -0.522  -0.517  -0.515
 -0.513  -0.507  -0.503  -0.495  -0.493  -0.485  -0.481  -0.476
 -0.474  -0.474  -0.473  -0.470  -0.466  -0.463  -0.453  -0.452
 -0.449  -0.448  -0.447  -0.445  -0.440  -0.437  -0.437  -0.433
 -0.430  -0.428  -0.425  -0.422  -0.421  -0.420  -0.419  -0.418
 -0.415  -0.412  -0.406  -0.403  -0.401  -0.400  -0.397  -0.396
 -0.395  -0.394  -0.392  -0.390  -0.386  -0.385  -0.383  -0.382
 -0.376  -0.374  -0.372  -0.371  -0.370  -0.370  -0.356  -0.354
 -0.351  -0.351  -0.348  -0.347  -0.346  -0.346  -0.345  -0.342
 -0.341  -0.337  -0.337  -0.335  -0.331  -0.330  -0.322  -0.318
 -0.315  -0.313  -0.309  -0.307  -0.304  -0.300  -0.300  -0.299
 -0.299  -0.298  -0.297  -0.290  -0.288  -0.283  -0.281  -0.276
 -0.274  -0.270  -0.268  -0.266  -0.257  -0.253  -0.250  -0.249
 -0.247  -0.244  -0.240  -0.230  -0.200  -0.193

          Ground-State Mulliken Net Atomic Charges

     Atom                 Charge (a.u.)
  ----------------------------------------
      1 C                     0.272547
      2 C                    -0.127602
      3 N                    -0.478968
      4 C                    -0.082781
      5 C                     0.093465
      6 C                     0.041790
      7 C                    -0.001906
      8 C                     0.056838
      9 C                     0.253327
     10 N                    -0.506027
     11 N                    -0.550375
     12 C                     0.172834
     13 C                     0.307853
     14 S                     0.612481
     15 N                    -0.540712
     16 C                    -0.230520
     17 S                     0.360396
     18 C                    -0.118453
     19 C                    -0.191709
     20 S                     0.292336
     21 C                     0.163884
     22 C                     0.007969
     23 C                    -0.320615
     24 C                    -0.086394
     25 N                    -0.411669
     26 S                     0.281545
     27 C                     0.117668
     28 C                    -0.308877
     29 C                    -0.221002
     30 H                     0.096402
     31 H                     0.100901
     32 H                     0.107521
     33 H                     0.113010
     34 H                     0.132446
     35 H                     0.101907
     36 H                     0.127512
     37 H                     0.123202
     38 H                     0.119863
     39 C                    -0.181156
     40 H                     0.104655
     41 H                     0.099264
     42 H                     0.104208
     43 C                    -0.188912
     44 H                     0.093582
     45 C                    -0.180760
     46 H                     0.097492
     47 H                     0.090968
     48 H                     0.092090
     49 C                    -0.198006
     50 H                     0.094419
     51 C                    -0.299733
     52 H                     0.084257
     53 H                     0.099623
     54 H                     0.097306
     55 H                     0.104386
     56 C                     0.287982
     57 C                    -0.134592
     58 N                    -0.479763
     59 C                    -0.046455
     60 C                     0.064863
     61 C                     0.067331
     62 C                     0.013127
     63 C                     0.050500
     64 C                     0.194361
     65 N                    -0.506139
     66 N                    -0.541837
     67 C                     0.215631
     68 C                     0.327797
     69 S                     0.606403
     70 N                    -0.554575
     71 C                    -0.228131
     72 S                     0.377779
     73 C                    -0.127861
     74 C                    -0.233482
     75 S                     0.275985
     76 C                     0.105771
     77 C                     0.073488
     78 C                    -0.314399
     79 C                    -0.074825
     80 N                    -0.421104
     81 S                     0.279809
     82 C                     0.123698
     83 C                    -0.305181
     84 C                    -0.247842
     85 H                     0.089968
     86 H                     0.108218
     87 H                     0.095434
     88 H                     0.107497
     89 H                     0.130702
     90 H                     0.126495
     91 H                     0.101523
     92 H                     0.136292
     93 H                     0.104111
     94 C                    -0.187028
     95 H                     0.120195
     96 H                     0.124501
     97 H                     0.086159
     98 C                    -0.174035
     99 H                     0.094328
    100 C                    -0.170692
    101 H                     0.083250
    102 H                     0.098323
    103 H                     0.089449
    104 C                    -0.170525
    105 H                     0.095205
    106 C                    -0.312412
    107 H                     0.089709
    108 H                     0.094981
    109 H                     0.094956
    110 H                     0.101281
  ----------------------------------------
  Sum of atomic charges =     0.000000

                    Cartesian Multipole Moments
 -----------------------------------------------------------------
    Charge (ESU x 10^10)
                 0.0000
    Dipole Moment (Debye)
         X       0.7211      Y      -1.2697      Z      -2.2175
       Tot       2.6550
    Quadrupole Moments (Debye-Ang)
        XX    -442.2567     XY     -11.5112     YY    -402.7675
        XZ      28.1688     YZ      14.4928     ZZ    -435.4223

 Total job time:  84.41s(wall), 956.39s(cpu)
        *  Thank you very much for using Q-Chem.  Have a nice day.  *
