 Q-Chem 4.4, Q-Chem, Inc., Pleasanton, CA (2016)
 Q-Chem 4.4.2 for Intel X86 Linux

User input:
--------------------------------------------------------------
$comment
SP
$end

$rem
MEM_STATIC 5000
MEM_TOTAL 20000
JOBTYPE SP
EXCHANGE B3LYP
BASIS 6-31g(d,p)
$end

$molecule
0 1
C          10.313000    -16.226000    -10.555000
C          10.917000    -17.277000     -9.808000
N           9.021000    -15.929000    -10.488000
C          10.159000    -18.043000     -8.929000
C           8.259000    -16.655000     -9.616000
C           8.749000    -17.764000     -8.829000
C           7.922000    -18.560000     -7.823000
C           8.229000    -19.900000     -7.589000
C           6.742000    -18.066000     -7.148000
N           7.641000    -20.686000     -6.677000
N           6.136000    -16.873000     -7.445000
C           6.044000    -18.918000     -6.255000
C           6.552000    -20.231000     -6.033000
S           4.865000    -16.838000     -6.429000
N           4.927000    -18.299000     -5.732000
C           5.975000    -21.204000     -5.100000
S           6.900000    -22.462000     -4.146000
C           4.636000    -21.394000     -4.891000
C           5.400000    -23.028000     -3.421000
S           3.363000    -20.785000     -5.860000
C           4.303000    -22.466000     -4.150000
C           5.284000    -24.072000     -2.454000
C           2.244000    -22.064000     -5.142000
C           2.938000    -22.864000     -4.143000
N           4.077000    -24.484000     -1.960000
S           6.704000    -24.774000     -1.699000
C           4.276000    -25.647000     -1.223000
C           5.619000    -26.025000     -1.110000
C          11.225000    -15.459000    -11.577000
H          11.978000    -17.498000     -9.880000
H          10.646000    -18.775000     -8.292000
H           7.218000    -16.346000     -9.536000
H           9.048000    -20.363000     -8.138000
H           1.211000    -22.079000     -5.465000
H           2.460000    -23.669000     -3.595000
H           3.441000    -26.221000     -0.842000
H           6.039000    -26.788000     -0.468000
H          11.849000    -16.150000    -12.157000
C          12.207000    -14.535000    -10.786000
H          10.518000    -14.937000    -12.235000
H          12.641000    -15.050000     -9.920000
H          11.722000    -13.621000    -10.422000
C          13.311000    -13.861000    -11.640000
H          13.581000    -14.607000    -12.398000
C          14.562000    -13.520000    -10.796000
H          12.883000    -12.960000    -12.097000
H          14.784000    -14.507000    -10.374000
H          14.360000    -12.876000     -9.932000
C          15.823000    -13.036000    -11.559000
H          16.773000    -13.195000    -11.034000
C          15.776000    -11.559000    -11.987000
H          15.925000    -13.647000    -12.464000
H          15.538000    -10.918000    -11.129000
H          14.903000    -11.418000    -12.637000
H          16.691000    -11.242000    -12.502000
C           6.244000    -14.591000    -17.982000
C           6.727000    -13.534000    -17.212000
N           5.097000    -15.270000    -17.651000
C           6.130000    -13.274000    -15.925000
C           4.477000    -14.993000    -16.493000
C           4.980000    -14.021000    -15.570000
C           4.429000    -13.975000    -14.218000
C           5.409000    -13.968000    -13.144000
C           3.041000    -13.959000    -13.903000
N           4.962000    -13.928000    -11.861000
N           2.100000    -14.171000    -14.798000
C           2.626000    -14.011000    -12.557000
C           3.623000    -14.061000    -11.544000
S           0.679000    -14.040000    -13.962000
N           1.270000    -14.067000    -12.397000
C           3.276000    -14.137000    -10.078000
S           1.634000    -14.416000     -9.497000
C           4.176000    -13.978000     -9.006000
C           2.231000    -14.334000     -7.822000
S           5.844000    -13.713000     -8.972000
C           3.539000    -13.938000     -7.749000
C           1.530000    -14.545000     -6.582000
C           5.742000    -13.307000     -7.207000
C           4.442000    -13.553000     -6.701000
N           0.233000    -14.638000     -6.825000
S           1.983000    -14.944000     -4.958000
C          -0.487000    -14.820000     -5.709000
C           0.309000    -15.065000     -4.607000
C           6.967000    -14.951000    -19.212000
H           7.657000    -13.030000    -17.458000
H           6.528000    -12.587000    -15.185000
H           3.744000    -15.716000    -16.138000
H           6.483000    -14.056000    -13.304000
H           6.655000    -13.050000     -6.687000
H           4.143000    -13.393000     -5.671000
H          -1.554000    -14.992000     -5.748000
H          -0.161000    -15.422000     -3.700000
H           7.514000    -14.045000    -19.503000
C           6.165000    -15.287000    -20.428000
H           7.770000    -15.663000    -18.986000
H           5.362000    -14.572000    -20.645000
H           5.605000    -16.231000    -20.423000
C           7.140000    -15.358000    -21.635000
H           7.812000    -14.490000    -21.637000
C           6.554000    -15.292000    -23.000000
H           7.817000    -16.207000    -21.476000
H           5.965000    -14.423000    -23.317000
H           5.787000    -16.072000    -22.917000
C           7.653000    -15.367000    -24.021000
H           8.363000    -14.537000    -23.923000
C           7.018000    -15.370000    -25.426000
H           8.264000    -16.247000    -23.785000
H           7.836000    -15.262000    -26.149000
H           6.409000    -14.494000    -25.679000
H           6.360000    -16.198000    -25.717000
$end

--------------------------------------------------------------

             Standard Nuclear Orientation (Angstroms)
    I     Atom           X                Y                Z
 ----------------------------------------------------------------
    1      C       1.5306922925    -4.2717615775     0.9649797654
    2      C       0.4797546064    -5.1155347942     0.5056294211
    3      N       1.4295677455    -2.9502646393     1.0383396213
    4      C      -0.7445847929    -4.5747751727     0.1280939037
    5      C       0.2289195616    -2.3968517422     0.6915225173
    6      C      -0.8990260642    -3.1432658183     0.1816649957
    7      C      -2.2583026904    -2.5469049255    -0.1737245639
    8      C      -3.0279271865    -3.1397039362    -1.1741607028
    9      C      -2.7912800677    -1.3192281272     0.3747330863
   10      N      -4.2672147349    -2.7705882643    -1.5251649665
   11      N      -2.0732653859    -0.4627976003     1.1682541441
   12      C      -4.0586208359    -0.8558205107    -0.0607640531
   13      C      -4.7780625433    -1.6386812753    -1.0098950518
   14      S      -3.1266126775     0.7421961277     1.4638410158
   15      N      -4.3925325833     0.3432476601     0.5351532792
   16      C      -6.1188181918    -1.3206981199    -1.5113010788
   17      S      -7.4019866559    -2.5305151836    -1.9992830098
   18      C      -6.5714933100    -0.0622360393    -1.8012328450
   19      C      -8.5013961022    -1.2163517372    -2.3996007656
   20      S      -5.6156493490     1.3509910864    -1.9409554753
   21      C      -7.7543942012     0.0048000479    -2.4379475728
   22      C      -9.8413330285    -1.3649891901    -2.8696613372
   23      C      -6.9789336587     2.1428325588    -2.8990624492
   24      C      -8.1264404105     1.2533816182    -3.0074242452
   25      N     -10.6275603368    -0.2945213560    -3.1961184337
   26      S     -10.6304414104    -2.9322323662    -2.8865666190
   27      C     -11.7754873685    -0.7660331225    -3.8248307558
   28      C     -11.8627008710    -2.1621510813    -3.8753327372
   29      C       2.9025704791    -4.9565642027     1.3018960838
   30      H       0.5881111688    -6.1951945303     0.4572588761
   31      H      -1.5704214800    -5.2322162491    -0.1259277439
   32      H       0.1559783256    -1.3184809446     0.8232722761
   33      H      -2.6412741341    -4.0137144771    -1.6967848427
   34      H      -6.8417687567     3.1622378139    -3.2361703187
   35      H      -9.0383585363     1.5266673186    -3.5275523619
   36      H     -12.4845142494    -0.0881950495    -4.2827373281
   37      H     -12.7160823796    -2.7609270968    -4.1650572340
   38      H       3.1869990987    -5.6869769701     0.5345274960
   39      C       2.7563171656    -5.7542580268     2.6383374523
   40      H       3.6220854434    -4.1277399259     1.3273034495
   41      H       1.8193368537    -6.3239309186     2.6711656617
   42      H       2.7820065198    -5.1032300259     3.5207316947
   43      C       3.9642455459    -6.6533891090     3.0055980208
   44      H       4.3325121290    -7.0421057115     2.0478615608
   45      C       3.5446508182    -7.8391536043     3.9064425280
   46      H       4.7157384009    -6.0255855997     3.5005275537
   47      H       2.7570895873    -8.2824585051     3.2861481846
   48      H       3.0461285971    -7.5429223902     4.8369040601
   49      C       4.6079436438    -8.9356204277     4.1779473573
   50      H       4.2027702525    -9.9193774529     4.4452723249
   51      C       5.6459488751    -8.5594679311     5.2493839813
   52      H       5.1438840726    -9.1254749936     3.2401450857
   53      H       5.1464532304    -8.2284588989     6.1684194112
   54      H       6.1637094726    -7.6493466753     4.9205781672
   55      H       6.3679720437    -9.3639581301     5.4349023462
   56      C       8.2628527184     0.3651921623    -1.7858366614
   57      C       8.1271364982     0.0837624165    -0.4272284008
   58      N       7.5079485826     1.3276689070    -2.4103118504
   59      C       7.0283597744     0.6664934341     0.3031771525
   60      C       6.5274564171     1.9419776309    -1.7296115454
   61      C       6.2211752837     1.6165108650    -0.3694699162
   62      C       4.9747133088     2.1063442049     0.2136397170
   63      C       4.1645277040     1.1048222547     0.8877896031
   64      C       4.5149252905     3.4516162776     0.1439042994
   65      N       2.9903770376     1.4947885909     1.4506345811
   66      N       5.0800181991     4.3640915703    -0.6173504837
   67      C       3.2480406180     3.7882059467     0.6619348209
   68      C       2.4682168291     2.7606599949     1.2608523239
   69      S       4.2082834751     5.7435482376    -0.3481370481
   70      N       2.8967684251     5.0936668030     0.4623056672
   71      C       1.0939581115     3.0206365417     1.8258002614
   72      S       0.2317679131     4.5402439566     1.5829271126
   73      C       0.3432723637     2.1294205218     2.6174251183
   74      C      -1.1266936351     3.9028085649     2.5405368158
   75      S       0.6604201978     0.5551131887     3.1414276681
   76      C      -0.8338617525     2.7060373395     3.1363531655
   77      C      -2.4109203225     4.4896436260     2.8232176012
   78      C      -0.7263904410     0.6648224247     4.3055518607
   79      C      -1.4609122383     1.8606473953     4.1131138989
   80      N      -2.4155189683     5.7469463299     2.4120293678
   81      S      -3.9612754568     3.8934321448     3.3158805969
   82      C      -3.5799049554     6.3637729922     2.6584236490
   83      C      -4.5536759334     5.4875105821     3.0965780409
   84      C       9.2833908009    -0.3641395181    -2.5551261532
   85      H       8.6984708727    -0.7074116252     0.0492720380
   86      H       6.7404079424     0.3912149957     1.3127703992
   87      H       5.7879729431     2.4898600323    -2.3118761466
   88      H       4.4123139371     0.0443261450     0.9155381908
   89      H      -0.9443293605    -0.1947378543     4.9249683232
   90      H      -2.3376097786     2.1422741893     4.6858169386
   91      H      -3.7686914750     7.3710538392     2.3129689556
   92      H      -5.5787221710     5.8322097894     3.1347967172
   93      H      10.0237256319    -0.6944878637    -1.8151935154
   94      C      10.0944737104     0.4001703371    -3.5514850039
   95      H       8.8720681054    -1.3083208383    -2.9321729336
   96      H      10.4992156584     1.3445995324    -3.1676094373
   97      H       9.5873802245     0.7474441249    -4.4608903661
   98      C      11.2596110388    -0.5151950900    -4.0173993101
   99      H      11.7450090828    -0.9880160480    -3.1537783976
  100      C      12.4130744211     0.1294694413    -4.6992401036
  101      H      10.8283119435    -1.3623973668    -4.5657061518
  102      H      13.0047191484     0.9017334169    -4.1931414287
  103      H      11.8830438226     0.7101715394    -5.4643744957
  104      C      13.4293118462    -0.9157981110    -5.0605491679
  105      H      13.8145570846    -1.4380364845    -4.1765484963
  106      C      14.5802015256    -0.2361422061    -5.8291711796
  107      H      12.9071195895    -1.7083972024    -5.6105663744
  108      H      15.3780107914    -0.9811349898    -5.9387299657
  109      H      15.1158494930     0.5543876330    -5.2902743170
  110      H      14.3731245220     0.2440106717    -6.7934332438
 ----------------------------------------------------------------

   10   -5663.4700821601      3.82E-06 Convergence criterion met
 Total energy in the final basis set = -5663.4700821601

                    Orbital Energies (a.u.)
 --------------------------------------------------------------

 Alpha MOs
 -- Occupied --
-88.989 -88.983 -88.940 -88.927 -88.926 -88.922 -88.910 -88.906
-14.389 -14.388 -14.383 -14.380 -14.348 -14.346 -14.342 -14.335
-14.332 -14.325 -10.269 -10.264 -10.264 -10.263 -10.260 -10.260
-10.254 -10.252 -10.242 -10.242 -10.240 -10.240 -10.237 -10.237
-10.237 -10.235 -10.233 -10.232 -10.228 -10.228 -10.227 -10.226
-10.226 -10.226 -10.225 -10.223 -10.223 -10.222 -10.219 -10.215
-10.214 -10.212 -10.209 -10.207 -10.207 -10.206 -10.199 -10.199
-10.193 -10.184 -10.182 -10.182 -10.181 -10.180 -10.178 -10.173
-10.172 -10.170 -10.168 -10.166  -8.043  -8.038  -8.001  -7.985
 -7.983  -7.983  -7.969  -7.966  -6.008  -6.003  -6.003  -6.002
 -5.998  -5.995  -5.965  -5.961  -5.958  -5.950  -5.948  -5.947
 -5.946  -5.944  -5.944  -5.942  -5.940  -5.940  -5.934  -5.931
 -5.930  -5.927  -5.926  -5.922  -1.034  -1.030  -0.979  -0.959
 -0.952  -0.939  -0.935  -0.927  -0.914  -0.910  -0.902  -0.899
 -0.841  -0.835  -0.826  -0.825  -0.815  -0.813  -0.807  -0.805
 -0.803  -0.798  -0.794  -0.791  -0.790  -0.779  -0.764  -0.763
 -0.749  -0.745  -0.738  -0.738  -0.724  -0.721  -0.709  -0.708
 -0.690  -0.689  -0.672  -0.668  -0.654  -0.653  -0.644  -0.638
 -0.634  -0.632  -0.625  -0.619  -0.609  -0.606  -0.599  -0.595
 -0.594  -0.585  -0.583  -0.582  -0.577  -0.576  -0.572  -0.567
 -0.545  -0.541  -0.538  -0.535  -0.523  -0.520  -0.517  -0.506
 -0.503  -0.501  -0.499  -0.497  -0.484  -0.479  -0.475  -0.475
 -0.472  -0.471  -0.469  -0.465  -0.464  -0.459  -0.449  -0.447
 -0.444  -0.443  -0.441  -0.439  -0.434  -0.433  -0.432  -0.431
 -0.430  -0.422  -0.422  -0.420  -0.419  -0.416  -0.414  -0.413
 -0.411  -0.409  -0.405  -0.404  -0.402  -0.397  -0.396  -0.394
 -0.393  -0.392  -0.391  -0.388  -0.385  -0.381  -0.379  -0.378
 -0.376  -0.375  -0.373  -0.369  -0.369  -0.368  -0.356  -0.356
 -0.354  -0.353  -0.349  -0.349  -0.345  -0.343  -0.341  -0.340
 -0.336  -0.334  -0.333  -0.332  -0.331  -0.326  -0.323  -0.320
 -0.313  -0.312  -0.310  -0.309  -0.306  -0.302  -0.300  -0.297
 -0.295  -0.292  -0.291  -0.285  -0.284  -0.279  -0.278  -0.277
 -0.275  -0.267  -0.266  -0.261  -0.254  -0.251  -0.248  -0.245
 -0.243  -0.241  -0.231  -0.228  -0.188  -0.186

          Ground-State Mulliken Net Atomic Charges

     Atom                 Charge (a.u.)
  ----------------------------------------
      1 C                     0.266294
      2 C                    -0.107179
      3 N                    -0.485796
      4 C                    -0.082341
      5 C                     0.070592
      6 C                     0.022839
      7 C                     0.047650
      8 C                     0.051311
      9 C                     0.197834
     10 N                    -0.506889
     11 N                    -0.551391
     12 C                     0.223745
     13 C                     0.247233
     14 S                     0.644868
     15 N                    -0.552596
     16 C                    -0.189401
     17 S                     0.308908
     18 C                    -0.098957
     19 C                    -0.209912
     20 S                     0.262342
     21 C                     0.118212
     22 C                     0.060196
     23 C                    -0.315891
     24 C                    -0.040367
     25 N                    -0.452737
     26 S                     0.261348
     27 C                     0.120206
     28 C                    -0.304852
     29 C                    -0.227392
     30 H                     0.088401
     31 H                     0.104837
     32 H                     0.143361
     33 H                     0.108600
     34 H                     0.133713
     35 H                     0.139180
     36 H                     0.117746
     37 H                     0.125604
     38 H                     0.105811
     39 C                    -0.184567
     40 H                     0.116279
     41 H                     0.095762
     42 H                     0.107690
     43 C                    -0.181813
     44 H                     0.087747
     45 C                    -0.178347
     46 H                     0.097403
     47 H                     0.088627
     48 H                     0.091328
     49 C                    -0.177497
     50 H                     0.092272
     51 C                    -0.314470
     52 H                     0.091065
     53 H                     0.100197
     54 H                     0.101900
     55 H                     0.101573
     56 C                     0.283331
     57 C                    -0.128664
     58 N                    -0.490840
     59 C                    -0.087972
     60 C                     0.102851
     61 C                     0.036249
     62 C                    -0.035275
     63 C                     0.075623
     64 C                     0.247047
     65 N                    -0.530859
     66 N                    -0.537259
     67 C                     0.217682
     68 C                     0.308743
     69 S                     0.591525
     70 N                    -0.570636
     71 C                    -0.226502
     72 S                     0.375407
     73 C                    -0.113640
     74 C                    -0.210765
     75 S                     0.311059
     76 C                     0.125596
     77 C                     0.040938
     78 C                    -0.305449
     79 C                    -0.106143
     80 N                    -0.418721
     81 S                     0.290774
     82 C                     0.120399
     83 C                    -0.314618
     84 C                    -0.231162
     85 H                     0.089559
     86 H                     0.102296
     87 H                     0.113512
     88 H                     0.135923
     89 H                     0.136434
     90 H                     0.115829
     91 H                     0.117451
     92 H                     0.133291
     93 H                     0.106612
     94 C                    -0.172794
     95 H                     0.118524
     96 H                     0.098766
     97 H                     0.110158
     98 C                    -0.185991
     99 H                     0.078154
    100 C                    -0.157183
    101 H                     0.090953
    102 H                     0.089205
    103 H                     0.087985
    104 C                    -0.172685
    105 H                     0.097201
    106 C                    -0.327586
    107 H                     0.093632
    108 H                     0.092564
    109 H                     0.100769
    110 H                     0.108428
  ----------------------------------------
  Sum of atomic charges =     0.000000

                    Cartesian Multipole Moments
 -----------------------------------------------------------------
    Charge (ESU x 10^10)
                 0.0000
    Dipole Moment (Debye)
         X      -2.1928      Y      -1.9575      Z       1.9695
       Tot       3.5382
    Quadrupole Moments (Debye-Ang)
        XX    -409.2205     XY     -20.5309     YY    -417.4399
        XZ       9.6244     YZ      -1.3270     ZZ    -443.7735

 Total job time:  89.91s(wall), 1056.11s(cpu)
        *  Thank you very much for using Q-Chem.  Have a nice day.  *
