 Q-Chem 4.4, Q-Chem, Inc., Pleasanton, CA (2016)
 Q-Chem 4.4.2 for Intel X86 Linux

User input:
--------------------------------------------------------------
$comment
SP
$end

$rem
MEM_STATIC 5000
MEM_TOTAL 20000
JOBTYPE SP
EXCHANGE B3LYP
BASIS 6-31g(d,p)
$end

$molecule
0 1
C          13.860000     19.931000     15.414000
C          12.597000     19.817000     14.952000
N          14.906000     19.745000     14.682000
C          12.385000     19.620000     13.568000
C          14.699000     19.581000     13.329000
C          13.426000     19.576000     12.686000
C          13.187000     19.459000     11.158000
C          12.071000     18.781000     10.642000
C          13.919000     20.181000     10.163000
N          11.875000     18.528000      9.309000
N          14.840000     21.064000     10.479000
C          13.742000     19.948000      8.838000
C          12.688000     19.150000      8.405000
S          15.585000     21.498000      9.069000
N          14.620000     20.641000      8.020000
C          12.286000     19.006000      7.021000
S          12.880000     19.921000      5.674000
C          11.366000     18.060000      6.609000
C          11.935000     19.003000      4.509000
S          10.430000     16.760000      7.412000
C          11.186000     18.068000      5.219000
C          11.724000     19.355000      3.128000
C           9.879000     16.201000      5.824000
C          10.237000     17.106000      4.799000
N          10.576000     19.159000      2.489000
S          12.940000     20.238000      2.246000
C          10.688000     19.676000      1.182000
C          11.862000     20.347000      0.896000
C          14.160000     19.880000     16.904000
H          11.761000     19.898000     15.640000
H          11.370000     19.472000     13.211000
H          15.492000     19.378000     12.610000
H          11.416000     18.208000     11.296000
H           9.311000     15.280000      5.794000
H           9.828000     17.032000      3.798000
H           9.883000     19.582000      0.465000
H          12.217000     20.717000     -0.057000
H          14.982000     20.532000     17.223000
C          14.584000     18.396000     17.390000
H          13.252000     20.216000     17.419000
H          15.489000     18.088000     16.852000
H          13.818000     17.692000     17.042000
C          14.743000     18.270000     18.907000
H          15.490000     18.965000     19.311000
C          15.058000     16.841000     19.440000
H          13.792000     18.527000     19.391000
H          15.351000     16.915000     20.495000
H          15.998000     16.518000     18.977000
C          13.912000     15.828000     19.324000
H          13.073000     16.165000     19.946000
C          14.331000     14.468000     19.896000
H          13.547000     15.839000     18.290000
H          15.390000     14.317000     19.655000
H          13.784000     13.682000     19.361000
H          14.145000     14.391000     20.974000
C          19.787000     26.072000      7.791000
C          18.493000     26.543000      7.577000
N          20.236000     25.577000      8.943000
C          17.586000     26.409000      8.612000
C          19.350000     25.448000      9.974000
C          17.990000     25.817000      9.872000
C          17.003000     25.698000     10.982000
C          16.019000     26.700000     11.241000
C          16.844000     24.525000     11.778000
N          15.153000     26.729000     12.290000
N          17.508000     23.362000     11.620000
C          15.928000     24.505000     12.827000
C          15.168000     25.660000     13.100000
S          16.881000     22.350000     12.733000
N          15.970000     23.351000     13.523000
C          14.225000     25.690000     14.273000
S          14.418000     24.799000     15.771000
C          13.113000     26.523000     14.339000
C          12.862000     25.425000     16.351000
S          12.400000     27.653000     13.242000
C          12.363000     26.386000     15.562000
C          12.138000     24.744000     17.355000
C          11.095000     27.919000     14.431000
C          11.204000     27.186000     15.593000
N          11.140000     25.416000     18.004000
S          12.512000     23.119000     17.955000
C          10.478000     24.521000     18.871000
C          11.078000     23.277000     18.939000
C          20.879000     26.209000      6.787000
H          18.224000     27.085000      6.675000
H          16.573000     26.793000      8.534000
H          19.816000     24.993000     10.847000
H          15.877000     27.572000     10.604000
H          10.257000     28.552000     14.169000
H          10.410000     27.133000     16.329000
H           9.562000     24.826000     19.360000
H          10.667000     22.465000     19.524000
H          20.396000     26.748000      5.963000
C          21.365000     24.796000      6.234000
H          21.761000     26.716000      7.200000
H          20.545000     24.068000      6.227000
H          22.178000     24.379000      6.842000
C          21.997000     24.855000      4.831000
H          22.859000     25.528000      4.921000
C          20.993000     25.292000      3.708000
H          22.371000     23.837000      4.667000
H          20.696000     26.346000      3.773000
H          20.099000     24.655000      3.737000
C          21.681000     25.126000      2.326000
H          22.073000     24.103000      2.259000
C          22.945000     26.119000      2.179000
H          20.951000     25.318000      1.530000
H          23.760000     25.905000      2.881000
H          22.715000     27.181000      2.331000
H          23.342000     25.989000      1.165000
$end

--------------------------------------------------------------

             Standard Nuclear Orientation (Angstroms)
    I     Atom           X                Y                Z
 ----------------------------------------------------------------
    1      C      -4.6067468265    -1.5750375525     1.5628355491
    2      C      -4.3975886538    -2.4839866231     0.5872980328
    3      N      -3.6856567531    -1.1736743350     2.3721788906
    4      C      -3.0802461715    -2.9297715012     0.3321635057
    5      C      -2.3978505241    -1.5868243079     2.1053152241
    6      C      -2.0133471284    -2.4372809537     1.0269444010
    7      C      -0.5601706096    -2.8533532399     0.6794449648
    8      C      -0.2680476663    -4.1234457456     0.1570225180
    9      C       0.5557047275    -1.9584680663     0.6457439540
   10      N       1.0025081747    -4.5976273255    -0.0433613240
   11      N       0.4215045105    -0.6686234402     0.8603998233
   12      C       1.8220341897    -2.4044628561     0.4489157535
   13      C       2.0450520602    -3.7217010677     0.0611587117
   14      S       1.9478343672    -0.0411890038     0.9505341488
   15      N       2.7925893876    -1.4232013968     0.5730348758
   16      C       3.3254809570    -4.2408661711    -0.3733127322
   17      S       4.7594684878    -3.3189743422    -0.6867855658
   18      C       3.5542313706    -5.5909446006    -0.5631059944
   19      C       5.7220670003    -4.7504834993    -1.0290714651
   20      S       2.5888237540    -7.0867906753    -0.3597893581
   21      C       4.8830940045    -5.8567202635    -0.9209486935
   22      C       7.0351624758    -4.7632626554    -1.6216952627
   23      C       4.0416926098    -8.0467321690    -0.6846130281
   24      C       5.1141246753    -7.2378949489    -1.1244832547
   25      N       7.4404525632    -5.6878449763    -2.4851351720
   26      S       8.1333995963    -3.4352445097    -1.3637959961
   27      C       8.7430045873    -5.3664411961    -2.9188860620
   28      C       9.2489609839    -4.1607948218    -2.4708481787
   29      C      -6.0103788653    -1.2586840105     2.0552160281
   30      H      -5.2345848394    -2.8459384370    -0.0019635981
   31      H      -2.9260166871    -3.7029392932    -0.4148323655
   32      H      -1.5384291699    -1.3505659417     2.7318899764
   33      H      -1.0348757527    -4.8944276527     0.1057235443
   34      H       3.9637170768    -9.1191108968    -0.5593585649
   35      H       6.0172496703    -7.6612884018    -1.5485837469
   36      H       9.2909194925    -6.0121338838    -3.5925478539
   37      H      10.2516329108    -3.7663601058    -2.5718643250
   38      H      -6.1660509743    -0.2102460702     2.3364509474
   39      C      -6.4010894827    -2.1127147889     3.3728672123
   40      H      -6.6922750613    -1.4838626219     1.2264234299
   41      H      -5.6972850904    -1.8700159123     4.1785282035
   42      H      -6.2059866898    -3.1715556511     3.1624701387
   43      C      -7.8582929704    -1.9376260038     3.8068578950
   44      H      -8.1119892906    -0.8908083977     4.0167652001
   45      C      -8.3163587421    -2.8088856383     5.0136873768
   46      H      -8.5178812688    -2.2546582296     2.9888482102
   47      H      -9.2949111885    -2.4494236394     5.3565753775
   48      H      -7.6793221184    -2.5479935352     5.8671612490
   49      C      -8.4215647292    -4.3138684234     4.7363797555
   50      H      -9.1950875593    -4.4839138116     3.9766949543
   51      C      -8.8979550667    -5.0632559390     5.9869058839
   52      H      -7.4777805674    -4.6475875213     4.2887135632
   53      H      -8.4561609836    -4.5688826271     6.8602763761
   54      H      -8.4767832237    -6.0759064789     5.9673313423
   55      H      -9.9913575138    -5.1100764862     6.0568195815
   56      C       4.0023723394     5.9538243328     1.1747055451
   57      C       3.9606250335     5.5155655568    -0.1475120647
   58      N       2.9603950557     5.9713710864     2.0039856254
   59      C       2.7700361685     4.9821084472    -0.6054986004
   60      C       1.7777808705     5.4541001143     1.5585056255
   61      C       1.6136570019     4.9087285049     0.2655252840
   62      C       0.3339636049     4.3474141997    -0.2519117269
   63      C      -0.1132969196     4.5702962727    -1.5896794963
   64      C      -0.4745566944     3.4213492757     0.4716383281
   65      N      -1.3101312434     4.1915930245    -2.1144360599
   66      N      -0.1878742142     2.8897758600     1.6773214785
   67      C      -1.6809334475     2.9737975710    -0.0614747941
   68      C      -2.0989977654     3.4544134139    -1.3186082945
   69      S      -1.3984078098     1.8441115283     1.9891491863
   70      N      -2.3524985593     2.1727085861     0.7900842108
   71      C      -3.4323913983     3.0443999756    -1.8843188212
   72      S      -4.8622880756     2.6358209419    -0.9550219549
   73      C      -3.7146109318     3.0341116703    -3.2463156221
   74      C      -5.7341479537     2.2539718400    -2.4528415757
   75      S      -2.7794151336     3.3628296399    -4.6626599713
   76      C      -5.0592541252     2.6154454707    -3.5523406138
   77      C      -6.8574167678     1.3972540880    -2.4368770930
   78      C      -4.1992045715     2.9211421745    -5.6508968533
   79      C      -5.3161409297     2.5466121829    -4.9356385383
   80      N      -7.6891125956     1.3976995749    -3.5218060545
   81      S      -7.3692634298     0.4153448946    -1.0532700930
   82      C      -8.6653898192     0.3940559313    -3.3470484526
   83      C      -8.6125986518    -0.2135208710    -2.1059910317
   84      C       5.1983405975     6.6053395916     1.7783915507
   85      H       4.7920348944     5.6733625219    -0.8283841239
   86      H       2.6494770587     4.6615467887    -1.6362336411
   87      H       1.0127091076     5.4806981924     2.3332751008
   88      H       0.4818006996     5.0958056982    -2.3353440773
   89      H      -4.1060555585     2.8809583681    -6.7285264385
   90      H      -6.1917362024     2.1102770296    -5.4024206637
   91      H      -9.3232412416     0.1365856247    -4.1668914542
   92      H      -9.2638603706    -1.0328830805    -1.8321411763
   93      H       5.9118198890     6.6402971454     0.9462189303
   94      C       5.8387895533     5.7228707696     2.9401350306
   95      H       4.9624525386     7.5870362697     2.2098662960
   96      H       5.6889551806     4.6524301707     2.7553660257
   97      H       5.4007554941     5.9584811346     3.9184682657
   98      C       7.3374065726     5.9875633043     3.1755047218
   99      H       7.4140881767     7.0498967191     3.4393998666
  100      C       8.2436860524     5.5915903318     1.9581399821
  101      H       7.5734589882     5.3937338290     4.0669876500
  102      H       8.1195647310     6.2487803495     1.0886313978
  103      H       8.0439636047     4.5521624135     1.6656565695
  104      C       9.7331509525     5.7155983515     2.3787827311
  105      H       9.8775344352     5.1401147977     3.3021754369
  106      C      10.1192742665     7.2454701052     2.7190108950
  107      H      10.3723062553     5.3311438365     1.5743853014
  108      H       9.5888509463     7.6530730935     3.5881115251
  109      H       9.9227420235     7.9597447996     1.9096687310
  110      H      11.1912843332     7.2647043390     2.9495091834
 ----------------------------------------------------------------

   10   -5663.5377541746      5.76E-06 Convergence criterion met
 Total energy in the final basis set = -5663.5377541746

                    Orbital Energies (a.u.)
 --------------------------------------------------------------

 Alpha MOs
 -- Occupied --
-88.994 -88.986 -88.930 -88.926 -88.926 -88.918 -88.912 -88.908
-14.396 -14.385 -14.377 -14.370 -14.354 -14.350 -14.350 -14.340
-14.332 -14.324 -10.273 -10.265 -10.264 -10.259 -10.257 -10.255
-10.250 -10.247 -10.245 -10.243 -10.242 -10.240 -10.237 -10.236
-10.234 -10.234 -10.233 -10.231 -10.228 -10.228 -10.228 -10.227
-10.227 -10.226 -10.225 -10.223 -10.222 -10.221 -10.220 -10.219
-10.214 -10.211 -10.209 -10.203 -10.199 -10.199 -10.196 -10.193
-10.186 -10.184 -10.184 -10.182 -10.179 -10.178 -10.178 -10.178
-10.177 -10.175 -10.175 -10.173  -8.048  -8.041  -7.990  -7.988
 -7.987  -7.978  -7.970  -7.967  -6.013  -6.008  -6.006  -6.006
 -6.000  -5.999  -5.954  -5.952  -5.951  -5.950  -5.948  -5.947
 -5.947  -5.945  -5.944  -5.942  -5.938  -5.935  -5.934  -5.932
 -5.931  -5.928  -5.927  -5.924  -1.045  -1.040  -0.966  -0.957
 -0.956  -0.953  -0.947  -0.937  -0.914  -0.907  -0.904  -0.900
 -0.844  -0.841  -0.835  -0.829  -0.815  -0.810  -0.808  -0.802
 -0.800  -0.800  -0.798  -0.793  -0.784  -0.781  -0.769  -0.761
 -0.750  -0.742  -0.741  -0.737  -0.727  -0.720  -0.709  -0.705
 -0.696  -0.686  -0.679  -0.671  -0.659  -0.657  -0.651  -0.643
 -0.641  -0.634  -0.633  -0.623  -0.611  -0.609  -0.600  -0.594
 -0.591  -0.587  -0.584  -0.582  -0.581  -0.579  -0.563  -0.555
 -0.553  -0.546  -0.543  -0.537  -0.522  -0.517  -0.515  -0.513
 -0.506  -0.505  -0.502  -0.496  -0.493  -0.485  -0.479  -0.476
 -0.474  -0.470  -0.467  -0.466  -0.459  -0.456  -0.449  -0.449
 -0.444  -0.440  -0.439  -0.438  -0.435  -0.433  -0.431  -0.429
 -0.429  -0.425  -0.422  -0.422  -0.420  -0.417  -0.415  -0.415
 -0.409  -0.408  -0.407  -0.404  -0.401  -0.401  -0.397  -0.395
 -0.393  -0.391  -0.389  -0.387  -0.386  -0.385  -0.382  -0.378
 -0.377  -0.376  -0.376  -0.375  -0.365  -0.360  -0.358  -0.355
 -0.352  -0.351  -0.351  -0.347  -0.344  -0.344  -0.343  -0.342
 -0.338  -0.336  -0.334  -0.333  -0.329  -0.329  -0.320  -0.320
 -0.317  -0.315  -0.314  -0.307  -0.305  -0.302  -0.301  -0.299
 -0.296  -0.292  -0.290  -0.289  -0.286  -0.285  -0.285  -0.281
 -0.279  -0.275  -0.269  -0.267  -0.256  -0.256  -0.251  -0.250
 -0.249  -0.240  -0.234  -0.230  -0.198  -0.191

          Ground-State Mulliken Net Atomic Charges

     Atom                 Charge (a.u.)
  ----------------------------------------
      1 C                     0.289742
      2 C                    -0.108103
      3 N                    -0.488556
      4 C                    -0.088543
      5 C                     0.077079
      6 C                     0.064153
      7 C                     0.030347
      8 C                     0.050621
      9 C                     0.262548
     10 N                    -0.525654
     11 N                    -0.581279
     12 C                     0.216000
     13 C                     0.304472
     14 S                     0.616403
     15 N                    -0.568441
     16 C                    -0.238517
     17 S                     0.346631
     18 C                    -0.098301
     19 C                    -0.234213
     20 S                     0.284875
     21 C                     0.155643
     22 C                     0.061693
     23 C                    -0.315716
     24 C                    -0.067551
     25 N                    -0.432528
     26 S                     0.266569
     27 C                     0.106718
     28 C                    -0.298572
     29 C                    -0.225359
     30 H                     0.093752
     31 H                     0.094504
     32 H                     0.102616
     33 H                     0.113315
     34 H                     0.136750
     35 H                     0.123497
     36 H                     0.116333
     37 H                     0.139865
     38 H                     0.115196
     39 C                    -0.173325
     40 H                     0.088344
     41 H                     0.114304
     42 H                     0.089961
     43 C                    -0.179580
     44 H                     0.089913
     45 C                    -0.180728
     46 H                     0.084953
     47 H                     0.087449
     48 H                     0.089700
     49 C                    -0.173931
     50 H                     0.092192
     51 C                    -0.320500
     52 H                     0.096879
     53 H                     0.105642
     54 H                     0.101263
     55 H                     0.108340
     56 C                     0.278409
     57 C                    -0.118688
     58 N                    -0.476653
     59 C                    -0.074983
     60 C                     0.077222
     61 C                     0.031454
     62 C                     0.024062
     63 C                     0.043794
     64 C                     0.227008
     65 N                    -0.515510
     66 N                    -0.581976
     67 C                     0.210357
     68 C                     0.286374
     69 S                     0.650546
     70 N                    -0.533814
     71 C                    -0.221314
     72 S                     0.308586
     73 C                    -0.101162
     74 C                    -0.239146
     75 S                     0.275343
     76 C                     0.162837
     77 C                     0.034280
     78 C                    -0.314000
     79 C                    -0.034873
     80 N                    -0.443974
     81 S                     0.282974
     82 C                     0.120993
     83 C                    -0.313362
     84 C                    -0.214072
     85 H                     0.095931
     86 H                     0.097820
     87 H                     0.113787
     88 H                     0.109023
     89 H                     0.125702
     90 H                     0.131485
     91 H                     0.116030
     92 H                     0.124452
     93 H                     0.086740
     94 C                    -0.179036
     95 H                     0.120209
     96 H                     0.091009
     97 H                     0.104578
     98 C                    -0.176260
     99 H                     0.095606
    100 C                    -0.167434
    101 H                     0.091504
    102 H                     0.094082
    103 H                     0.087344
    104 C                    -0.177602
    105 H                     0.095788
    106 C                    -0.326762
    107 H                     0.088073
    108 H                     0.107974
    109 H                     0.100806
    110 H                     0.099574
  ----------------------------------------
  Sum of atomic charges =     0.000000

                    Cartesian Multipole Moments
 -----------------------------------------------------------------
    Charge (ESU x 10^10)
                 0.0000
    Dipole Moment (Debye)
         X       2.1530      Y      -3.2108      Z      -1.3996
       Tot       4.1114
    Quadrupole Moments (Debye-Ang)
        XX    -390.2923     XY      20.8691     YY    -447.7350
        XZ      -9.3027     YZ      -0.9857     ZZ    -444.2999

 Total job time:  97.37s(wall), 1096.04s(cpu)
        *  Thank you very much for using Q-Chem.  Have a nice day.  *
