 Q-Chem 4.4, Q-Chem, Inc., Pleasanton, CA (2016)
 Q-Chem 4.4.2 for Intel X86 Linux

User input:
--------------------------------------------------------------
$comment
SP
$end

$rem
MEM_STATIC 5000
MEM_TOTAL 20000
JOBTYPE SP
EXCHANGE B3LYP
BASIS 6-31g(d,p)
$end

$molecule
0 1
C          10.913000     23.372000      2.705000
C          11.901000     23.622000      3.661000
N           9.735000     22.771000      3.015000
C          11.637000     23.244000      4.988000
C           9.519000     22.365000      4.290000
C          10.437000     22.604000      5.339000
C          10.235000     22.070000      6.776000
C          10.887000     22.741000      7.826000
C           9.390000     21.000000      7.130000
N          10.772000     22.408000      9.106000
N           8.629000     20.218000      6.214000
C           9.322000     20.600000      8.495000
C           9.983000     21.317000      9.487000
S           7.962000     19.081000      7.234000
N           8.482000     19.510000      8.612000
C           9.683000     21.077000     10.940000
S           8.312000     20.128000     11.605000
C          10.232000     21.810000     11.960000
C           8.554000     20.810000     13.217000
S          11.492000     23.036000     11.934000
C           9.633000     21.651000     13.187000
C           7.683000     20.762000     14.375000
C          11.272000     23.287000     13.704000
C          10.297000     22.442000     14.193000
N           8.113000     20.975000     15.583000
S           5.942000     20.429000     14.272000
C           7.077000     20.839000     16.471000
C           5.867000     20.719000     15.967000
C          11.019000     23.962000      1.271000
H          12.820000     24.094000      3.327000
H          12.384000     23.409000      5.759000
H           8.613000     21.821000      4.557000
H          11.469000     23.659000      7.745000
H          11.841000     23.909000     14.382000
H          10.022000     22.441000     15.241000
H           7.116000     20.820000     17.552000
H           4.920000     20.686000     16.491000
H          11.457000     24.967000      1.248000
C           9.672000     24.000000      0.446000
H          11.791000     23.396000      0.736000
H           9.083000     24.844000      0.826000
H           9.135000     23.062000      0.636000
C           9.942000     24.301000     -1.075000
H          10.550000     25.211000     -1.155000
C           8.672000     24.539000     -1.984000
H          10.656000     23.516000     -1.352000
H           8.390000     25.564000     -1.711000
H           7.826000     23.999000     -1.541000
C           8.893000     24.418000     -3.522000
H           9.453000     25.287000     -3.888000
C           7.514000     24.402000     -4.306000
H           9.446000     23.479000     -3.654000
H           7.087000     25.361000     -3.987000
H           6.925000     23.553000     -3.939000
H           7.784000     24.307000     -5.366000
C          19.787000     26.072000      7.791000
C          18.493000     26.543000      7.577000
N          20.236000     25.577000      8.943000
C          17.586000     26.409000      8.612000
C          19.350000     25.448000      9.974000
C          17.990000     25.817000      9.872000
C          17.003000     25.698000     10.982000
C          16.019000     26.700000     11.241000
C          16.844000     24.525000     11.778000
N          15.153000     26.729000     12.290000
N          17.508000     23.362000     11.620000
C          15.928000     24.505000     12.827000
C          15.168000     25.660000     13.100000
S          16.881000     22.350000     12.733000
N          15.970000     23.351000     13.523000
C          14.225000     25.690000     14.273000
S          14.418000     24.799000     15.771000
C          13.113000     26.523000     14.339000
C          12.862000     25.425000     16.351000
S          12.400000     27.653000     13.242000
C          12.363000     26.386000     15.562000
C          12.138000     24.744000     17.355000
C          11.095000     27.919000     14.431000
C          11.204000     27.186000     15.593000
N          11.140000     25.416000     18.004000
S          12.512000     23.119000     17.955000
C          10.478000     24.521000     18.871000
C          11.078000     23.277000     18.939000
C          20.879000     26.209000      6.787000
H          18.224000     27.085000      6.675000
H          16.573000     26.793000      8.534000
H          19.816000     24.993000     10.847000
H          15.877000     27.572000     10.604000
H          10.257000     28.552000     14.169000
H          10.410000     27.133000     16.329000
H           9.562000     24.826000     19.360000
H          10.667000     22.465000     19.524000
H          20.396000     26.748000      5.963000
C          21.365000     24.796000      6.234000
H          21.761000     26.716000      7.200000
H          20.545000     24.068000      6.227000
H          22.178000     24.379000      6.842000
C          21.997000     24.855000      4.831000
H          22.859000     25.528000      4.921000
C          20.993000     25.292000      3.708000
H          22.371000     23.837000      4.667000
H          20.696000     26.346000      3.773000
H          20.099000     24.655000      3.737000
C          21.681000     25.126000      2.326000
H          22.073000     24.103000      2.259000
C          22.945000     26.119000      2.179000
H          20.951000     25.318000      1.530000
H          23.760000     25.905000      2.881000
H          22.715000     27.181000      2.331000
H          23.342000     25.989000      1.165000
$end

--------------------------------------------------------------

             Standard Nuclear Orientation (Angstroms)
    I     Atom           X                Y                Z
 ----------------------------------------------------------------
    1      C       6.6156886487    -3.3212260851    -0.4583989670
    2      C       5.9190350792    -2.1161478389    -0.3357603730
    3      N       6.0146539367    -4.5291888574    -0.3016564528
    4      C       4.5439056349    -2.1817122481    -0.0560653254
    5      C       4.6987639477    -4.5725180052     0.0203266555
    6      C       3.8954898204    -3.4136622325     0.1300990307
    7      C       2.4163062129    -3.4508728453     0.5790536226
    8      C       1.5830452259    -2.3863853045     0.1912554751
    9      C       1.8136492311    -4.5057523566     1.2919875458
   10      N       0.2894115238    -2.3115578610     0.4800922774
   11      N       2.4850333412    -5.6768096799     1.7475850898
   12      C       0.4430489610    -4.3915249143     1.6611162377
   13      C      -0.3286624301    -3.3164001681     1.2325811646
   14      S       1.2686911101    -6.4396746198     2.5941113212
   15      N       0.0707926297    -5.5030420737     2.3914201664
   16      C      -1.8249449191    -3.3386618360     1.3720520618
   17      S      -2.8374829299    -4.7601375991     1.7923381926
   18      C      -2.6473963408    -2.3537012723     0.8898525730
   19      C      -4.3069338867    -3.9366123572     1.2587165463
   20      S      -2.2623056025    -0.7920650915     0.1796768467
   21      C      -3.9838272847    -2.6725425013     0.8462222758
   22      C      -5.6283519739    -4.4811610889     1.0153445724
   23      C      -4.0161937567    -0.5007511733    -0.1089640091
   24      C      -4.7634777404    -1.5661569451     0.3495642770
   25      N      -6.6952220297    -3.7394234692     0.9814832716
   26      S      -5.9327580520    -6.2051814380     0.7192537498
   27      C      -7.7960452850    -4.5263529680     0.7595235352
   28      C      -7.5791846092    -5.7855946102     0.4436154257
   29      C       8.0746925564    -3.3516484853    -0.9932578968
   30      H       6.4778305887    -1.1938338428    -0.4621940358
   31      H       3.9686471432    -1.2677497610     0.0598020119
   32      H       4.2031370082    -5.5229832588     0.2178886423
   33      H       1.8519643713    -1.5605566849    -0.4673024830
   34      H      -4.5089442858     0.3860282059    -0.4846610264
   35      H      -5.8438644222    -1.5767515653     0.2684324599
   36      H      -8.8408721659    -4.2494071855     0.8051395678
   37      H      -8.2992134619    -6.5396623768     0.1513582535
   38      H       8.2614766175    -2.6139738032    -1.7827803968
   39      C       8.5846439361    -4.7552919361    -1.5092158926
   40      H       8.7263254052    -2.9644973010    -0.2007595745
   41      H       8.1429117160    -4.9161242297    -2.5005092997
   42      H       8.2181547778    -5.5219597278    -0.8147958511
   43      C      10.1446701623    -4.7550931716    -1.7172065991
   44      H      10.4177775837    -3.9080797971    -2.3591915519
   45      C      10.7668612708    -6.0394119109    -2.3948706754
   46      H      10.5175942171    -4.4365495392    -0.7362847858
   47      H      10.5089311930    -5.8831082415    -3.4501996468
   48      H      10.1133781490    -6.8934717289    -2.1778300414
   49      C      12.3040061176    -6.2321348359    -2.2246661093
   50      H      12.8421472645    -5.5084766658    -2.8487173563
   51      C      12.7633628658    -7.6740096456    -2.7006297747
   52      H      12.4900153327    -6.0797339119    -1.1536252463
   53      H      12.4243610728    -7.6618665801    -3.7440382902
   54      H      12.2192440366    -8.4170222703    -2.1054172587
   55      H      13.8478083416    -7.7035661679    -2.5314274634
   56      C       3.7963611913     6.8552385264     0.1710712066
   57      C       3.7527029591     5.7881479565    -0.7241855579
   58      N       2.7400543581     7.3592304872     0.8066323584
   59      C       2.5372526950     5.1531648625    -0.9011237557
   60      C       1.5334448736     6.7441767540     0.6322750896
   61      C       1.3593684354     5.6077336105    -0.1889187823
   62      C       0.0543886968     4.9221826021    -0.4068125565
   63      C      -0.3455172030     4.4277139504    -1.6854512951
   64      C      -0.8349200596     4.5585430669     0.6475698335
   65      N      -1.5545207287     3.8890670730    -2.0006782233
   66      N      -0.6144703161     4.7294958786     1.9668901308
   67      C      -2.0582245356     3.9575704194     0.3608381891
   68      C      -2.4122078306     3.7227744358    -0.9829328750
   69      S      -1.9040548304     4.0671727745     2.7114315240
   70      N      -2.8048112224     3.7606578695     1.4661570421
   71      C      -3.7587235593     3.1427410265    -1.3243045736
   72      S      -5.2348599230     3.3573261884    -0.4022912093
   73      C      -4.0103606982     2.4295549209    -2.4917091004
   74      C      -6.0982441872     2.2866067286    -1.5236918740
   75      S      -3.0223640760     1.9148502654    -3.8136848158
   76      C      -5.3745373700     1.9797250795    -2.6086412258
   77      C      -7.2805365735     1.6241355832    -1.1246057996
   78      C      -4.4478488236     1.0893548594    -4.5021995717
   79      C      -5.6046658950     1.2043941535    -3.7619602698
   80      N      -8.0855091077     1.0934512155    -2.0937199937
   81      S      -7.8928445259     1.5466044003     0.5365892182
   82      C      -9.1354016444     0.3828463518    -1.4742650808
   83      C      -9.1544558898     0.5195972724    -0.0983667846
   84      C       5.0224384805     7.6669373206     0.4100869981
   85      H       4.6083856330     5.5215921116    -1.3377685949
   86      H       2.4169788674     4.3435589409    -1.6151135722
   87      H       0.7551257161     7.2133609048     1.2326046005
   88      H       0.3025425117     4.4505565459    -2.5605591867
   89      H      -4.3337234661     0.4822059568    -5.3909754787
   90      H      -6.4988122429     0.6315226847    -3.9793575760
   91      H      -9.7915971126    -0.2353649309    -2.0729505721
   92      H      -9.8691729282     0.0014385254     0.5270779116
   93      H       5.7550454238     7.2222368520    -0.2742481244
   94      C       5.5712800635     7.4995742793     1.8964707067
   95      H       4.8484685306     8.7388199868     0.2477786298
   96      H       5.3486942979     6.5016901486     2.2928491099
   97      H       5.1295983614     8.2371874457     2.5786481697
   98      C       7.0794508349     7.7739127891     2.0430084361
   99      H       7.2267348080     8.8102874051     1.7139064966
  100      C       7.9818093929     6.7509885947     1.2687416053
  101      H       7.2519586703     7.7288354785     3.1252769254
  102      H       7.9249964146     6.8558439453     0.1782703122
  103      H       7.7141320267     5.7250607445     1.5545157710
  104      C       9.4665409936     7.0041970609     1.6459438671
  105      H       9.5482526151     6.9960567302     2.7404478397
  106      C       9.9544415466     8.4620165298     1.1539383320
  107      H      10.0941193255     6.2221271284     1.2010932652
  108      H       9.4355061125     9.2924584968     1.6477977803
  109      H       9.8282002795     8.6506139664     0.0804663252
  110      H      11.0196062261     8.5467632163     1.4008132084
 ----------------------------------------------------------------

   11   -5663.5204322418      8.82E-06 Convergence criterion met
 Total energy in the final basis set = -5663.5204322418

                    Orbital Energies (a.u.)
 --------------------------------------------------------------

 Alpha MOs
 -- Occupied --
-88.996 -88.992 -88.930 -88.929 -88.925 -88.921 -88.912 -88.905
-14.388 -14.385 -14.383 -14.377 -14.356 -14.352 -14.345 -14.344
-14.328 -14.326 -10.273 -10.269 -10.269 -10.264 -10.262 -10.259
-10.255 -10.253 -10.245 -10.244 -10.243 -10.241 -10.241 -10.234
-10.233 -10.232 -10.232 -10.231 -10.230 -10.229 -10.228 -10.227
-10.225 -10.225 -10.224 -10.222 -10.222 -10.222 -10.217 -10.217
-10.215 -10.212 -10.209 -10.203 -10.201 -10.200 -10.197 -10.188
-10.188 -10.184 -10.183 -10.180 -10.180 -10.179 -10.178 -10.176
-10.175 -10.175 -10.175 -10.174  -8.052  -8.048  -7.990  -7.987
 -7.984  -7.983  -7.972  -7.964  -6.016  -6.013  -6.011  -6.010
 -6.007  -6.006  -5.954  -5.952  -5.951  -5.949  -5.948  -5.947
 -5.947  -5.945  -5.944  -5.943  -5.941  -5.940  -5.936  -5.933
 -5.928  -5.928  -5.924  -5.920  -1.052  -1.041  -0.981  -0.961
 -0.953  -0.951  -0.939  -0.930  -0.913  -0.913  -0.906  -0.895
 -0.847  -0.837  -0.833  -0.825  -0.816  -0.813  -0.811  -0.802
 -0.801  -0.797  -0.794  -0.790  -0.784  -0.778  -0.765  -0.765
 -0.746  -0.745  -0.739  -0.736  -0.725  -0.725  -0.708  -0.704
 -0.692  -0.689  -0.678  -0.676  -0.661  -0.651  -0.648  -0.645
 -0.638  -0.633  -0.627  -0.623  -0.612  -0.606  -0.595  -0.589
 -0.588  -0.586  -0.584  -0.582  -0.576  -0.573  -0.567  -0.556
 -0.550  -0.549  -0.543  -0.542  -0.522  -0.518  -0.514  -0.510
 -0.508  -0.506  -0.500  -0.499  -0.488  -0.482  -0.480  -0.478
 -0.473  -0.472  -0.470  -0.463  -0.460  -0.457  -0.454  -0.448
 -0.444  -0.443  -0.440  -0.440  -0.436  -0.433  -0.430  -0.428
 -0.427  -0.426  -0.423  -0.422  -0.419  -0.417  -0.413  -0.413
 -0.410  -0.406  -0.404  -0.403  -0.401  -0.400  -0.397  -0.395
 -0.394  -0.393  -0.390  -0.388  -0.386  -0.382  -0.380  -0.379
 -0.378  -0.378  -0.370  -0.368  -0.367  -0.363  -0.358  -0.353
 -0.351  -0.349  -0.348  -0.348  -0.345  -0.343  -0.341  -0.338
 -0.336  -0.333  -0.333  -0.331  -0.330  -0.328  -0.321  -0.315
 -0.314  -0.312  -0.312  -0.309  -0.305  -0.301  -0.300  -0.298
 -0.298  -0.294  -0.291  -0.289  -0.288  -0.287  -0.282  -0.281
 -0.279  -0.274  -0.272  -0.268  -0.253  -0.253  -0.252  -0.248
 -0.245  -0.244  -0.234  -0.232  -0.196  -0.195

          Ground-State Mulliken Net Atomic Charges

     Atom                 Charge (a.u.)
  ----------------------------------------
      1 C                     0.281060
      2 C                    -0.112959
      3 N                    -0.501719
      4 C                    -0.088382
      5 C                     0.087019
      6 C                     0.045369
      7 C                     0.028204
      8 C                     0.061452
      9 C                     0.202213
     10 N                    -0.519176
     11 N                    -0.569271
     12 C                     0.185688
     13 C                     0.294137
     14 S                     0.633958
     15 N                    -0.520526
     16 C                    -0.228235
     17 S                     0.322942
     18 C                    -0.114619
     19 C                    -0.238593
     20 S                     0.274928
     21 C                     0.166010
     22 C                     0.061637
     23 C                    -0.299918
     24 C                    -0.063611
     25 N                    -0.436332
     26 S                     0.247174
     27 C                     0.128568
     28 C                    -0.287880
     29 C                    -0.254052
     30 H                     0.090782
     31 H                     0.095212
     32 H                     0.127705
     33 H                     0.121634
     34 H                     0.131340
     35 H                     0.132238
     36 H                     0.108157
     37 H                     0.134029
     38 H                     0.107214
     39 C                    -0.173437
     40 H                     0.108725
     41 H                     0.094802
     42 H                     0.127468
     43 C                    -0.189632
     44 H                     0.084495
     45 C                    -0.183975
     46 H                     0.085448
     47 H                     0.089222
     48 H                     0.095161
     49 C                    -0.184994
     50 H                     0.097017
     51 C                    -0.313305
     52 H                     0.097592
     53 H                     0.107459
     54 H                     0.109157
     55 H                     0.103213
     56 C                     0.280058
     57 C                    -0.118499
     58 N                    -0.476325
     59 C                    -0.072952
     60 C                     0.078730
     61 C                     0.033666
     62 C                     0.027125
     63 C                     0.045168
     64 C                     0.230694
     65 N                    -0.514213
     66 N                    -0.559525
     67 C                     0.214544
     68 C                     0.289386
     69 S                     0.619855
     70 N                    -0.533315
     71 C                    -0.224395
     72 S                     0.297618
     73 C                    -0.101784
     74 C                    -0.253385
     75 S                     0.282722
     76 C                     0.162635
     77 C                     0.041451
     78 C                    -0.310600
     79 C                    -0.034713
     80 N                    -0.442884
     81 S                     0.286671
     82 C                     0.120652
     83 C                    -0.304936
     84 C                    -0.214671
     85 H                     0.096007
     86 H                     0.097285
     87 H                     0.113168
     88 H                     0.111060
     89 H                     0.129020
     90 H                     0.134222
     91 H                     0.117038
     92 H                     0.127204
     93 H                     0.086835
     94 C                    -0.179700
     95 H                     0.120525
     96 H                     0.092410
     97 H                     0.104797
     98 C                    -0.175462
     99 H                     0.095441
    100 C                    -0.168472
    101 H                     0.091966
    102 H                     0.093848
    103 H                     0.087301
    104 C                    -0.177293
    105 H                     0.096115
    106 C                    -0.326510
    107 H                     0.088296
    108 H                     0.107865
    109 H                     0.100583
    110 H                     0.099859
  ----------------------------------------
  Sum of atomic charges =     0.000000

                    Cartesian Multipole Moments
 -----------------------------------------------------------------
    Charge (ESU x 10^10)
                 0.0000
    Dipole Moment (Debye)
         X      -1.7481      Y      -1.5480      Z      -0.1405
       Tot       2.3392
    Quadrupole Moments (Debye-Ang)
        XX    -402.4664     XY      42.2484     YY    -451.8539
        XZ      -9.5435     YZ      -0.3184     ZZ    -442.0524

 Total job time:  104.45s(wall), 1179.89s(cpu)
        *  Thank you very much for using Q-Chem.  Have a nice day.  *
