 Q-Chem 4.4, Q-Chem, Inc., Pleasanton, CA (2016)
 Q-Chem 4.4.2 for Intel X86 Linux

User input:
--------------------------------------------------------------
$comment
SP
$end

$rem
MEM_STATIC 5000
MEM_TOTAL 20000
JOBTYPE SP
EXCHANGE B3LYP
BASIS 6-31g(d,p)
$end

$molecule
0 1
C          -3.745000     -9.838000      0.610000
C          -3.261000     -9.584000     -0.726000
N          -4.481000     -9.027000      1.297000
C          -3.666000     -8.386000     -1.355000
C          -4.939000     -7.907000      0.639000
C          -4.529000     -7.501000     -0.654000
C          -4.987000     -6.291000     -1.260000
C          -6.412000     -6.150000     -1.222000
C          -4.279000     -5.357000     -1.981000
N          -7.037000     -5.188000     -1.875000
N          -2.910000     -5.522000     -2.149000
C          -4.867000     -4.365000     -2.723000
C          -6.297000     -4.289000     -2.629000
S          -2.503000     -4.154000     -2.885000
N          -4.012000     -3.546000     -3.330000
C          -7.077000     -3.226000     -3.369000
S          -6.369000     -1.869000     -4.311000
C          -8.468000     -3.089000     -3.404000
C          -7.929000     -1.172000     -4.763000
S          -9.725000     -3.986000     -2.502000
C          -8.886000     -1.942000     -4.153000
C          -8.072000      0.057000     -5.464000
C         -10.758000     -2.723000     -3.099000
C         -10.219000     -1.684000     -3.788000
N          -9.296000      0.519000     -5.764000
S          -6.753000      1.181000     -5.793000
C          -9.203000      1.678000     -6.449000
C          -7.945000      2.250000     -6.462000
C          -3.312000    -11.071000      1.443000
H          -2.605000    -10.272000     -1.250000
H          -3.406000     -8.192000     -2.391000
H          -5.619000     -7.276000      1.208000
H          -7.078000     -6.867000     -0.743000
H         -11.797000     -2.666000     -2.802000
H         -10.642000     -0.730000     -4.081000
H         -10.094000      2.154000     -6.836000
H          -7.625000      3.242000     -6.752000
H          -2.371000    -11.533000      1.119000
C          -4.316000    -12.230000      1.238000
H          -3.247000    -10.860000      2.518000
H          -3.833000    -13.185000      1.479000
H          -4.560000    -12.398000      0.182000
C          -5.622000    -12.055000      2.128000
H          -5.302000    -12.076000      3.177000
C          -6.579000    -13.219000      1.730000
H          -6.125000    -11.134000      1.806000
H          -6.124000    -14.192000      1.504000
H          -7.114000    -12.912000      0.823000
C          -7.598000    -13.338000      2.847000
H          -8.136000    -14.288000      2.747000
C          -8.607000    -12.206000      3.086000
H          -7.048000    -13.474000      3.787000
H          -9.367000    -12.252000      2.296000
H          -8.086000    -11.243000      3.011000
H          -9.162000    -12.277000      4.030000
C         -13.164000     -4.447000     -4.014000
C         -12.779000     -5.563000     -3.286000
N         -14.152000     -3.652000     -3.603000
C         -13.284000     -5.716000     -1.971000
C         -14.667000     -3.827000     -2.361000
C         -14.197000     -4.790000     -1.457000
C         -14.555000     -4.689000     -0.012000
C         -13.549000     -5.033000      0.920000
C         -15.719000     -4.169000      0.593000
N         -13.649000     -4.976000      2.254000
N         -16.829000     -3.839000     -0.077000
C         -15.805000     -4.085000      1.965000
C         -14.767000     -4.570000      2.838000
S         -17.886000     -3.397000      1.046000
N         -17.051000     -3.806000      2.411000
C         -14.816000     -4.707000      4.324000
S         -16.192000     -4.324000      5.313000
C         -13.827000     -5.207000      5.179000
C         -15.369000     -4.818000      6.843000
S         -12.359000     -6.056000      4.803000
C         -14.163000     -5.316000      6.578000
C         -15.877000     -4.403000      8.119000
C         -12.004000     -6.164000      6.567000
C         -13.059000     -5.778000      7.334000
N         -15.203000     -4.702000      9.198000
S         -17.231000     -3.343000      8.299000
C         -15.876000     -4.287000     10.362000
C         -16.966000     -3.521000     10.050000
C         -12.728000     -4.086000     -5.429000
H         -12.052000     -6.204000     -3.776000
H         -12.928000     -6.598000     -1.447000
H         -15.423000     -3.138000     -1.988000
H         -12.566000     -5.346000      0.573000
H         -10.984000     -6.359000      6.868000
H         -13.000000     -5.768000      8.416000
H         -15.471000     -4.474000     11.348000
H         -17.604000     -2.982000     10.738000
H         -13.681000     -3.886000     -5.933000
C         -11.921000     -5.152000     -6.208000
H         -12.075000     -3.206000     -5.377000
H         -12.404000     -6.137000     -6.241000
H         -10.973000     -5.267000     -5.668000
C         -11.646000     -4.710000     -7.683000
H         -12.598000     -4.657000     -8.225000
C         -10.577000     -5.424000     -8.518000
H         -11.350000     -3.654000     -7.662000
H          -9.636000     -5.514000     -7.961000
H         -10.302000     -4.830000     -9.398000
C         -11.059000     -6.784000     -9.026000
H         -11.440000     -7.476000     -8.264000
C          -9.926000     -7.385000     -9.880000
H         -11.872000     -6.537000     -9.720000
H         -10.173000     -8.401000    -10.210000
H          -8.902000     -7.282000     -9.500000
H          -9.906000     -6.706000    -10.742000
$end

--------------------------------------------------------------

             Standard Nuclear Orientation (Angstroms)
    I     Atom           X                Y                Z
 ----------------------------------------------------------------
    1      C      -3.4031763046    -7.4860037814     0.0655028398
    2      C      -4.7384902292    -6.9683932766     0.2462902512
    3      N      -2.4330336870    -6.8481137065    -0.5030968031
    4      C      -4.9934272249    -5.6453917533    -0.1774361909
    5      C      -2.6722866053    -5.5315800245    -0.8296318013
    6      C      -3.9323874453    -4.8911522962    -0.7472716298
    7      C      -4.1357250562    -3.5401479643    -1.1650528060
    8      C      -3.1800065748    -2.6311657751    -0.6062115370
    9      C      -5.1784519504    -2.9986598067    -1.8812735815
   10      N      -3.3003201192    -1.3230658857    -0.7361243175
   11      N      -6.1948340441    -3.8289290897    -2.3364991928
   12      C      -5.3913211503    -1.6502679295    -2.0112660785
   13      C      -4.3876015059    -0.8076549331    -1.4264052285
   14      S      -7.0681877941    -2.8188508619    -3.2285553576
   15      N      -6.4398104677    -1.3245338292    -2.7627994757
   16      C      -4.4760005701     0.6988678663    -1.5188371511
   17      S      -5.7014735359     1.6232459091    -2.4536196093
   18      C      -3.5975183916     1.6199595460    -0.9402749855
   19      C      -5.0483442362     3.2092385554    -2.0272835406
   20      S      -2.0602780228     1.3383302199    -0.0708849859
   21      C      -3.9326882777     2.9740062295    -1.2651637762
   22      C      -5.5302358274     4.4333818092    -2.5672324164
   23      C      -1.8826132688     3.0565629287    -0.2573751826
   24      C      -2.7945271710     3.7508228444    -0.9861956025
   25      N      -4.9733302815     5.5960583412    -2.1935219739
   26      S      -6.6836974456     4.5559538593    -3.8960967390
   27      C      -5.5949190973     6.6284227765    -2.8009806284
   28      C      -6.4491449699     6.2739528492    -3.8279013796
   29      C      -3.0111547742    -8.9452201636     0.4099932891
   30      H      -5.5377663673    -7.5559641792     0.6869421427
   31      H      -5.9533398007    -5.1784399507     0.0201893667
   32      H      -1.8211868913    -4.9887753310    -1.2362204651
   33      H      -2.3556669613    -2.9397760075     0.0359021026
   34      H      -0.9806496685     3.5614117471     0.0628877317
   35      H      -2.7747648377     4.7645371318    -1.3694537319
   36      H      -5.3221139393     7.6466162061    -2.5579055668
   37      H      -6.9146332004     6.8761851880    -4.5967972876
   38      H      -3.8542611912    -9.6460488676     0.4537162487
   39      C      -2.4658351718    -9.0217946859     1.8557058725
   40      H      -2.2495462530    -9.3547975841    -0.2657061981
   41      H      -2.5640933207   -10.0466175889     2.2344912388
   42      H      -3.0975908460    -8.4881682515     2.5761387956
   43      C      -0.9456683135    -8.5644998523     1.9470029590
   44      H      -0.3618580689    -9.2635171623     1.3356254991
   45      C      -0.5766967852    -8.5802819684     3.4611891880
   46      H      -0.8942394656    -7.5118698199     1.6399865285
   47      H      -1.0087202064    -9.3789034057     4.0779464850
   48      H      -0.9232737966    -7.6348085974     3.8960310903
   49      C       0.9381615382    -8.5919841303     3.5338412319
   50      H       1.2501098534    -8.8538793470     4.5517032776
   51      C       1.7365080555    -7.3706631308     3.0567208547
   52      H       1.2934609341    -9.4495173501     2.9481833828
   53      H       1.6387054217    -6.5809768059     3.8121321024
   54      H       1.3030065424    -7.0072158056     2.1162861254
   55      H       2.8153288723    -7.5403890811     2.9492929854
   56      C      -0.9352502985     3.7665062618     2.6056164112
   57      C      -0.5955120257     2.4621216971     2.9324555358
   58      N      -0.0081239425     4.6724178606     2.2944076461
   59      C       0.7339031795     2.0331525654     2.6951799657
   60      C       1.2735140475     4.2694906266     2.1114658341
   61      C       1.6848685816     2.9323632115     2.2029137592
   62      C       3.0068156608     2.5225603793     1.6453229068
   63      C       3.0655152027     1.2651306522     1.0015676388
   64      C       4.2059068939     3.2587141094     1.5377176082
   65      N       4.1364684613     0.7280294507     0.4037495918
   66      N       4.4136772954     4.4434909726     2.1234097156
   67      C       5.2953956899     2.7131259986     0.8957022059
   68      C       5.2938629948     1.3722933642     0.3694289904
   69      S       5.9369610527     4.8198905579     1.7892361877
   70      N       6.4370382537     3.4143625933     1.0806143325
   71      C       6.4535169959     0.6056918368    -0.1754477808
   72      S       8.0864875464     1.1936886639    -0.2519521124
   73      C       6.4710058211    -0.7077664313    -0.6588394637
   74      C       8.7222281179    -0.3389854869    -0.9654006903
   75      S       5.2583029425    -1.9468226651    -0.5525738656
   76      C       7.7516617012    -1.2466349937    -1.0480941222
   77      C      10.0029173773    -0.3743882159    -1.6111921951
   78      C       6.3625543809    -3.0628482863    -1.4382942355
   79      C       7.6177118839    -2.5554671698    -1.5704079945
   80      N      10.3881799619    -1.4776202798    -2.1963159033
   81      S      10.9850992322     1.0296145467    -1.8423004952
   82      C      11.6922167940    -1.3632592218    -2.7125130450
   83      C      12.1410283075    -0.0735509283    -2.6263693109
   84      C      -2.3028341712     4.4200368474     2.7645318752
   85      H      -1.4173129864     1.8477327031     3.2883759554
   86      H       0.9297734154     0.9963550086     2.9519321358
   87      H       2.0241157950     4.9879338271     1.7861623077
   88      H       2.1719885173     0.6485520357     0.9234147628
   89      H       5.9298888098    -3.9310782185    -1.9157911343
   90      H       8.3960458735    -3.0969548064    -2.0950910798
   91      H      12.1790332807    -2.1912434576    -3.2111530089
   92      H      13.0579774431     0.3277211090    -3.0375797618
   93      H      -2.0675287987     5.3486671960     3.2979192179
   94      C      -3.3793904920     3.6166477791     3.5326715064
   95      H      -2.7236608277     4.5913739821     1.7660022004
   96      H      -3.0515073216     3.2677488888     4.5202772936
   97      H      -3.5874083850     2.7297230894     2.9214251149
   98      C      -4.6899920434     4.4461557956     3.7347952897
   99      H      -4.4785506616     5.2956241165     4.3955320860
  100      C      -5.9934146357     3.7472822881     4.1378428881
  101      H      -4.9072513961     4.9569024374     2.7886825895
  102      H      -6.1849460279     2.8728184743     3.5034465103
  103      H      -6.8602536328     4.3943019285     3.9566889811
  104      C      -6.0109694087     3.3767746220     5.6218927186
  105      H      -5.1602520870     2.7834138886     5.9808802930
  106      C      -7.3748384431     2.7237117385     5.9178253583
  107      H      -6.0125333657     4.3444967374     6.1387345333
  108      H      -7.4245401597     2.3572147039     6.9499952391
  109      H      -7.7615848410     2.0114978971     5.1783906635
  110      H      -8.0644278957     3.5673568138     5.7866218000
 ----------------------------------------------------------------

   10   -5663.5118768969      6.29E-06 Convergence criterion met
 Total energy in the final basis set = -5663.5118768969

                    Orbital Energies (a.u.)
 --------------------------------------------------------------

 Alpha MOs
 -- Occupied --
-88.993 -88.988 -88.928 -88.925 -88.920 -88.918 -88.915 -88.903
-14.392 -14.392 -14.389 -14.382 -14.355 -14.346 -14.344 -14.339
-14.331 -14.325 -10.272 -10.271 -10.268 -10.265 -10.258 -10.256
-10.256 -10.256 -10.248 -10.244 -10.242 -10.239 -10.237 -10.236
-10.233 -10.233 -10.232 -10.232 -10.231 -10.230 -10.230 -10.230
-10.225 -10.224 -10.223 -10.221 -10.220 -10.216 -10.215 -10.214
-10.214 -10.211 -10.207 -10.207 -10.205 -10.198 -10.194 -10.185
-10.182 -10.179 -10.178 -10.177 -10.174 -10.174 -10.173 -10.173
-10.172 -10.168 -10.168 -10.167  -8.048  -8.044  -7.989  -7.986
 -7.979  -7.978  -7.974  -7.962  -6.013  -6.009  -6.008  -6.006
 -6.004  -6.002  -5.953  -5.950  -5.950  -5.947  -5.946  -5.943
 -5.943  -5.943  -5.940  -5.939  -5.939  -5.936  -5.935  -5.935
 -5.930  -5.927  -5.923  -5.919  -1.047  -1.043  -0.971  -0.967
 -0.964  -0.958  -0.946  -0.940  -0.913  -0.911  -0.907  -0.907
 -0.845  -0.844  -0.841  -0.838  -0.811  -0.808  -0.808  -0.802
 -0.800  -0.799  -0.798  -0.796  -0.783  -0.779  -0.767  -0.765
 -0.749  -0.749  -0.742  -0.737  -0.721  -0.716  -0.708  -0.706
 -0.693  -0.691  -0.678  -0.675  -0.656  -0.653  -0.648  -0.648
 -0.634  -0.633  -0.628  -0.627  -0.611  -0.609  -0.598  -0.597
 -0.591  -0.591  -0.584  -0.580  -0.577  -0.574  -0.561  -0.560
 -0.557  -0.552  -0.541  -0.540  -0.526  -0.524  -0.516  -0.507
 -0.506  -0.505  -0.499  -0.495  -0.492  -0.484  -0.481  -0.477
 -0.475  -0.471  -0.470  -0.465  -0.460  -0.457  -0.454  -0.450
 -0.448  -0.443  -0.439  -0.439  -0.434  -0.432  -0.430  -0.429
 -0.425  -0.424  -0.422  -0.420  -0.418  -0.415  -0.415  -0.411
 -0.410  -0.410  -0.406  -0.402  -0.400  -0.398  -0.397  -0.395
 -0.392  -0.391  -0.390  -0.386  -0.385  -0.384  -0.384  -0.383
 -0.383  -0.376  -0.372  -0.370  -0.368  -0.365  -0.364  -0.357
 -0.353  -0.352  -0.349  -0.347  -0.345  -0.344  -0.341  -0.339
 -0.338  -0.336  -0.334  -0.329  -0.328  -0.326  -0.319  -0.318
 -0.315  -0.314  -0.310  -0.309  -0.308  -0.306  -0.301  -0.299
 -0.297  -0.295  -0.289  -0.289  -0.284  -0.283  -0.282  -0.276
 -0.276  -0.272  -0.271  -0.267  -0.254  -0.253  -0.252  -0.248
 -0.243  -0.240  -0.233  -0.227  -0.196  -0.192

          Ground-State Mulliken Net Atomic Charges

     Atom                 Charge (a.u.)
  ----------------------------------------
      1 C                     0.287980
      2 C                    -0.127886
      3 N                    -0.465265
      4 C                    -0.052069
      5 C                     0.051693
      6 C                     0.034826
      7 C                    -0.008911
      8 C                     0.078802
      9 C                     0.177769
     10 N                    -0.507898
     11 N                    -0.517175
     12 C                     0.268986
     13 C                     0.288090
     14 S                     0.610055
     15 N                    -0.577569
     16 C                    -0.233668
     17 S                     0.304447
     18 C                    -0.124398
     19 C                    -0.224281
     20 S                     0.298041
     21 C                     0.148997
     22 C                     0.054603
     23 C                    -0.313414
     24 C                    -0.064709
     25 N                    -0.433988
     26 S                     0.277588
     27 C                     0.133270
     28 C                    -0.313146
     29 C                    -0.222032
     30 H                     0.096546
     31 H                     0.106873
     32 H                     0.102811
     33 H                     0.122796
     34 H                     0.135355
     35 H                     0.128132
     36 H                     0.115065
     37 H                     0.136971
     38 H                     0.088825
     39 C                    -0.198325
     40 H                     0.116292
     41 H                     0.088411
     42 H                     0.090051
     43 C                    -0.160890
     44 H                     0.095045
     45 C                    -0.175490
     46 H                     0.119694
     47 H                     0.089417
     48 H                     0.089820
     49 C                    -0.175386
     50 H                     0.077090
     51 C                    -0.320976
     52 H                     0.087432
     53 H                     0.099044
     54 H                     0.107744
     55 H                     0.103902
     56 C                     0.245827
     57 C                    -0.105841
     58 N                    -0.485092
     59 C                    -0.119446
     60 C                     0.071388
     61 C                     0.060777
     62 C                     0.052417
     63 C                     0.047573
     64 C                     0.220071
     65 N                    -0.520224
     66 N                    -0.539546
     67 C                     0.176282
     68 C                     0.328668
     69 S                     0.601158
     70 N                    -0.543908
     71 C                    -0.208619
     72 S                     0.302793
     73 C                    -0.131286
     74 C                    -0.269633
     75 S                     0.265492
     76 C                     0.181003
     77 C                     0.090237
     78 C                    -0.316546
     79 C                    -0.025265
     80 N                    -0.457509
     81 S                     0.265258
     82 C                     0.128024
     83 C                    -0.308931
     84 C                    -0.209378
     85 H                     0.102173
     86 H                     0.107559
     87 H                     0.119684
     88 H                     0.113307
     89 H                     0.133299
     90 H                     0.129771
     91 H                     0.122188
     92 H                     0.127238
     93 H                     0.122975
     94 C                    -0.197845
     95 H                     0.132029
     96 H                     0.093305
     97 H                     0.103549
     98 C                    -0.184479
     99 H                     0.087897
    100 C                    -0.174114
    101 H                     0.090165
    102 H                     0.091512
    103 H                     0.090323
    104 C                    -0.173330
    105 H                     0.093724
    106 C                    -0.316566
    107 H                     0.097114
    108 H                     0.096043
    109 H                     0.102107
    110 H                     0.099642
  ----------------------------------------
  Sum of atomic charges =     0.000000

                    Cartesian Multipole Moments
 -----------------------------------------------------------------
    Charge (ESU x 10^10)
                 0.0000
    Dipole Moment (Debye)
         X      -1.0834      Y      -0.0610      Z      -1.5722
       Tot       1.9103
    Quadrupole Moments (Debye-Ang)
        XX    -388.8266     XY       5.6530     YY    -427.6610
        XZ      -6.6308     YZ     -13.7214     ZZ    -436.3181

 Total job time:  95.96s(wall), 1086.69s(cpu)
        *  Thank you very much for using Q-Chem.  Have a nice day.  *
