 Q-Chem 4.4, Q-Chem, Inc., Pleasanton, CA (2016)
 Q-Chem 4.4.2 for Intel X86 Linux

User input:
--------------------------------------------------------------
$comment
SP
$end

$rem
MEM_STATIC 5000
MEM_TOTAL 20000
JOBTYPE SP
EXCHANGE B3LYP
BASIS 6-31g(d,p)
$end

$molecule
0 1
C         -28.122000     -0.960000     -4.819000
C         -27.409000     -2.167000     -4.640000
N         -27.455000      0.247000     -4.897000
C         -26.003000     -2.221000     -4.853000
C         -26.106000      0.184000     -5.071000
C         -25.314000     -0.998000     -5.134000
C         -23.806000     -0.874000     -5.392000
C         -23.195000      0.325000     -5.184000
C         -22.930000     -1.922000     -5.845000
N         -21.936000      0.573000     -5.604000
N         -23.406000     -3.157000     -6.103000
C         -21.562000     -1.682000     -6.083000
C         -21.058000     -0.351000     -5.994000
S         -22.043000     -3.893000     -6.534000
N         -20.886000     -2.755000     -6.522000
C         -19.658000      0.025000     -6.223000
S         -18.273000     -1.092000     -6.412000
C         -19.244000      1.379000     -6.317000
C         -17.168000      0.283000     -6.370000
S         -20.131000      2.862000     -6.091000
C         -17.871000      1.487000     -6.421000
C         -15.727000      0.193000     -6.386000
C         -18.569000      3.657000     -6.336000
C         -17.503000      2.840000     -6.443000
N         -15.045000      1.117000     -6.991000
S         -14.816000     -1.067000     -5.698000
C         -13.679000      0.940000     -6.865000
C         -13.335000     -0.295000     -6.234000
C         -29.629000     -0.883000     -4.833000
H         -27.917000     -3.084000     -4.356000
H         -25.492000     -3.166000     -4.697000
H         -25.752000      1.213000     -5.100000
H         -23.828000      1.168000     -4.913000
H         -18.536000      4.730000     -6.466000
H         -16.472000      3.145000     -6.582000
H         -12.967000      1.696000     -7.168000
H         -12.368000     -0.642000     -5.895000
H         -29.908000      0.163000     -5.011000
C         -30.268000     -1.394000     -3.510000
H         -29.938000     -1.552000     -5.646000
H         -29.651000     -1.207000     -2.623000
H         -30.474000     -2.468000     -3.593000
C         -31.637000     -0.725000     -3.257000
H         -31.591000      0.360000     -3.103000
C         -32.231000     -1.452000     -1.976000
H         -32.378000     -0.768000     -4.065000
H         -31.359000     -1.734000     -1.373000
H         -32.781000     -2.385000     -2.151000
C         -33.025000     -0.543000     -1.026000
H         -32.386000      0.284000     -0.692000
C         -33.610000     -1.259000      0.144000
H         -33.807000     -0.074000     -1.636000
H         -34.275000     -0.577000      0.688000
H         -32.888000     -1.573000      0.907000
H         -34.335000     -2.047000     -0.092000
C         -13.164000     -4.447000     -4.014000
C         -12.779000     -5.563000     -3.286000
N         -14.152000     -3.652000     -3.603000
C         -13.284000     -5.716000     -1.971000
C         -14.667000     -3.827000     -2.361000
C         -14.197000     -4.790000     -1.457000
C         -14.555000     -4.689000     -0.012000
C         -13.549000     -5.033000      0.920000
C         -15.719000     -4.169000      0.593000
N         -13.649000     -4.976000      2.254000
N         -16.829000     -3.839000     -0.077000
C         -15.805000     -4.085000      1.965000
C         -14.767000     -4.570000      2.838000
S         -17.886000     -3.397000      1.046000
N         -17.051000     -3.806000      2.411000
C         -14.816000     -4.707000      4.324000
S         -16.192000     -4.324000      5.313000
C         -13.827000     -5.207000      5.179000
C         -15.369000     -4.818000      6.843000
S         -12.359000     -6.056000      4.803000
C         -14.163000     -5.316000      6.578000
C         -15.877000     -4.403000      8.119000
C         -12.004000     -6.164000      6.567000
C         -13.059000     -5.778000      7.334000
N         -15.203000     -4.702000      9.198000
S         -17.231000     -3.343000      8.299000
C         -15.876000     -4.287000     10.362000
C         -16.966000     -3.521000     10.050000
C         -12.728000     -4.086000     -5.429000
H         -12.052000     -6.204000     -3.776000
H         -12.928000     -6.598000     -1.447000
H         -15.423000     -3.138000     -1.988000
H         -12.566000     -5.346000      0.573000
H         -10.984000     -6.359000      6.868000
H         -13.000000     -5.768000      8.416000
H         -15.471000     -4.474000     11.348000
H         -17.604000     -2.982000     10.738000
H         -13.681000     -3.886000     -5.933000
C         -11.921000     -5.152000     -6.208000
H         -12.075000     -3.206000     -5.377000
H         -12.404000     -6.137000     -6.241000
H         -10.973000     -5.267000     -5.668000
C         -11.646000     -4.710000     -7.683000
H         -12.598000     -4.657000     -8.225000
C         -10.577000     -5.424000     -8.518000
H         -11.350000     -3.654000     -7.662000
H          -9.636000     -5.514000     -7.961000
H         -10.302000     -4.830000     -9.398000
C         -11.059000     -6.784000     -9.026000
H         -11.440000     -7.476000     -8.264000
C          -9.926000     -7.385000     -9.880000
H         -11.872000     -6.537000     -9.720000
H         -10.173000     -8.401000    -10.210000
H          -8.902000     -7.282000     -9.500000
H          -9.906000     -6.706000    -10.742000
$end

--------------------------------------------------------------

             Standard Nuclear Orientation (Angstroms)
    I     Atom           X                Y                Z
 ----------------------------------------------------------------
    1      C      -9.8332013165    -2.7601845025    -0.9734360547
    2      C      -8.8257042988    -2.5894772626    -1.9496879677
    3      N      -9.6645021875    -2.2682018429     0.3061403074
    4      C      -7.7729314508    -1.6522157072    -1.7539046505
    5      C      -8.6358650769    -1.3950154586     0.4891628003
    6      C      -7.6939378703    -0.9771575983    -0.4939572057
    7      C      -6.6303510290     0.0627274991    -0.1152409331
    8      C      -6.3596905517     0.2840250562     1.2007971732
    9      C      -5.8554347596     0.8604964027    -1.0284542444
   10      N      -5.6158672222     1.3316583222     1.6157386080
   11      N      -6.0314705945     0.7523126951    -2.3609979285
   12      C      -4.9280239650     1.8140542063    -0.5633685175
   13      C      -4.8417451445     2.0843686863     0.8341235387
   14      S      -4.9350916671     1.8122675286    -2.8705810902
   15      N      -4.3020677263     2.4904047803    -1.5389476728
   16      C      -3.9214593661     3.0550653663     1.4379770321
   17      S      -2.5782801367     3.9033126715     0.6145809750
   18      C      -4.0079565443     3.4313962156     2.8034225016
   19      C      -2.0382353622     4.5409411267     2.1686709321
   20      S      -5.0280841271     2.8416305215     4.0874202199
   21      C      -2.9716803781     4.2681098403     3.1690056217
   22      C      -0.8467892277     5.3299501906     2.3754505389
   23      C      -4.1002906554     3.9361572201     5.1233278316
   24      C      -3.0587944387     4.5590726431     4.5380449885
   25      N      -0.8551349060     6.2568415780     3.2841461457
   26      S       0.5955690534     5.1780337675     1.4881011212
   27      C       0.3715324542     6.8814012380     3.4196947282
   28      C       1.3158016508     6.4715627839     2.4286800331
   29      C     -11.0900833168    -3.5604762403    -1.2120880435
   30      H      -8.8406508635    -3.1524668934    -2.8783581329
   31      H      -7.0145678277    -1.5574447174    -2.5248683816
   32      H      -8.6479351126    -1.1232909826     1.5432112448
   33      H      -6.9720991904    -0.2405457798     1.9319333420
   34      H      -4.4375778680     4.1211340014     6.1339409755
   35      H      -2.3738089931     5.2505752728     5.0154610046
   36      H       0.5878324805     7.5621076720     4.2321859893
   37      H       2.3727453268     6.6921410145     2.3606042662
   38      H     -11.6985844409    -3.5056748430    -0.3008448329
   39      C     -10.7964402793    -5.0440581276    -1.5761341262
   40      H     -11.5693704244    -3.0820080619    -2.0754321643
   41      H      -9.8945720647    -5.4438648245    -1.0973697492
   42      H     -10.7081657973    -5.1441036213    -2.6647109563
   43      C     -11.9695802644    -5.9615649503    -1.1666774059
   44      H     -12.1552365305    -6.0071426289    -0.0866258210
   45      C     -11.6005981503    -7.3972265422    -1.7368124714
   46      H     -12.9723697100    -5.6873995286    -1.5174489117
   47      H     -10.5049468618    -7.4460513038    -1.7107088961
   48      H     -11.8786619807    -7.5987790994    -2.7787678797
   49      C     -12.0174135678    -8.5750313624    -0.8433597791
   50      H     -11.5565298603    -8.4643936514     0.1461610672
   51      C     -11.7005771365    -9.9121066994    -1.4226914795
   52      H     -13.0952156973    -8.4614732433    -0.6729716244
   53      H     -12.1555635685   -10.6917356452    -0.7994330631
   54      H     -10.6369680265   -10.1781259574    -1.4269827970
   55      H     -12.1925782010   -10.1494239009    -2.3734177800
   56      C       3.7372110937     4.4772247666    -1.0864497203
   57      C       4.7311480864     4.0146577191    -1.9360296054
   58      N       2.9199407660     3.6403421931    -0.4470853721
   59      C       5.0304894818     2.6297297050    -1.9307263384
   60      C       3.1801343402     2.3100468453    -0.4791414394
   61      C       4.2903169267     1.7541490292    -1.1302614305
   62      C       4.7049973165     0.3535227788    -0.8258336380
   63      C       6.0943420545     0.0979246731    -0.7676373546
   64      C       3.9192859162    -0.7563043473    -0.4486568283
   65      N       6.6751196749    -1.0722306113    -0.4739726377
   66      N       2.5822439572    -0.7775797341    -0.4906825067
   67      C       4.5232908259    -1.9492942525    -0.1188248177
   68      C       5.9478998586    -2.1456944179    -0.2007643021
   69      S       2.1687392479    -2.2682192397    -0.0655358028
   70      N       3.6568691699    -2.9831876113    -0.0205851293
   71      C       6.7014129802    -3.4262340971    -0.0531089411
   72      S       5.9761616711    -4.9804269287     0.2238047293
   73      C       8.0810987554    -3.6348844853    -0.1630097019
   74      C       7.5620010050    -5.8449097150     0.2168679225
   75      S       9.3224168080    -2.5703129990    -0.7486871242
   76      C       8.5486703749    -4.9963672518    -0.0644223950
   77      C       7.6812695830    -7.1680176792     0.7587399752
   78      C      10.5384964858    -3.8636857696    -0.4360817926
   79      C       9.9612111948    -5.0576270387    -0.1334996738
   80      N       8.8622212308    -7.7243115846     0.8204513689
   81      S       6.3746195464    -7.9950088022     1.5320881274
   82      C       8.7900624137    -9.0428291172     1.3066145322
   83      C       7.5301782389    -9.3300075712     1.7565260808
   84      C       3.2730063388     5.9199233944    -0.9258987472
   85      H       5.2527310959     4.7847843394    -2.4967132531
   86      H       5.8320769508     2.3352486036    -2.6015276581
   87      H       2.5621020029     1.6249604082     0.0988538926
   88      H       6.8061608790     0.9044859849    -0.9332870191
   89      H      11.5770954085    -3.5743015385    -0.3548719127
   90      H      10.5565476347    -5.9328093705     0.0987403089
   91      H       9.6733575783    -9.6607395380     1.4023556626
   92      H       7.2101290537   -10.2235493215     2.2761996894
   93      H       2.1844379149     5.8373918410    -1.0280375220
   94      C       3.8309620938     6.9528255176    -1.9339883164
   95      H       3.5872254326     6.2775776072     0.0624649637
   96      H       3.6941415932     6.6656252183    -2.9844163904
   97      H       4.9101403994     7.0070474327    -1.7443487412
   98      C       3.1825205406     8.3630407788    -1.7405187605
   99      H       2.1162900042     8.3049760804    -1.9908344290
  100      C       3.8277755680     9.6038645649    -2.3680410962
  101      H       3.1410898365     8.5628682568    -0.6627685688
  102      H       4.9029443387     9.6413865872    -2.1525551052
  103      H       3.4395670974    10.5231637773    -1.9130200622
  104      C       3.5544918596     9.6953911540    -3.8703482879
  105      H       3.8235409235     8.8123688286    -4.4641101712
  106      C       4.2108618198    10.9929298645    -4.3800322783
  107      H       2.4703970086     9.8506161873    -3.9355981394
  108      H       4.1240433247    11.0810218575    -5.4694666957
  109      H       5.2100893711    11.2343297561    -3.9968151166
  110      H       3.6003352473    11.7636176856    -3.8924027194
 ----------------------------------------------------------------

   10   -5663.5318174311      4.64E-06 Convergence criterion met
 Total energy in the final basis set = -5663.5318174311

                    Orbital Energies (a.u.)
 --------------------------------------------------------------

 Alpha MOs
 -- Occupied --
-88.990 -88.980 -88.926 -88.925 -88.921 -88.916 -88.906 -88.905
-14.391 -14.389 -14.387 -14.385 -14.349 -14.341 -14.338 -14.332
-14.331 -14.329 -10.270 -10.267 -10.259 -10.258 -10.257 -10.255
-10.254 -10.251 -10.247 -10.239 -10.238 -10.237 -10.236 -10.234
-10.234 -10.232 -10.231 -10.230 -10.228 -10.228 -10.228 -10.228
-10.228 -10.225 -10.224 -10.223 -10.221 -10.220 -10.218 -10.218
-10.212 -10.211 -10.209 -10.203 -10.198 -10.197 -10.196 -10.192
-10.190 -10.187 -10.184 -10.183 -10.182 -10.181 -10.181 -10.180
-10.174 -10.174 -10.173 -10.169  -8.046  -8.037  -7.988  -7.983
 -7.980  -7.977  -7.965  -7.965  -6.011  -6.006  -6.004  -6.002
 -5.996  -5.995  -5.952  -5.948  -5.948  -5.945  -5.945  -5.944
 -5.941  -5.941  -5.940  -5.938  -5.937  -5.935  -5.930  -5.929
 -5.926  -5.926  -5.922  -5.921  -1.049  -1.049  -0.969  -0.966
 -0.966  -0.952  -0.945  -0.925  -0.919  -0.914  -0.909  -0.906
 -0.843  -0.841  -0.841  -0.823  -0.812  -0.809  -0.805  -0.803
 -0.800  -0.797  -0.796  -0.790  -0.787  -0.782  -0.771  -0.765
 -0.754  -0.746  -0.745  -0.738  -0.723  -0.721  -0.714  -0.707
 -0.698  -0.688  -0.678  -0.663  -0.658  -0.651  -0.649  -0.643
 -0.637  -0.632  -0.631  -0.618  -0.614  -0.604  -0.602  -0.594
 -0.593  -0.590  -0.588  -0.585  -0.581  -0.573  -0.572  -0.570
 -0.554  -0.548  -0.543  -0.535  -0.526  -0.520  -0.513  -0.509
 -0.502  -0.501  -0.497  -0.492  -0.487  -0.482  -0.480  -0.476
 -0.475  -0.473  -0.471  -0.467  -0.466  -0.461  -0.458  -0.451
 -0.448  -0.443  -0.441  -0.439  -0.436  -0.434  -0.431  -0.428
 -0.428  -0.426  -0.425  -0.423  -0.420  -0.419  -0.414  -0.412
 -0.409  -0.407  -0.406  -0.401  -0.401  -0.400  -0.398  -0.396
 -0.394  -0.392  -0.390  -0.389  -0.387  -0.385  -0.384  -0.379
 -0.379  -0.375  -0.371  -0.370  -0.364  -0.363  -0.359  -0.354
 -0.354  -0.352  -0.351  -0.350  -0.349  -0.348  -0.347  -0.344
 -0.341  -0.341  -0.334  -0.331  -0.330  -0.329  -0.328  -0.327
 -0.322  -0.318  -0.317  -0.311  -0.309  -0.303  -0.302  -0.302
 -0.294  -0.291  -0.288  -0.287  -0.281  -0.278  -0.277  -0.275
 -0.274  -0.271  -0.264  -0.256  -0.255  -0.253  -0.251  -0.247
 -0.243  -0.243  -0.236  -0.228  -0.198  -0.188

          Ground-State Mulliken Net Atomic Charges

     Atom                 Charge (a.u.)
  ----------------------------------------
      1 C                     0.255898
      2 C                    -0.119302
      3 N                    -0.487507
      4 C                    -0.074226
      5 C                     0.056873
      6 C                     0.049351
      7 C                     0.063995
      8 C                     0.045284
      9 C                     0.187493
     10 N                    -0.548426
     11 N                    -0.525026
     12 C                     0.175017
     13 C                     0.340933
     14 S                     0.585836
     15 N                    -0.541069
     16 C                    -0.217872
     17 S                     0.326588
     18 C                    -0.120408
     19 C                    -0.224785
     20 S                     0.289076
     21 C                     0.171520
     22 C                     0.031786
     23 C                    -0.319468
     24 C                    -0.041971
     25 N                    -0.424383
     26 S                     0.313246
     27 C                     0.104257
     28 C                    -0.323000
     29 C                    -0.236744
     30 H                     0.089742
     31 H                     0.119862
     32 H                     0.105550
     33 H                     0.107975
     34 H                     0.119995
     35 H                     0.119424
     36 H                     0.114976
     37 H                     0.133070
     38 H                     0.123479
     39 C                    -0.181551
     40 H                     0.113550
     41 H                     0.112541
     42 H                     0.101655
     43 C                    -0.187462
     44 H                     0.099651
     45 C                    -0.177195
     46 H                     0.095120
     47 H                     0.089775
     48 H                     0.090608
     49 C                    -0.174846
     50 H                     0.093979
     51 C                    -0.321077
     52 H                     0.089359
     53 H                     0.097308
     54 H                     0.104219
     55 H                     0.101659
     56 C                     0.263607
     57 C                    -0.120838
     58 N                    -0.484615
     59 C                    -0.106286
     60 C                     0.087088
     61 C                     0.054013
     62 C                     0.050865
     63 C                     0.049370
     64 C                     0.219901
     65 N                    -0.521327
     66 N                    -0.540686
     67 C                     0.175915
     68 C                     0.330425
     69 S                     0.604095
     70 N                    -0.542599
     71 C                    -0.208511
     72 S                     0.304311
     73 C                    -0.131422
     74 C                    -0.269642
     75 S                     0.265033
     76 C                     0.180667
     77 C                     0.090391
     78 C                    -0.316838
     79 C                    -0.025032
     80 N                    -0.457570
     81 S                     0.266262
     82 C                     0.128287
     83 C                    -0.309070
     84 C                    -0.218797
     85 H                     0.095294
     86 H                     0.107088
     87 H                     0.123274
     88 H                     0.110444
     89 H                     0.132682
     90 H                     0.130157
     91 H                     0.122588
     92 H                     0.128048
     93 H                     0.140668
     94 C                    -0.193213
     95 H                     0.112470
     96 H                     0.100625
     97 H                     0.092881
     98 C                    -0.183074
     99 H                     0.094865
    100 C                    -0.174390
    101 H                     0.082004
    102 H                     0.088875
    103 H                     0.092987
    104 C                    -0.174505
    105 H                     0.094068
    106 C                    -0.316921
    107 H                     0.099890
    108 H                     0.098514
    109 H                     0.102329
    110 H                     0.101020
  ----------------------------------------
  Sum of atomic charges =     0.000000

                    Cartesian Multipole Moments
 -----------------------------------------------------------------
    Charge (ESU x 10^10)
                 0.0000
    Dipole Moment (Debye)
         X       4.0082      Y      -1.3924      Z      -1.3700
       Tot       4.4589
    Quadrupole Moments (Debye-Ang)
        XX    -433.7439     XY      17.0710     YY    -401.8349
        XZ      19.4191     YZ      -7.2722     ZZ    -434.7922

 Total job time:  88.59s(wall), 1013.53s(cpu)
        *  Thank you very much for using Q-Chem.  Have a nice day.  *
