 Q-Chem 4.4, Q-Chem, Inc., Pleasanton, CA (2016)
 Q-Chem 4.4.2 for Intel X86 Linux

User input:
--------------------------------------------------------------
$comment
SP
$end

$rem
MEM_STATIC 5000
MEM_TOTAL 20000
JOBTYPE SP
EXCHANGE B3LYP
BASIS 6-31g(d,p)
$end

$molecule
0 1
C          10.014000     -2.424000      3.961000
C          11.357000     -2.762000      3.922000
N           9.590000     -1.145000      3.974000
C          12.308000     -1.664000      3.709000
C          10.458000     -0.125000      3.806000
C          11.827000     -0.323000      3.582000
C          12.757000      0.823000      3.378000
C          14.006000      0.843000      4.018000
C          12.479000      1.961000      2.613000
N          14.887000      1.755000      3.917000
N          11.377000      2.096000      1.889000
C          13.393000      2.913000      2.392000
C          14.576000      2.850000      3.180000
S          11.555000      3.414000      1.012000
N          13.036000      3.789000      1.461000
C          15.691000      3.783000      3.146000
S          15.926000      5.070000      1.927000
C          16.609000      4.048000      4.220000
C          17.011000      5.989000      2.942000
S          16.545000      3.425000      5.774000
C          17.307000      5.270000      4.081000
C          17.491000      7.296000      2.723000
C          17.758000      4.586000      6.253000
C          17.954000      5.560000      5.281000
N          16.979000      7.875000      1.621000
S          18.828000      8.089000      3.519000
C          17.656000      9.068000      1.390000
C          18.788000      9.283000      2.211000
C           8.934000     -3.457000      3.934000
H          11.761000     -3.767000      3.855000
H          13.385000     -1.781000      3.777000
H          10.100000      0.904000      3.806000
H          14.357000     -0.047000      4.540000
H          18.185000      4.643000      7.246000
H          18.380000      6.525000      5.533000
H          17.404000      9.777000      0.613000
H          19.560000     10.034000      2.114000
H           7.996000     -3.149000      3.455000
C           8.694000     -4.064000      5.330000
H           9.331000     -4.286000      3.336000
H           8.142000     -3.339000      5.940000
H           9.723000     -4.118000      5.707000
C           7.982000     -5.447000      5.340000
H           8.613000     -6.095000      4.718000
C           6.576000     -5.388000      4.830000
H           8.010000     -5.889000      6.344000
H           6.560000     -5.063000      3.783000
H           6.077000     -4.543000      5.320000
C           5.761000     -6.644000      4.991000
H           6.328000     -7.541000      4.711000
C           4.483000     -6.749000      4.148000
H           5.566000     -6.816000      6.057000
H           4.111000     -7.779000      4.206000
H           4.553000     -6.512000      3.079000
H           3.765000     -6.100000      4.664000
C           6.082000    -11.632000      5.765000
C           7.084000    -11.088000      6.622000
N           6.374000    -11.935000      4.488000
C           8.322000    -10.704000      6.096000
C           7.580000    -11.612000      3.990000
C           8.565000    -10.916000      4.732000
C           9.769000    -10.299000      4.031000
C          10.292000     -9.099000      4.472000
C          10.508000    -11.054000      3.106000
N          11.395000     -8.616000      4.017000
N          10.325000    -12.326000      2.742000
C          11.595000    -10.458000      2.497000
C          12.060000     -9.206000      3.029000
S          11.594000    -12.706000      1.805000
N          12.292000    -11.247000      1.622000
C          13.289000     -8.528000      2.484000
S          14.387000     -9.034000      1.162000
C          13.768000     -7.328000      3.031000
C          15.485000     -7.745000      1.533000
S          13.116000     -6.285000      4.238000
C          14.948000     -6.880000      2.415000
C          16.729000     -7.485000      0.893000
C          14.523000     -5.239000      4.032000
C          15.369000     -5.686000      2.989000
N          16.741000     -7.728000     -0.420000
S          18.194000     -6.785000      1.499000
C          17.982000     -7.510000     -0.977000
C          18.935000     -7.017000     -0.061000
C           4.640000    -11.974000      6.132000
H           6.905000    -10.933000      7.682000
H           9.032000    -10.172000      6.721000
H           7.741000    -11.667000      2.914000
H           9.748000     -8.413000      5.120000
H          14.487000     -4.327000      4.613000
H          16.276000     -5.189000      2.665000
H          18.084000     -7.571000     -2.052000
H          19.887000     -6.599000     -0.361000
H           4.235000    -12.711000      5.428000
C           3.687000    -10.771000      6.193000
H           4.642000    -12.465000      7.113000
H           2.637000    -11.055000      6.342000
H           3.736000    -10.184000      5.268000
C           4.050000     -9.820000      7.395000
H           5.083000     -9.463000      7.294000
C           3.875000    -10.450000      8.805000
H           3.441000     -8.911000      7.310000
H           3.949000     -9.754000      9.649000
H           4.565000    -11.252000      9.096000
C           2.448000    -11.165000      9.008000
H           2.244000    -11.909000      8.228000
C           1.325000    -10.159000      8.977000
H           2.373000    -11.692000      9.968000
H           1.581000     -9.414000      9.741000
H           0.349000    -10.591000      9.229000
H           1.337000     -9.858000      7.922000
$end

--------------------------------------------------------------

             Standard Nuclear Orientation (Angstroms)
    I     Atom           X                Y                Z
 ----------------------------------------------------------------
    1      C       0.0053354801    -2.4509998745    -0.7187235692
    2      C      -0.3666370807    -1.2351095037    -0.1685772065
    3      N      -0.8899220846    -3.4100252003    -1.0262464420
    4      C      -1.8060344952    -0.9542909582    -0.1003860944
    5      C      -2.2161577983    -3.1732350247    -0.9421200820
    6      C      -2.7424413157    -1.9304911644    -0.5650864535
    7      C      -4.2119908597    -1.6930552458    -0.5027942198
    8      C      -4.7715036115    -1.0021628639     0.5833062346
    9      C      -5.1437396490    -2.1530570540    -1.4397016486
   10      N      -6.0033633100    -0.7297377609     0.7458246842
   11      N      -4.7996863663    -2.7724821327    -2.5598556160
   12      C      -6.4397212867    -1.8258710883    -1.3770762661
   13      C      -6.8786383068    -1.2054906283    -0.1742122113
   14      S      -6.1233800659    -2.9238946476    -3.4332663097
   15      N      -7.1247959463    -2.1504957693    -2.4665153545
   16      C      -8.2361163373    -0.7905012359     0.1418687924
   17      S      -9.5990907254    -0.7432709929    -1.0146886517
   18      C      -8.7964083978    -0.6517367342     1.4583953664
   19      C     -10.8129814222    -0.7725409487     0.2413462387
   20      S      -8.0537829899    -1.0295882749     2.9119691404
   21      C     -10.2104305761    -0.6567521994     1.4764265776
   22      C     -12.2022669102    -0.9544758909     0.0883903310
   23      C      -9.5992715892    -0.8602571974     3.7066533392
   24      C     -10.6451900598    -0.7903525200     2.7939409591
   25      N     -12.5736578477    -1.1830463816    -1.1850354824
   26      S     -13.4554528316    -0.6385369825     1.2630143783
   27      C     -13.9625516096    -1.1524738233    -1.2555935215
   28      C     -14.6129171130    -0.7211601425    -0.0754735189
   29      C       1.4252255924    -2.7651078399    -1.0643624776
   30      H       0.2957180964    -0.4038182181     0.0504442943
   31      H      -2.2263743152    -0.0952781503     0.4130858440
   32      H      -2.9292982160    -3.9535336604    -1.2058809278
   33      H      -4.1169101262    -0.5084095399     1.3012895381
   34      H      -9.7477195516    -0.9645546650     4.7737579455
   35      H     -11.6600663188    -1.0383415655     3.0850296265
   36      H     -14.5377827272    -1.3771812915    -2.1435854781
   37      H     -15.6517024469    -0.4553544241     0.0647632454
   38      H       1.5665377578    -3.4430425489    -1.9155877136
   39      C       2.2228877749    -3.2218723103     0.1725555719
   40      H       1.8798660543    -1.8088518947    -1.3495477112
   41      H       1.9355621158    -4.2513878872     0.4174446131
   42      H       1.8060895300    -2.5567988925     0.9392644945
   43      C       3.7685200201    -3.0960501541     0.0503968730
   44      H       3.9491855891    -2.0385611169    -0.1820378241
   45      C       4.3513655108    -3.9996304316    -0.9908767778
   46      H       4.2483707185    -3.2673978203     1.0222750981
   47      H       3.9619139337    -3.7441212862    -1.9834152132
   48      H       3.9209805861    -4.9982143150    -0.8469148234
   49      C       5.8546764278    -4.0770186275    -1.0327020591
   50      H       6.3199597610    -3.0862547834    -0.9527244054
   51      C       6.4792720312    -4.6657308558    -2.3048090689
   52      H       6.2176986901    -4.5777977579    -0.1263907993
   53      H       7.5582844157    -4.4707709177    -2.2855503968
   54      H       6.1211567220    -4.2918636098    -3.2721800979
   55      H       6.3286759602    -5.7474567906    -2.2039585582
   56      C      10.0924166342    -1.6995879653     0.3714497808
   57      C       9.2256786512    -1.5444117158     1.4935347153
   58      N      10.0686302751    -0.8050828361    -0.6320923374
   59      C       8.2273203075    -0.5647294007     1.4768260653
   60      C       9.1418051999     0.1684454606    -0.6294588168
   61      C       8.1393006207     0.2829148162     0.3640633699
   62      C       6.9368694265     1.1935591923     0.1482114682
   63      C       5.6923639645     0.8279103531     0.6230978562
   64      C       7.1232038622     2.5103216581    -0.3025513148
   65      N       4.6826872711     1.6261126529     0.6044146181
   66      N       8.2714852404     3.1416896367    -0.5609954132
   67      C       6.0066216302     3.3036253388    -0.4802572222
   68      C       4.7558084318     2.8306807562     0.0475142856
   69      S       7.8721933962     4.6875996154    -0.8498870205
   70      N       6.2485237228     4.5843158542    -0.8989100395
   71      C       3.5057619847     3.6670112541    -0.0237961507
   72      S       3.2564624852     5.3001161212    -0.7167191280
   73      C       2.2946660721     3.2242275458     0.5292312251
   74      C       1.6448550429     5.3621848621    -0.0813964357
   75      S       1.8481773284     1.7181672690     1.2379146835
   76      C       1.2594869653     4.1645826839     0.4000165550
   77      C       0.7379877519     6.4538108802    -0.1847422292
   78      C       0.2305106370     2.3727893164     1.5040451977
   79      C       0.0850675229     3.6690594790     0.9545873139
   80      N       0.7958859518     7.1179575400    -1.3417724850
   81      S      -0.5188703084     6.9914522983     0.8804856908
   82      C      -0.0639848115     8.1940031379    -1.3663110652
   83      C      -0.8560285131     8.3123811377    -0.2048604964
   84      C      11.1369911045    -2.7920876583     0.1562159619
   85      H       9.2976710488    -2.1907776143     2.3634164429
   86      H       7.4885479875    -0.5338712137     2.2711888486
   87      H       8.9904805007     0.7584396220    -1.5326363878
   88      H       5.4390315573    -0.1918245541     0.9101508313
   89      H      -0.4750392792     1.6607691551     1.9112645559
   90      H      -0.8258544846     4.2560075779     0.9732159322
   91      H      -0.1810357634     8.7410964631    -2.2919124741
   92      H      -1.7181317374     8.9629309763    -0.1371040335
   93      H      11.8942688456    -2.4553058806    -0.5620586771
   94      C      10.5725621076    -4.1408049581    -0.3144437376
   95      H      11.6693844914    -2.9500439919     1.1022884106
   96      H      11.3502270397    -4.8709227385    -0.5742942333
   97      H       9.9384153956    -4.0135008914    -1.2000207372
   98      C       9.7064626722    -4.8180713732     0.8134551812
   99      H       8.8794236594    -4.1564286514     1.1015079196
  100      C      10.4936274682    -5.2192137136     2.0921581985
  101      H       9.2108155153    -5.6981330110     0.3842554495
  102      H       9.9499296431    -5.8479124304     2.8072516178
  103      H      10.8799786200    -4.4133002976     2.7287281895
  104      C      11.8348245450    -6.0503312880     1.7772026796
  105      H      12.4909659807    -5.5243191601     1.0726874863
  106      C      11.5138472966    -7.3958186045     1.1765667771
  107      H      12.4338017609    -6.2413617993     2.6770291287
  108      H      10.8295203586    -7.8757481414     1.8876372951
  109      H      12.3944909240    -8.0383997397     1.0571503373
  110      H      11.1304867868    -7.1037135247     0.1909302610
 ----------------------------------------------------------------

    9   -5663.4840974012      7.53E-06 Convergence criterion met
 Total energy in the final basis set = -5663.4840974012

                    Orbital Energies (a.u.)
 --------------------------------------------------------------

 Alpha MOs
 -- Occupied --
-88.992 -88.991 -88.935 -88.932 -88.929 -88.921 -88.915 -88.914
-14.391 -14.382 -14.378 -14.370 -14.347 -14.346 -14.343 -14.341
-14.327 -14.323 -10.268 -10.267 -10.267 -10.259 -10.253 -10.253
-10.247 -10.244 -10.242 -10.241 -10.236 -10.236 -10.235 -10.235
-10.235 -10.235 -10.233 -10.233 -10.233 -10.229 -10.229 -10.228
-10.227 -10.225 -10.224 -10.221 -10.221 -10.216 -10.216 -10.213
-10.211 -10.211 -10.208 -10.205 -10.204 -10.203 -10.202 -10.201
-10.186 -10.185 -10.185 -10.184 -10.178 -10.178 -10.177 -10.176
-10.175 -10.171 -10.171 -10.168  -8.047  -8.047  -7.996  -7.993
 -7.987  -7.980  -7.975  -7.975  -6.012  -6.012  -6.007  -6.006
 -6.005  -6.005  -5.960  -5.957  -5.956  -5.953  -5.953  -5.951
 -5.950  -5.947  -5.944  -5.944  -5.940  -5.939  -5.939  -5.937
 -5.936  -5.936  -5.932  -5.931  -1.061  -1.045  -0.977  -0.976
 -0.967  -0.961  -0.937  -0.931  -0.919  -0.917  -0.909  -0.908
 -0.850  -0.850  -0.838  -0.834  -0.816  -0.814  -0.810  -0.808
 -0.806  -0.805  -0.799  -0.795  -0.784  -0.780  -0.769  -0.762
 -0.751  -0.750  -0.745  -0.743  -0.725  -0.722  -0.715  -0.710
 -0.696  -0.696  -0.681  -0.680  -0.658  -0.657  -0.646  -0.646
 -0.639  -0.639  -0.625  -0.623  -0.615  -0.608  -0.603  -0.600
 -0.598  -0.593  -0.587  -0.584  -0.580  -0.578  -0.565  -0.549
 -0.548  -0.547  -0.545  -0.544  -0.529  -0.525  -0.519  -0.516
 -0.509  -0.506  -0.500  -0.499  -0.488  -0.487  -0.484  -0.481
 -0.476  -0.476  -0.475  -0.471  -0.465  -0.464  -0.454  -0.452
 -0.450  -0.446  -0.444  -0.443  -0.442  -0.436  -0.432  -0.432
 -0.431  -0.430  -0.424  -0.422  -0.419  -0.418  -0.417  -0.416
 -0.415  -0.410  -0.406  -0.403  -0.402  -0.402  -0.400  -0.400
 -0.398  -0.397  -0.394  -0.393  -0.387  -0.387  -0.384  -0.382
 -0.379  -0.376  -0.376  -0.372  -0.371  -0.361  -0.359  -0.358
 -0.356  -0.354  -0.351  -0.349  -0.348  -0.346  -0.344  -0.342
 -0.339  -0.338  -0.336  -0.334  -0.331  -0.328  -0.319  -0.318
 -0.316  -0.310  -0.308  -0.307  -0.305  -0.305  -0.303  -0.302
 -0.301  -0.300  -0.293  -0.292  -0.286  -0.285  -0.280  -0.278
 -0.275  -0.274  -0.268  -0.262  -0.256  -0.252  -0.249  -0.248
 -0.247  -0.242  -0.233  -0.230  -0.197  -0.187

          Ground-State Mulliken Net Atomic Charges

     Atom                 Charge (a.u.)
  ----------------------------------------
      1 C                     0.275074
      2 C                    -0.127482
      3 N                    -0.492995
      4 C                    -0.105414
      5 C                     0.097002
      6 C                     0.057467
      7 C                     0.022969
      8 C                     0.067609
      9 C                     0.212718
     10 N                    -0.467515
     11 N                    -0.544793
     12 C                     0.231744
     13 C                     0.234558
     14 S                     0.611915
     15 N                    -0.556819
     16 C                    -0.206653
     17 S                     0.353636
     18 C                    -0.137410
     19 C                    -0.200072
     20 S                     0.302805
     21 C                     0.136759
     22 C                     0.059349
     23 C                    -0.310026
     24 C                    -0.094170
     25 N                    -0.437554
     26 S                     0.281203
     27 C                     0.122800
     28 C                    -0.317239
     29 C                    -0.212946
     30 H                     0.106045
     31 H                     0.092021
     32 H                     0.111621
     33 H                     0.090660
     34 H                     0.127097
     35 H                     0.112902
     36 H                     0.118649
     37 H                     0.136865
     38 H                     0.115937
     39 C                    -0.186735
     40 H                     0.099861
     41 H                     0.105324
     42 H                     0.088443
     43 C                    -0.182718
     44 H                     0.094788
     45 C                    -0.158777
     46 H                     0.086085
     47 H                     0.094071
     48 H                     0.091800
     49 C                    -0.187102
     50 H                     0.093080
     51 C                    -0.326076
     52 H                     0.093437
     53 H                     0.105698
     54 H                     0.106813
     55 H                     0.103365
     56 C                     0.272724
     57 C                    -0.127445
     58 N                    -0.479119
     59 C                    -0.081346
     60 C                     0.094617
     61 C                     0.039898
     62 C                    -0.003110
     63 C                     0.055031
     64 C                     0.254376
     65 N                    -0.508646
     66 N                    -0.549461
     67 C                     0.172578
     68 C                     0.308480
     69 S                     0.614905
     70 N                    -0.540848
     71 C                    -0.230763
     72 S                     0.363630
     73 C                    -0.117081
     74 C                    -0.191703
     75 S                     0.292562
     76 C                     0.163034
     77 C                     0.007361
     78 C                    -0.330597
     79 C                    -0.083694
     80 N                    -0.407372
     81 S                     0.286083
     82 C                     0.112392
     83 C                    -0.311329
     84 C                    -0.221037
     85 H                     0.097206
     86 H                     0.101720
     87 H                     0.107692
     88 H                     0.117873
     89 H                     0.133671
     90 H                     0.105293
     91 H                     0.119996
     92 H                     0.137141
     93 H                     0.120267
     94 C                    -0.187759
     95 H                     0.105396
     96 H                     0.100164
     97 H                     0.108376
     98 C                    -0.191186
     99 H                     0.095912
    100 C                    -0.182230
    101 H                     0.099874
    102 H                     0.091558
    103 H                     0.092095
    104 C                    -0.197917
    105 H                     0.094337
    106 C                    -0.300288
    107 H                     0.084608
    108 H                     0.100017
    109 H                     0.097702
    110 H                     0.104690
  ----------------------------------------
  Sum of atomic charges =     0.000000

                    Cartesian Multipole Moments
 -----------------------------------------------------------------
    Charge (ESU x 10^10)
                 0.0000
    Dipole Moment (Debye)
         X      -3.7877      Y       1.3002      Z       3.2510
       Tot       5.1581
    Quadrupole Moments (Debye-Ang)
        XX    -392.8103     XY     -11.3906     YY    -430.8044
        XZ      -0.8221     YZ      -4.8022     ZZ    -436.9935

 Total job time:  86.99s(wall), 1009.62s(cpu)
        *  Thank you very much for using Q-Chem.  Have a nice day.  *
