 Q-Chem 4.4, Q-Chem, Inc., Pleasanton, CA (2016)
 Q-Chem 4.4.2 for Intel X86 Linux

User input:
--------------------------------------------------------------
$comment
SP
$end

$rem
MEM_STATIC 5000
MEM_TOTAL 20000
JOBTYPE SP
EXCHANGE B3LYP
BASIS 6-31g(d,p)
$end

$molecule
0 1
C         -16.949000     14.677000      3.511000
C         -16.949000     13.945000      2.338000
N         -16.133000     15.742000      3.637000
C         -16.104000     14.237000      1.252000
C         -15.303000     16.048000      2.667000
C         -15.221000     15.319000      1.453000
C         -14.208000     15.718000      0.450000
C         -12.944000     16.149000      0.946000
C         -14.323000     15.755000     -0.993000
N         -11.931000     16.447000      0.145000
N         -15.432000     15.397000     -1.660000
C         -13.222000     16.047000     -1.770000
C         -11.982000     16.394000     -1.207000
S         -15.069000     15.651000     -3.212000
N         -13.480000     16.016000     -3.145000
C         -10.842000     16.794000     -1.960000
S         -10.691000     16.972000     -3.681000
C          -9.644000     17.040000     -1.388000
C          -9.013000     17.537000     -3.565000
S          -9.096000     16.658000      0.252000
C          -8.603000     17.387000     -2.270000
C          -8.225000     17.978000     -4.724000
C          -7.462000     17.118000     -0.276000
C          -7.325000     17.471000     -1.573000
N          -6.893000     18.045000     -4.550000
S          -8.925000     18.638000     -6.247000
C          -6.410000     18.752000     -5.623000
C          -7.340000     19.010000     -6.620000
C         -17.789000     14.355000      4.648000
H         -17.552000     13.042000      2.363000
H         -16.049000     13.608000      0.368000
H         -14.782000     17.004000      2.706000
H         -12.707000     16.047000      2.004000
H          -6.607000     17.051000      0.384000
H          -6.420000     17.890000     -1.999000
H          -5.356000     18.993000     -5.581000
H          -7.206000     19.578000     -7.531000
H         -17.449000     14.958000      5.499000
C         -17.796000     12.847000      5.010000
H         -18.766000     14.832000      4.503000
H         -16.967000     12.515000      5.647000
H         -17.791000     12.169000      4.148000
C         -19.066000     12.383000      5.700000
H         -19.859000     12.638000      4.987000
C         -19.346000     13.168000      7.029000
H         -19.010000     11.321000      5.971000
H         -19.360000     14.241000      6.800000
H         -18.434000     13.139000      7.639000
C         -20.542000     12.741000      7.949000
H         -21.463000     12.659000      7.357000
C         -20.676000     13.742000      9.151000
H         -20.363000     11.725000      8.321000
H         -20.022000     13.518000     10.002000
H         -21.745000     13.761000      9.396000
H         -20.363000     14.751000      8.856000
C          -4.803000      1.180000      1.744000
C          -3.775000      1.712000      0.936000
N          -6.022000      1.747000      1.821000
C          -4.044000      2.948000      0.252000
C          -6.281000      2.876000      1.258000
C          -5.322000      3.611000      0.474000
C          -5.618000      5.021000     -0.078000
C          -6.932000      5.388000     -0.231000
C          -4.617000      6.013000     -0.500000
N          -7.426000      6.578000     -0.678000
N          -3.254000      5.942000     -0.500000
C          -5.098000      7.274000     -0.844000
C          -6.475000      7.533000     -0.973000
S          -2.703000      7.408000     -0.890000
N          -4.096000      8.177000     -1.188000
C          -7.011000      8.852000     -1.463000
S          -8.579000      8.993000     -2.320000
C          -6.561000     10.118000     -1.040000
C          -8.563000     10.714000     -2.143000
S          -5.352000     10.665000      0.056000
C          -7.456000     11.115000     -1.505000
C          -9.649000     11.537000     -2.615000
C          -5.965000     12.319000     -0.139000
C          -7.083000     12.402000     -0.969000
N         -10.607000     10.894000     -3.199000
S          -9.874000     13.245000     -2.497000
C         -11.743000     11.700000     -3.364000
C         -11.461000     13.063000     -3.155000
C          -4.597000      0.042000      2.631000
H          -2.809000      1.231000      0.809000
H          -3.246000      3.400000     -0.329000
H          -7.329000      3.164000      1.313000
H          -7.706000      4.661000      0.013000
H          -5.450000     13.155000      0.315000
H          -7.667000     13.315000     -1.003000
H         -12.740000     11.371000     -3.624000
H         -12.236000     13.816000     -3.214000
H          -4.024000      0.253000      3.542000
C          -3.882000     -1.172000      1.985000
H          -5.556000     -0.231000      3.087000
H          -2.826000     -1.129000      2.278000
H          -3.961000     -1.195000      0.892000
C          -4.513000     -2.432000      2.508000
H          -4.204000     -2.493000      3.559000
C          -3.990000     -3.674000      1.754000
H          -5.602000     -2.542000      2.590000
H          -4.046000     -3.621000      0.660000
H          -4.504000     -4.536000      2.197000
C          -2.460000     -4.055000      1.939000
H          -1.889000     -3.411000      1.259000
C          -2.126000     -5.525000      1.691000
H          -2.033000     -3.949000      2.944000
H          -2.291000     -5.816000      0.646000
H          -2.817000     -6.206000      2.204000
H          -1.131000     -5.913000      1.941000
$end

--------------------------------------------------------------

             Standard Nuclear Orientation (Angstroms)
    I     Atom           X                Y                Z
 ----------------------------------------------------------------
    1      C      -6.7564410762    -6.0121020282     0.2761785841
    2      C      -6.2070894564    -5.5085209061    -0.8884552001
    3      N      -7.2104021541    -5.1678804103     1.2233671606
    4      C      -6.0638761474    -4.1311735216    -1.1356173545
    5      C      -7.0803211717    -3.8717322700     1.0605330842
    6      C      -6.4920005828    -3.2863598071    -0.0897620799
    7      C      -6.3443263523    -1.8143776459    -0.1430522167
    8      C      -6.0028786694    -1.1558750769     1.0731964612
    9      C      -6.5202825385    -0.9234176127    -1.2709141940
   10      N      -5.7584141151     0.1454261363     1.1317305042
   11      N      -6.8502177581    -1.3407015431    -2.5037770705
   12      C      -6.2223030210     0.4173659815    -1.1496642016
   13      C      -5.8190215462     0.9848893536     0.0710975583
   14      S      -6.9596884558     0.0150085788    -3.3727162120
   15      N      -6.4135097906     1.1447898420    -2.3296830567
   16      C      -5.5898322997     2.3752691469     0.2733976319
   17      S      -5.7583928506     3.6758019902    -0.8652540551
   18      C      -5.1233619357     2.8720408833     1.4389563998
   19      C      -5.3303660260     4.9053919790     0.3402609787
   20      S      -4.4136092341     2.0066105384     2.8112207405
   21      C      -4.9098965853     4.2632355959     1.4709535228
   22      C      -5.3474515718     6.3487490951     0.0661545769
   23      C      -3.9577657007     3.5936854586     3.4698100439
   24      C      -4.2568660697     4.6699065894     2.7096297713
   25      N      -4.6813795518     7.1296589435     0.9353593128
   26      S      -6.3660967117     7.1403578939    -1.1911626419
   27      C      -5.0808731939     8.4151735199     0.6664279021
   28      C      -5.8533435302     8.5605413095    -0.4770889475
   29      C      -6.8687494425    -7.4309366567     0.5524902343
   30      H      -5.7670342804    -6.2532293096    -1.5452685951
   31      H      -5.5552525941    -3.7443004265    -2.0141122546
   32      H      -7.6052225709    -3.2032892117     1.7421197617
   33      H      -5.7290841037    -1.7369699800     1.9525725180
   34      H      -3.4058570617     3.6923455313     4.3954325611
   35      H      -4.1505322044     5.6978053757     3.0385358280
   36      H      -4.7177939838     9.1657709597     1.3560205141
   37      H      -6.3130092882     9.4595171776    -0.8657414651
   38      H      -7.1460683419    -7.5473537688     1.6074552972
   39      C      -5.5804666897    -8.2320821107     0.2305422410
   40      H      -7.8018079276    -7.7976973585     0.1075504060
   41      H      -4.8204157807    -8.2332327154     1.0214627756
   42      H      -5.0560160481    -7.9105442484    -0.6773773191
   43      C      -5.8288822176    -9.6895496308    -0.1135132100
   44      H      -6.5091550455    -9.6431666446    -0.9721868955
   45      C      -6.5636858407   -10.4595931660     1.0388593814
   46      H      -4.8880976522   -10.2245130706    -0.2956107649
   47      H      -7.4888529969    -9.9208214381     1.2791857391
   48      H      -6.0162030408   -10.2766062910     1.9723814151
   49      C      -6.7904364080   -12.0068061055     0.9211253592
   50      H      -7.2481294815   -12.2486044971    -0.0471099367
   51      C      -7.6365426222   -12.5176808260     2.1409090672
   52      H      -5.8168048336   -12.5109975941     0.8984648170
   53      H      -7.0487924441   -12.7345811210     3.0406851450
   54      H      -8.2102498744   -13.3713836864     1.7598599695
   55      H      -8.3366519637   -11.7451872232     2.4817544041
   56      C      11.0157767986    -1.8944556780     0.1768088464
   57      C      11.0706150815    -0.4921977158     0.3295745827
   58      N       9.8902124609    -2.5327134683    -0.1961669098
   59      C       9.8453953586     0.2404351066     0.1563730293
   60      C       8.7675166275    -1.9129759295    -0.3152066039
   61      C       8.6157150032    -0.4966134440    -0.1020503784
   62      C       7.2369978700     0.1955767065    -0.1228316728
   63      C       6.2159332850    -0.4269411242    -0.7970665457
   64      C       6.9119143211     1.4954913862     0.4843680568
   65      N       4.9228055116    -0.0148799034    -0.9311229221
   66      N       7.7008547141     2.3604942578     1.1859042914
   67      C       5.5718347392     1.8743205541     0.4621604995
   68      C       4.6094917156     1.1548298818    -0.2700143957
   69      S       6.7373546705     3.5203090811     1.7615380654
   70      N       5.3268072072     3.0904937599     1.0935345899
   71      C       3.1826783083     1.6155116971    -0.4083356372
   72      S       2.1756309980     1.2080220749    -1.8340852375
   73      C       2.3806431857     2.0986936964     0.6440235304
   74      C       0.7437148849     1.7380392520    -1.0203751928
   75      S       2.6295065683     2.3680863403     2.3255706217
   76      C       1.0346610571     2.1890577474     0.2065015906
   77      C      -0.5581700617     1.6437888373    -1.6333364030
   78      C       0.8961418737     2.7075740899     2.4979217263
   79      C       0.1802551311     2.5550677362     1.3105039465
   80      N      -0.5623084663     1.1650708067    -2.8346194340
   81      S      -2.1114470448     2.0503544653    -0.9978460380
   82      C      -1.8588974167     0.8291990619    -3.2510378110
   83      C      -2.8449095556     1.3796495642    -2.4109435863
   84      C      12.1364012128    -2.7660391413     0.5066454558
   85      H      11.9854684829     0.0454291509     0.5633407181
   86      H       9.8577337668     1.3128802377     0.3248313462
   87      H       7.9673320025    -2.5280642947    -0.7222003005
   88      H       6.4287964676    -1.3629391226    -1.3125643754
   89      H       0.4931257969     3.0537928931     3.4402314324
   90      H      -0.9036953743     2.5332427383     1.3293711453
   91      H      -2.1298855527     0.2272276720    -4.1078025838
   92      H      -3.8976024212     1.1902681804    -2.5755261557
   93      H      12.3176091465    -2.9146557093     1.5780220471
   94      C      13.5049167089    -2.3210117680    -0.0690740713
   95      H      11.8798445066    -3.7950627025     0.2283737054
   96      H      14.0504475145    -1.8079991442     0.7322050236
   97      H      13.4189863279    -1.6597214943    -0.9389764472
   98      C      14.2596525868    -3.5447528214    -0.5073908390
   99      H      14.5369971099    -4.0589860476     0.4212895175
  100      C      15.5428351451    -3.1643396053    -1.2776747524
  101      H      13.7745811694    -4.3516439720    -1.0716402441
  102      H      15.4050873071    -2.4592466394    -2.1063184892
  103      H      16.0200537521    -4.1115984275    -1.5577678171
  104      C      16.6930891093    -2.4268797559    -0.4693711038
  105      H      16.4164466009    -1.3665246626    -0.4214858386
  106      C      18.0965539700    -2.5883553352    -1.0508967028
  107      H      16.8901302452    -2.7718376667     0.5532572893
  108      H      18.1932958842    -2.1140834159    -2.0355987636
  109      H      18.3305600366    -3.6306283106    -1.3025297798
  110      H      18.9702778379    -2.2462213603    -0.4829002716
 ----------------------------------------------------------------

    9   -5663.5023665843      9.14E-06 Convergence criterion met
 Total energy in the final basis set = -5663.5023665843

                    Orbital Energies (a.u.)
 --------------------------------------------------------------

 Alpha MOs
 -- Occupied --
-88.997 -88.993 -88.937 -88.925 -88.921 -88.915 -88.911 -88.909
-14.397 -14.391 -14.387 -14.381 -14.354 -14.348 -14.348 -14.333
-14.327 -14.320 -10.278 -10.263 -10.262 -10.261 -10.261 -10.259
-10.257 -10.254 -10.245 -10.241 -10.236 -10.236 -10.234 -10.230
-10.230 -10.229 -10.228 -10.228 -10.227 -10.227 -10.226 -10.226
-10.226 -10.225 -10.224 -10.223 -10.222 -10.221 -10.219 -10.216
-10.215 -10.213 -10.211 -10.200 -10.200 -10.200 -10.197 -10.196
-10.187 -10.187 -10.184 -10.181 -10.180 -10.180 -10.179 -10.178
-10.176 -10.176 -10.175 -10.170  -8.052  -8.048  -7.998  -7.985
 -7.982  -7.973  -7.970  -7.969  -6.017  -6.013  -6.012  -6.010
 -6.007  -6.006  -5.962  -5.959  -5.955  -5.949  -5.946  -5.945
 -5.943  -5.941  -5.939  -5.938  -5.934  -5.934  -5.934  -5.931
 -5.930  -5.930  -5.926  -5.925  -1.048  -1.036  -0.972  -0.966
 -0.964  -0.949  -0.946  -0.943  -0.918  -0.909  -0.907  -0.894
 -0.845  -0.840  -0.835  -0.826  -0.822  -0.817  -0.814  -0.813
 -0.803  -0.801  -0.800  -0.786  -0.786  -0.782  -0.768  -0.763
 -0.750  -0.745  -0.739  -0.738  -0.728  -0.718  -0.716  -0.708
 -0.692  -0.691  -0.676  -0.670  -0.662  -0.652  -0.651  -0.642
 -0.641  -0.632  -0.629  -0.617  -0.614  -0.606  -0.600  -0.596
 -0.593  -0.591  -0.591  -0.585  -0.581  -0.572  -0.565  -0.562
 -0.558  -0.544  -0.540  -0.532  -0.529  -0.519  -0.518  -0.511
 -0.511  -0.503  -0.502  -0.496  -0.495  -0.483  -0.478  -0.476
 -0.473  -0.470  -0.468  -0.466  -0.463  -0.461  -0.454  -0.451
 -0.445  -0.444  -0.440  -0.439  -0.436  -0.431  -0.431  -0.429
 -0.429  -0.428  -0.427  -0.423  -0.421  -0.420  -0.416  -0.413
 -0.408  -0.407  -0.404  -0.404  -0.403  -0.399  -0.399  -0.397
 -0.396  -0.394  -0.394  -0.392  -0.391  -0.387  -0.383  -0.383
 -0.377  -0.375  -0.372  -0.369  -0.364  -0.364  -0.362  -0.360
 -0.356  -0.354  -0.354  -0.352  -0.346  -0.344  -0.342  -0.341
 -0.340  -0.339  -0.337  -0.337  -0.330  -0.330  -0.324  -0.320
 -0.317  -0.312  -0.311  -0.310  -0.305  -0.304  -0.302  -0.301
 -0.299  -0.298  -0.295  -0.294  -0.290  -0.287  -0.280  -0.277
 -0.271  -0.267  -0.266  -0.266  -0.254  -0.250  -0.248  -0.246
 -0.245  -0.237  -0.233  -0.225  -0.197  -0.190

          Ground-State Mulliken Net Atomic Charges

     Atom                 Charge (a.u.)
  ----------------------------------------
      1 C                     0.278865
      2 C                    -0.110665
      3 N                    -0.486824
      4 C                    -0.054716
      5 C                     0.080660
      6 C                     0.022913
      7 C                     0.001539
      8 C                     0.067162
      9 C                     0.237663
     10 N                    -0.545125
     11 N                    -0.539221
     12 C                     0.158983
     13 C                     0.329816
     14 S                     0.610544
     15 N                    -0.559908
     16 C                    -0.201481
     17 S                     0.308066
     18 C                    -0.123546
     19 C                    -0.255333
     20 S                     0.287506
     21 C                     0.165515
     22 C                     0.047616
     23 C                    -0.315219
     24 C                    -0.036594
     25 N                    -0.417106
     26 S                     0.302939
     27 C                     0.116252
     28 C                    -0.304069
     29 C                    -0.241023
     30 H                     0.083757
     31 H                     0.114417
     32 H                     0.107751
     33 H                     0.125523
     34 H                     0.119211
     35 H                     0.124234
     36 H                     0.113977
     37 H                     0.134516
     38 H                     0.131540
     39 C                    -0.190874
     40 H                     0.122597
     41 H                     0.107028
     42 H                     0.098625
     43 C                    -0.182867
     44 H                     0.091365
     45 C                    -0.179953
     46 H                     0.089382
     47 H                     0.091268
     48 H                     0.085941
     49 C                    -0.181141
     50 H                     0.094382
     51 C                    -0.322866
     52 H                     0.096041
     53 H                     0.108984
     54 H                     0.104216
     55 H                     0.105293
     56 C                     0.283542
     57 C                    -0.115360
     58 N                    -0.477955
     59 C                    -0.091478
     60 C                     0.086131
     61 C                     0.015115
     62 C                     0.078284
     63 C                     0.040993
     64 C                     0.238322
     65 N                    -0.500009
     66 N                    -0.563376
     67 C                     0.192582
     68 C                     0.233940
     69 S                     0.625701
     70 N                    -0.533750
     71 C                    -0.233957
     72 S                     0.353589
     73 C                    -0.099744
     74 C                    -0.214090
     75 S                     0.271463
     76 C                     0.121796
     77 C                     0.079109
     78 C                    -0.308097
     79 C                    -0.084681
     80 N                    -0.440983
     81 S                     0.298966
     82 C                     0.097955
     83 C                    -0.317075
     84 C                    -0.248002
     85 H                     0.096164
     86 H                     0.122615
     87 H                     0.098016
     88 H                     0.110861
     89 H                     0.128563
     90 H                     0.129757
     91 H                     0.116263
     92 H                     0.135413
     93 H                     0.115684
     94 C                    -0.183936
     95 H                     0.122166
     96 H                     0.105470
     97 H                     0.099273
     98 C                    -0.176941
     99 H                     0.093000
    100 C                    -0.181190
    101 H                     0.102860
    102 H                     0.097899
    103 H                     0.087846
    104 C                    -0.179482
    105 H                     0.092432
    106 C                    -0.327109
    107 H                     0.091282
    108 H                     0.095393
    109 H                     0.099508
    110 H                     0.101708
  ----------------------------------------
  Sum of atomic charges =     0.000000

                    Cartesian Multipole Moments
 -----------------------------------------------------------------
    Charge (ESU x 10^10)
                 0.0000
    Dipole Moment (Debye)
         X      -1.8704      Y       2.4605      Z       0.6240
       Tot       3.1531
    Quadrupole Moments (Debye-Ang)
        XX    -413.3692     XY      -6.3868     YY    -403.4092
        XZ      31.3735     YZ      11.9901     ZZ    -437.5787

 Total job time:  83.22s(wall), 985.51s(cpu)
        *  Thank you very much for using Q-Chem.  Have a nice day.  *
