 Q-Chem 4.4, Q-Chem, Inc., Pleasanton, CA (2016)
 Q-Chem 4.4.2 for Intel X86 Linux

User input:
--------------------------------------------------------------
$comment
SP
$end

$rem
MEM_STATIC 5000
MEM_TOTAL 20000
JOBTYPE SP
EXCHANGE B3LYP
BASIS 6-31g(d,p)
$end

$molecule
0 1
C           1.513000     10.330000     -3.023000
C           2.559000     10.363000     -2.069000
N           0.825000      9.217000     -3.277000
C           2.940000      9.220000     -1.404000
C           1.122000      8.156000     -2.524000
C           2.208000      8.041000     -1.692000
C           2.591000      6.738000     -0.974000
C           3.985000      6.387000     -0.813000
C           1.703000      5.728000     -0.492000
N           4.413000      5.298000     -0.135000
N           0.385000      5.758000     -0.736000
C           2.113000      4.597000      0.200000
C           3.500000      4.417000      0.397000
S          -0.235000      4.437000      0.035000
N           1.092000      3.785000      0.699000
C           4.082000      3.364000      1.278000
S           3.186000      1.958000      1.939000
C           5.412000      3.328000      1.670000
C           4.749000      1.268000      2.545000
S           6.675000      4.501000      1.488000
C           5.741000      2.196000      2.372000
C           4.914000      0.020000      3.196000
C           7.706000      3.391000      2.402000
C           7.108000      2.194000      2.714000
N           3.923000     -0.796000      2.902000
S           5.804000     -0.325000      4.632000
C           3.978000     -1.878000      3.759000
C           4.855000     -1.800000      4.802000
C           1.075000     11.570000     -3.871000
H           3.022000     11.315000     -1.828000
H           3.774000      9.144000     -0.712000
H           0.563000      7.264000     -2.801000
H           4.725000      7.131000     -1.103000
H           8.750000      3.585000      2.612000
H           7.604000      1.379000      3.229000
H           3.240000     -2.636000      3.536000
H           4.973000     -2.571000      5.551000
H           0.071000     11.396000     -4.276000
C           2.190000     11.826000     -4.918000
H           1.208000     12.377000     -3.139000
H           3.131000     12.104000     -4.427000
H           1.996000     12.648000     -5.618000
C           2.504000     10.608000     -5.748000
H           2.765000      9.831000     -5.019000
C           3.518000     10.850000     -6.905000
H           1.626000     10.193000     -6.259000
H           3.450000      9.961000     -7.544000
H           4.504000     11.061000     -6.472000
C           3.224000     12.018000     -7.913000
H           2.280000     11.789000     -8.424000
C           4.204000     12.145000     -9.077000
H           3.153000     12.970000     -7.372000
H           3.741000     12.937000     -9.678000
H           4.319000     11.234000     -9.676000
H           5.207000     12.499000     -8.807000
C          -4.803000      1.180000      1.744000
C          -3.775000      1.712000      0.936000
N          -6.022000      1.747000      1.821000
C          -4.044000      2.948000      0.252000
C          -6.281000      2.876000      1.258000
C          -5.322000      3.611000      0.474000
C          -5.618000      5.021000     -0.078000
C          -6.932000      5.388000     -0.231000
C          -4.617000      6.013000     -0.500000
N          -7.426000      6.578000     -0.678000
N          -3.254000      5.942000     -0.500000
C          -5.098000      7.274000     -0.844000
C          -6.475000      7.533000     -0.973000
S          -2.703000      7.408000     -0.890000
N          -4.096000      8.177000     -1.188000
C          -7.011000      8.852000     -1.463000
S          -8.579000      8.993000     -2.320000
C          -6.561000     10.118000     -1.040000
C          -8.563000     10.714000     -2.143000
S          -5.352000     10.665000      0.056000
C          -7.456000     11.115000     -1.505000
C          -9.649000     11.537000     -2.615000
C          -5.965000     12.319000     -0.139000
C          -7.083000     12.402000     -0.969000
N         -10.607000     10.894000     -3.199000
S          -9.874000     13.245000     -2.497000
C         -11.743000     11.700000     -3.364000
C         -11.461000     13.063000     -3.155000
C          -4.597000      0.042000      2.631000
H          -2.809000      1.231000      0.809000
H          -3.246000      3.400000     -0.329000
H          -7.329000      3.164000      1.313000
H          -7.706000      4.661000      0.013000
H          -5.450000     13.155000      0.315000
H          -7.667000     13.315000     -1.003000
H         -12.740000     11.371000     -3.624000
H         -12.236000     13.816000     -3.214000
H          -4.024000      0.253000      3.542000
C          -3.882000     -1.172000      1.985000
H          -5.556000     -0.231000      3.087000
H          -2.826000     -1.129000      2.278000
H          -3.961000     -1.195000      0.892000
C          -4.513000     -2.432000      2.508000
H          -4.204000     -2.493000      3.559000
C          -3.990000     -3.674000      1.754000
H          -5.602000     -2.542000      2.590000
H          -4.046000     -3.621000      0.660000
H          -4.504000     -4.536000      2.197000
C          -2.460000     -4.055000      1.939000
H          -1.889000     -3.411000      1.259000
C          -2.126000     -5.525000      1.691000
H          -2.033000     -3.949000      2.944000
H          -2.291000     -5.816000      0.646000
H          -2.817000     -6.206000      2.204000
H          -1.131000     -5.913000      1.941000
$end

--------------------------------------------------------------

             Standard Nuclear Orientation (Angstroms)
    I     Atom           X                Y                Z
 ----------------------------------------------------------------
    1      C       1.8734508763    -5.6695134613    -0.0355498409
    2      C       0.8801409729    -6.1118383348     0.8716464676
    3      N       1.6916248484    -4.6045953666    -0.8162660167
    4      C      -0.3412379639    -5.4813137939     0.9387828675
    5      C       0.5541550108    -3.9300518371    -0.6371225111
    6      C      -0.5257210932    -4.3576229106     0.0949263786
    7      C      -1.8703666713    -3.6156982523     0.1336312997
    8      C      -3.1062328537    -4.3660214914     0.1784399584
    9      C      -2.0780358943    -2.2053418601     0.0401629044
   10      N      -4.3283272604    -3.7968292103     0.2847151117
   11      N      -1.0794510828    -1.3509014752    -0.2250162854
   12      C      -3.3198315422    -1.5934044600     0.1381485524
   13      C      -4.4496491726    -2.4264517435     0.2947446751
   14      S      -1.7658130606     0.1497661300    -0.1969810535
   15      N      -3.3114623421    -0.1967477732     0.1462760124
   16      C      -5.8170853127    -1.9185523347     0.6043421447
   17      S      -6.3359547244    -0.2061317176     0.4820181324
   18      C      -6.8741978173    -2.7257942703     0.9977040772
   19      C      -8.0500261571    -0.7224549669     0.7678055109
   20      S      -6.9099934113    -4.3985011265     1.4504649952
   21      C      -8.0643252610    -2.0508242843     1.1000817398
   22      C      -9.1882283151     0.1219381790     0.7627003490
   23      C      -8.6326988389    -4.1719171970     1.7842354737
   24      C      -9.1087326338    -2.9226689468     1.4671745401
   25      N      -8.9546137515     1.2183841719     0.0716117726
   26      S     -10.4744793137     0.1859911422     1.9092938195
   27      C      -9.9727907740     2.1180817675     0.3207257773
   28      C     -10.8486565088     1.8037014912     1.3192678427
   29      C       3.2550183901    -6.3804171758    -0.2211168459
   30      H       1.1141396100    -6.9230570670     1.5542318515
   31      H      -1.1790527764    -5.7981263309     1.5535122033
   32      H       0.4366483340    -3.0970499141    -1.3279003171
   33      H      -3.0324296772    -5.4443503691     0.3088083700
   34      H      -9.2856188370    -4.9708656860     2.1114185846
   35      H     -10.1460066720    -2.6217648306     1.5619652704
   36      H      -9.8964723123     3.0215712644    -0.2681878170
   37      H     -11.6714699625     2.4364601696     1.6225176991
   38      H       3.9547994609    -5.6913545942    -0.7087808816
   39      C       2.9880601837    -7.7124749543    -0.9689974450
   40      H       3.4657253992    -6.6925566987     0.8098698052
   41      H       2.3729144662    -8.3864355692    -0.3597201387
   42      H       3.8811218203    -8.3026094416    -1.2087936086
   43      C       2.2315271145    -7.5183984355    -2.2577999978
   44      H       1.3131214217    -6.9931833475    -1.9680223335
   45      C       2.0589671491    -8.8077182154    -3.1141215281
   46      H       2.7196451267    -6.8167674927    -2.9460476468
   47      H       1.7206592070    -8.4617010314    -4.0985431068
   48      H       1.3870882128    -9.4955366250    -2.5852637680
   49      C       3.3446807514    -9.6376445789    -3.4675147428
   50      H       4.0003921592    -8.9973982847    -4.0715223855
   51      C       3.1219124017   -10.8370895196    -4.3857364461
   52      H       3.8503184282    -9.9543225644    -2.5466067163
   53      H       4.1483966765   -11.1789127469    -4.5655166308
   54      H       2.6312998448   -10.5970534730    -5.3363304790
   55      H       2.5835627015   -11.6790713364    -3.9324471119
   56      C      -1.3169681769     5.9920494106    -0.4452114714
   57      C      -1.4175967058     4.6455657262    -0.8569487505
   58      N      -0.1333300953     6.5723471407    -0.1701943154
   59      C      -0.2057473936     3.8721764680    -0.8916373646
   60      C       0.9633519638     5.8974467991    -0.1480811942
   61      C       1.0360400584     4.4902596898    -0.4465822501
   62      C       2.3395324446     3.6809134089    -0.2844520656
   63      C       3.5286476972     4.3664828111    -0.3107866571
   64      C       2.4391916084     2.2202090979    -0.1410645942
   65      N       4.7900339957     3.8676728352    -0.1692302580
   66      N       1.4592509407     1.2707713788    -0.1079843109
   67      C       3.7061352871     1.7066577184     0.1252748428
   68      C       4.8597932751     2.5100496052     0.0662348311
   69      S       2.1689252346    -0.1301026290     0.2645360387
   70      N       3.7221052478     0.3251786763     0.2955969397
   71      C       6.2482999314     1.9506984312     0.2285078407
   72      S       7.6831328198     2.7046453543    -0.5368499967
   73      C       6.6408254896     1.0287137165     1.2184840385
   74      C       8.7493022499     1.7436082164     0.4291294886
   75      S       5.8296875888     0.2158586074     2.5004465486
   76      C       8.0553952072     0.9286405172     1.2338745820
   77      C      10.1823307750     1.8822782282     0.3472217713
   78      C       7.3989616550    -0.3800608789     3.0764403603
   79      C       8.4790620702     0.0903072344     2.3295468397
   80      N      10.5980468899     2.7503214328    -0.5164622605
   81      S      11.4234350307     1.0832563441     1.2433452310
   82      C      11.9579498646     3.0440367455    -0.3382707495
   83      C      12.5963744473     2.1114184767     0.5005446157
   84      C      -2.4847825182     6.8254906727    -0.1886294635
   85      H      -2.3557523411     4.1809773347    -1.1479257778
   86      H      -0.2726579504     2.8203621340    -1.1521725528
   87      H       1.8531949254     6.5096735242    -0.0152996410
   88      H       3.5037212258     5.4432543271    -0.4753551026
   89      H       7.4542934970    -1.0854701507     3.8947148537
   90      H       9.4904007412    -0.0339439454     2.7004062966
   91      H      12.5055110958     3.8704938948    -0.7707002563
   92      H      13.6410239236     2.2113049962     0.7648269549
   93      H      -3.0236293986     6.6072378249     0.7413064127
   94      C      -3.5708796769     6.7907444371    -1.2938546266
   95      H      -2.1506828130     7.8448681401     0.0380707042
   96      H      -4.3573882018     6.1012522585    -0.9639472521
   97      H      -3.1895290030     6.4747638895    -2.2716822991
   98      C      -4.1318773560     8.1757395329    -1.4562128379
   99      H      -4.7128264451     8.3589896386    -0.5436776032
  100      C      -5.0711103417     8.2588486436    -2.6791369052
  101      H      -3.4843403100     9.0613919156    -1.4887801675
  102      H      -4.6551792034     7.8810950020    -3.6209885254
  103      H      -5.4252346718     9.2963862925    -2.7191442271
  104      C      -6.4273537632     7.4357633004    -2.6206535790
  105      H      -6.1814761054     6.4010680417    -2.8892180944
  106      C      -7.5457383749     7.9695347853    -3.5141097124
  107      H      -6.9647838082     7.4187095363    -1.6643753162
  108      H      -7.2969100077     7.8906902512    -4.5798484154
  109      H      -7.6814889368     9.0541308779    -3.4159562575
  110      H      -8.5606477495     7.5626365900    -3.4277278856
 ----------------------------------------------------------------

   10   -5663.4964836441      3.50E-06 Convergence criterion met
 Total energy in the final basis set = -5663.4964836441

                    Orbital Energies (a.u.)
 --------------------------------------------------------------

 Alpha MOs
 -- Occupied --
-88.992 -88.991 -88.935 -88.927 -88.924 -88.917 -88.914 -88.912
-14.396 -14.385 -14.384 -14.382 -14.354 -14.349 -14.341 -14.337
-14.329 -14.321 -10.266 -10.264 -10.263 -10.262 -10.262 -10.258
-10.258 -10.254 -10.246 -10.241 -10.238 -10.237 -10.235 -10.233
-10.232 -10.231 -10.231 -10.230 -10.229 -10.229 -10.229 -10.229
-10.227 -10.225 -10.225 -10.225 -10.224 -10.223 -10.220 -10.218
-10.217 -10.215 -10.204 -10.204 -10.203 -10.201 -10.201 -10.201
-10.192 -10.180 -10.180 -10.179 -10.179 -10.178 -10.177 -10.176
-10.176 -10.172 -10.169 -10.168  -8.046  -8.046  -7.996  -7.988
 -7.981  -7.976  -7.974  -7.972  -6.012  -6.011  -6.006  -6.005
 -6.005  -6.004  -5.960  -5.957  -5.953  -5.952  -5.949  -5.946
 -5.945  -5.942  -5.940  -5.938  -5.938  -5.937  -5.936  -5.934
 -5.933  -5.932  -5.930  -5.928  -1.038  -1.035  -0.977  -0.971
 -0.951  -0.949  -0.947  -0.944  -0.915  -0.909  -0.905  -0.895
 -0.843  -0.843  -0.830  -0.822  -0.813  -0.811  -0.811  -0.808
 -0.806  -0.804  -0.801  -0.787  -0.784  -0.783  -0.768  -0.764
 -0.753  -0.747  -0.744  -0.742  -0.724  -0.721  -0.710  -0.709
 -0.696  -0.692  -0.674  -0.672  -0.654  -0.652  -0.645  -0.642
 -0.639  -0.630  -0.626  -0.618  -0.616  -0.607  -0.606  -0.599
 -0.598  -0.593  -0.587  -0.586  -0.579  -0.575  -0.562  -0.552
 -0.544  -0.542  -0.540  -0.535  -0.525  -0.521  -0.520  -0.513
 -0.507  -0.505  -0.500  -0.497  -0.492  -0.479  -0.477  -0.473
 -0.471  -0.471  -0.468  -0.466  -0.462  -0.461  -0.454  -0.451
 -0.446  -0.445  -0.442  -0.440  -0.438  -0.435  -0.433  -0.433
 -0.430  -0.429  -0.422  -0.422  -0.419  -0.415  -0.415  -0.413
 -0.410  -0.405  -0.405  -0.404  -0.401  -0.399  -0.398  -0.398
 -0.396  -0.394  -0.393  -0.389  -0.388  -0.387  -0.384  -0.381
 -0.378  -0.375  -0.372  -0.370  -0.368  -0.364  -0.360  -0.358
 -0.357  -0.355  -0.354  -0.348  -0.347  -0.344  -0.341  -0.341
 -0.339  -0.336  -0.333  -0.332  -0.330  -0.328  -0.318  -0.317
 -0.316  -0.311  -0.311  -0.305  -0.302  -0.301  -0.298  -0.297
 -0.297  -0.295  -0.293  -0.292  -0.289  -0.286  -0.282  -0.279
 -0.278  -0.271  -0.271  -0.267  -0.259  -0.256  -0.250  -0.247
 -0.247  -0.240  -0.236  -0.226  -0.195  -0.192

          Ground-State Mulliken Net Atomic Charges

     Atom                 Charge (a.u.)
  ----------------------------------------
      1 C                     0.233254
      2 C                    -0.112597
      3 N                    -0.457427
      4 C                    -0.071989
      5 C                     0.065114
      6 C                     0.050607
      7 C                     0.021779
      8 C                     0.060923
      9 C                     0.235755
     10 N                    -0.528993
     11 N                    -0.574783
     12 C                     0.189799
     13 C                     0.294249
     14 S                     0.637444
     15 N                    -0.548765
     16 C                    -0.238527
     17 S                     0.346631
     18 C                    -0.106282
     19 C                    -0.222749
     20 S                     0.294407
     21 C                     0.172011
     22 C                     0.035735
     23 C                    -0.310620
     24 C                    -0.080401
     25 N                    -0.413620
     26 S                     0.285056
     27 C                     0.120176
     28 C                    -0.311689
     29 C                    -0.208380
     30 H                     0.089992
     31 H                     0.105269
     32 H                     0.111455
     33 H                     0.109930
     34 H                     0.122990
     35 H                     0.105600
     36 H                     0.113604
     37 H                     0.139149
     38 H                     0.126090
     39 C                    -0.183949
     40 H                     0.099138
     41 H                     0.088286
     42 H                     0.095865
     43 C                    -0.167115
     44 H                     0.099164
     45 C                    -0.176985
     46 H                     0.093844
     47 H                     0.090182
     48 H                     0.084616
     49 C                    -0.179787
     50 H                     0.093856
     51 C                    -0.316071
     52 H                     0.093440
     53 H                     0.101890
     54 H                     0.103976
     55 H                     0.099966
     56 C                     0.282840
     57 C                    -0.117323
     58 N                    -0.476839
     59 C                    -0.094148
     60 C                     0.086287
     61 C                     0.016610
     62 C                     0.080169
     63 C                     0.040815
     64 C                     0.251893
     65 N                    -0.500291
     66 N                    -0.593428
     67 C                     0.187231
     68 C                     0.234756
     69 S                     0.654267
     70 N                    -0.534777
     71 C                    -0.230862
     72 S                     0.357392
     73 C                    -0.100404
     74 C                    -0.215127
     75 S                     0.277454
     76 C                     0.122901
     77 C                     0.090031
     78 C                    -0.306348
     79 C                    -0.082574
     80 N                    -0.438166
     81 S                     0.273537
     82 C                     0.103754
     83 C                    -0.311889
     84 C                    -0.247972
     85 H                     0.098853
     86 H                     0.121086
     87 H                     0.098824
     88 H                     0.111306
     89 H                     0.130476
     90 H                     0.115927
     91 H                     0.121902
     92 H                     0.132854
     93 H                     0.116695
     94 C                    -0.184151
     95 H                     0.122103
     96 H                     0.107719
     97 H                     0.099295
     98 C                    -0.176883
     99 H                     0.092726
    100 C                    -0.180959
    101 H                     0.102472
    102 H                     0.098126
    103 H                     0.087338
    104 C                    -0.179375
    105 H                     0.094663
    106 C                    -0.326464
    107 H                     0.090085
    108 H                     0.095897
    109 H                     0.098892
    110 H                     0.100290
  ----------------------------------------
  Sum of atomic charges =     0.000000

                    Cartesian Multipole Moments
 -----------------------------------------------------------------
    Charge (ESU x 10^10)
                 0.0000
    Dipole Moment (Debye)
         X      -2.4069      Y      -3.0447      Z       3.7765
       Tot       5.4153
    Quadrupole Moments (Debye-Ang)
        XX    -364.2057     XY     -17.7318     YY    -435.1905
        XZ       3.0441     YZ     -11.6927     ZZ    -444.2486

 Total job time:  95.98s(wall), 1034.34s(cpu)
        *  Thank you very much for using Q-Chem.  Have a nice day.  *
