 Q-Chem 4.4, Q-Chem, Inc., Pleasanton, CA (2016)
 Q-Chem 4.4.2 for Intel X86 Linux

User input:
--------------------------------------------------------------
$comment
SP
$end

$rem
MEM_STATIC 5000
MEM_TOTAL 20000
JOBTYPE SP
EXCHANGE B3LYP
BASIS 6-31g(d,p)
$end

$molecule
0 1
C          17.409000      3.834000     11.535000
C          17.213000      2.499000     12.023000
N          18.636000      4.370000     11.319000
C          18.287000      1.642000     12.225000
C          19.694000      3.516000     11.582000
C          19.576000      2.158000     12.060000
C          20.777000      1.309000     12.184000
C          20.618000      0.095000     13.010000
C          22.036000      1.447000     11.675000
N          21.531000     -0.793000     13.268000
N          22.398000      2.523000     10.912000
C          23.051000      0.511000     11.931000
C          22.815000     -0.558000     12.815000
S          23.959000      2.230000     10.527000
N          24.226000      0.812000     11.352000
C          23.836000     -1.483000     13.395000
S          25.554000     -1.021000     13.469000
C          23.756000     -2.649000     14.076000
C          26.101000     -2.544000     14.097000
S          22.307000     -3.535000     14.333000
C          24.964000     -3.286000     14.337000
C          27.479000     -3.011000     14.127000
C          23.335000     -4.757000     15.137000
C          24.686000     -4.454000     15.049000
N          27.741000     -4.231000     14.548000
S          28.875000     -2.167000     13.503000
C          29.119000     -4.506000     14.572000
C          29.856000     -3.440000     14.033000
C          16.243000      4.693000     11.129000
H          16.199000      2.148000     12.189000
H          18.095000      0.602000     12.470000
H          20.640000      4.054000     11.578000
H          19.686000     -0.064000     13.549000
H          22.875000     -5.661000     15.513000
H          25.430000     -5.135000     15.447000
H          29.521000     -5.429000     14.968000
H          30.937000     -3.402000     13.987000
H          15.326000      4.098000     11.213000
C          16.292000      5.489000      9.788000
H          16.203000      5.456000     11.917000
H          16.629000      4.868000      8.948000
H          17.096000      6.227000      9.899000
C          14.958000      6.206000      9.613000
H          14.153000      5.464000      9.679000
C          14.882000      7.190000      8.383000
H          14.707000      6.842000     10.471000
H          15.660000      7.961000      8.444000
H          13.979000      7.803000      8.489000
C          14.866000      6.480000      7.046000
H          14.648000      7.249000      6.294000
C          13.763000      5.441000      6.982000
H          15.809000      5.947000      6.874000
H          13.639000      5.137000      5.936000
H          12.821000      5.886000      7.326000
H          13.865000      4.609000      7.691000
C          28.820000      0.007000      8.879000
C          27.510000      0.106000      9.367000
N          29.455000     -1.201000      8.719000
C          26.750000     -1.084000      9.525000
C          28.728000     -2.273000      8.990000
C          27.359000     -2.308000      9.349000
C          26.664000     -3.638000      9.592000
C          25.580000     -3.614000     10.450000
C          26.871000     -4.804000      8.893000
N          24.754000     -4.720000     10.673000
N          27.894000     -4.936000      8.030000
C          25.930000     -5.835000      8.947000
C          24.851000     -5.805000      9.940000
S          27.588000     -6.345000      7.300000
N          26.245000     -6.849000      8.047000
C          23.785000     -6.754000     10.224000
S          22.998000     -6.818000     11.801000
C          23.085000     -7.571000      9.307000
C          21.609000     -7.798000     11.166000
S          23.395000     -7.987000      7.653000
C          22.007000     -8.216000      9.891000
C          20.381000     -8.151000     11.828000
C          22.126000     -9.205000      7.776000
C          21.474000     -9.195000      9.008000
N          19.322000     -8.359000     11.083000
S          20.233000     -7.777000     13.506000
C          18.207000     -8.322000     11.927000
C          18.540000     -7.824000     13.150000
C          29.729000      1.234000      8.649000
H          27.022000      1.062000      9.533000
H          25.705000     -0.971000      9.798000
H          29.294000     -3.202000      8.937000
H          25.519000     -2.803000     11.174000
H          21.944000     -9.827000      6.909000
H          20.692000     -9.839000      9.394000
H          17.199000     -8.595000     11.643000
H          17.762000     -7.639000     13.879000
H          29.205000      2.193000      8.744000
C          30.411000      1.276000      7.294000
H          30.553000      1.251000      9.373000
H          29.669000      1.431000      6.501000
H          30.872000      0.303000      7.083000
C          31.549000      2.342000      7.253000
H          31.137000      3.345000      7.423000
C          32.425000      2.524000      6.002000
H          32.139000      2.297000      8.177000
H          33.131000      3.343000      6.188000
H          31.794000      2.844000      5.163000
C          33.259000      1.283000      5.512000
H          33.937000      0.940000      6.304000
C          34.098000      1.551000      4.287000
H          32.585000      0.464000      5.233000
H          34.887000      2.270000      4.540000
H          33.369000      1.913000      3.552000
H          34.471000      0.634000      3.815000
$end

--------------------------------------------------------------

             Standard Nuclear Orientation (Angstroms)
    I     Atom           X                Y                Z
 ----------------------------------------------------------------
    1      C       8.6306886982    -0.8288239790     0.6166198096
    2      C       8.0351631618     0.4686243730     0.7607104391
    3      N       7.9389020374    -1.9831760346     0.7850939846
    4      C       6.6754193739     0.6130750351     1.0035269079
    5      C       6.5971076138    -1.8143668182     1.0833223759
    6      C       5.9244506788    -0.5444573320     1.2297277876
    7      C       4.4624022128    -0.4986545542     1.4269443908
    8      C       3.9255826858     0.7832679135     1.9267969511
    9      C       3.4965530927    -1.4447724306     1.2393212547
   10      N       2.6810649418     1.0564980425     2.1821357093
   11      N       3.7916978245    -2.7108845058     0.8140697992
   12      C       2.1412856237    -1.1902408576     1.5045018832
   13      C       1.7546328812     0.0371671537     2.0736084027
   14      S       2.3360251913    -3.4476216636     0.7190406191
   15      N       1.3349907561    -2.2388604682     1.2662740536
   16      C       0.4181468650     0.3752270056     2.6515241965
   17      S      -0.6990585106    -0.9040125573     3.1861664036
   18      C      -0.1622937936     1.5336391850     3.0399657810
   19      C      -1.9986442687     0.1760292370     3.5832917992
   20      S       0.5068963071     3.0957749376     2.7898408132
   21      C      -1.4988425425     1.4497662256     3.4138063467
   22      C      -3.3857732184    -0.2020581629     3.8086719114
   23      C      -0.9969215086     3.7288264315     3.5207729463
   24      C      -1.9184778145     2.7270786388     3.7890812294
   25      N      -4.2885116664     0.7352146846     4.0108300268
   26      S      -4.0560875266    -1.8104000133     3.6884919606
   27      C      -5.5637569827     0.2048371635     4.2707032045
   28      C      -5.5662070750    -1.1923855121     4.1372536186
   29      C      10.0552598759    -0.9846531878     0.1599063137
   30      H       8.6599319816     1.3468157314     0.6288132833
   31      H       6.2361404641     1.6054922422     0.9784046764
   32      H       6.1452869487    -2.7542856513     1.3944279430
   33      H       4.6159702534     1.5759889010     2.2085494002
   34      H      -1.1327559651     4.7996625837     3.5918428804
   35      H      -2.8977451913     2.9716156808     4.1852352902
   36      H      -6.4076232388     0.8254002822     4.5411475750
   37      H      -6.4217666541    -1.8264621219     4.3324090936
   38      H      10.4545379485     0.0076675887    -0.0806066737
   39      C      10.4095183226    -2.0304506951    -0.9424123909
   40      H      10.5753970791    -1.3288687729     1.0630596345
   41      H       9.7291107058    -1.9751777244    -1.8019473661
   42      H      10.1956664346    -3.0156930492    -0.5100400123
   43      C      11.8994130779    -1.9151096624    -1.2443727599
   44      H      12.1211397827    -0.8740514383    -1.5089101722
   45      C      12.4706496834    -3.0072912017    -2.2281208097
   46      H      12.5199055629    -2.0238371584    -0.3461364838
   47      H      12.2944795558    -4.0189233692    -1.8421021007
   48      H      13.5657000565    -2.9631809801    -2.1916109652
   49      C      11.9976660284    -2.8357259672    -3.6559782370
   50      H      12.5836340343    -3.5409642218    -4.2590284010
   51      C      12.2802246025    -1.4372689884    -4.1704728732
   52      H      10.9134712072    -2.9838525698    -3.7301543725
   53      H      12.1474120606    -1.4392668870    -5.2587122022
   54      H      13.3213206257    -1.1700383971    -3.9504004270
   55      H      11.7490851077    -0.6319148009    -3.6464457082
   56      C      -2.9867312155    -4.8466530694    -0.2799235241
   57      C      -1.8422014211    -4.0646521097    -0.0735959966
   58      N      -4.2153518806    -4.2937496456    -0.5498829012
   59      C      -1.9138310341    -2.6698674468    -0.3345728973
   60      C      -4.2387422076    -2.9762244602    -0.6712677376
   61      C      -3.1315987625    -2.0949247968    -0.6287084253
   62      C      -3.3331599363    -0.6008687152    -0.8240120824
   63      C      -2.3958039025     0.2254070960    -0.2320425312
   64      C      -4.2193029674    -0.0057587592    -1.6909611402
   65      N      -2.3614495786     1.6095502561    -0.4275124587
   66      N      -5.1706446571    -0.7155033220    -2.3233642118
   67      C      -4.0569778146     1.3326535527    -2.0565579511
   68      C      -3.1129926289     2.1912560032    -1.3334509044
   69      S      -5.7850469499     0.3413218386    -3.3804580593
   70      N      -4.9524228312     1.6903780723    -3.0603668923
   71      C      -2.7893128305     3.6014356674    -1.4891355302
   72      S      -2.1056790682     4.5461727445    -0.1660668494
   73      C      -2.7486564032     4.3543798793    -2.6848780062
   74      C      -1.5873904436     5.8864843433    -1.2741678013
   75      S      -3.3306432769     4.0239378601    -4.2839312732
   76      C      -2.2216693828     5.6211511859    -2.4932008373
   77      C      -0.7641586603     7.0292803966    -0.9789668330
   78      C      -3.0083403022     5.7085194084    -4.6929787029
   79      C      -2.4091031594     6.4198525142    -3.6547359282
   80      N      -0.0677787506     7.5516292802    -1.9597709242
   81      S      -0.3366180624     7.3111896968     0.6688196167
   82      C       0.9015323678     8.3805305322    -1.3850634594
   83      C       0.9878842342     8.1683583461    -0.0426222805
   84      C      -3.0179544674    -6.3730760021    -0.0480439449
   85      H      -0.8795585572    -4.4985584728     0.1807266031
   86      H      -0.9871206574    -2.1069833416    -0.2738080893
   87      H      -5.2427630715    -2.5728272633    -0.7954402243
   88      H      -1.8340115110    -0.1638138196     0.6156097488
   89      H      -3.2705145538     6.0402430258    -5.6894329685
   90      H      -2.1317312747     7.4657651443    -3.5884969074
   91      H       1.5431199975     9.0617503270    -1.9287121553
   92      H       1.7646951953     8.6631982495     0.5253990226
   93      H      -2.0281796873    -6.8105735837     0.1314658065
   94      C      -3.6176295277    -7.1777982653    -1.1863430712
   95      H      -3.6367803847    -6.6234502623     0.8224778606
   96      H      -2.9683526278    -7.1274013994    -2.0691441038
   97      H      -4.5707346523    -6.7290638777    -1.4929357505
   98      C      -3.9183281736    -8.6474757180    -0.7588977422
   99      H      -2.9895464161    -9.1585825824    -0.4746668149
  100      C      -4.5877527337    -9.6373378056    -1.7271667162
  101      H      -4.3732838584    -8.6624611447     0.2394467684
  102      H      -4.6709311302   -10.6104372257    -1.2272148455
  103      H      -3.9343760435    -9.7905038137    -2.5955681640
  104      C      -6.0143256181    -9.2645093525    -2.2763713686
  105      H      -6.7216974685    -9.1328395259    -1.4475860394
  106      C      -6.6021515249   -10.2939156360    -3.2097273600
  107      H      -5.9619990821    -8.3362892333    -2.8582195826
  108      H      -6.8074174047   -11.2142407893    -2.6490505095
  109      H      -5.8393519046   -10.3958221018    -3.9910479162
  110      H      -7.4651392470    -9.9178690017    -3.7724378721
 ----------------------------------------------------------------

   10   -5663.5015079405      6.84E-06 Convergence criterion met
 Total energy in the final basis set = -5663.5015079405

                    Orbital Energies (a.u.)
 --------------------------------------------------------------

 Alpha MOs
 -- Occupied --
-88.994 -88.986 -88.927 -88.926 -88.920 -88.919 -88.906 -88.904
-14.393 -14.388 -14.387 -14.380 -14.353 -14.343 -14.343 -14.342
-14.335 -14.326 -10.270 -10.268 -10.264 -10.262 -10.261 -10.261
-10.257 -10.251 -10.243 -10.242 -10.242 -10.238 -10.235 -10.235
-10.234 -10.230 -10.230 -10.229 -10.229 -10.228 -10.226 -10.225
-10.224 -10.223 -10.223 -10.221 -10.220 -10.216 -10.216 -10.215
-10.210 -10.205 -10.205 -10.204 -10.199 -10.197 -10.193 -10.191
-10.187 -10.183 -10.181 -10.179 -10.177 -10.176 -10.175 -10.174
-10.173 -10.170 -10.167 -10.166  -8.049  -8.042  -7.989  -7.989
 -7.980  -7.977  -7.966  -7.964  -6.014  -6.008  -6.007  -6.007
 -6.001  -6.000  -5.953  -5.953  -5.950  -5.949  -5.946  -5.946
 -5.944  -5.941  -5.940  -5.938  -5.936  -5.933  -5.931  -5.928
 -5.927  -5.925  -5.922  -5.920  -1.040  -1.038  -0.972  -0.966
 -0.963  -0.953  -0.934  -0.930  -0.921  -0.909  -0.906  -0.901
 -0.845  -0.841  -0.839  -0.830  -0.815  -0.811  -0.811  -0.806
 -0.801  -0.799  -0.798  -0.792  -0.783  -0.778  -0.767  -0.765
 -0.749  -0.747  -0.741  -0.739  -0.720  -0.716  -0.709  -0.708
 -0.691  -0.691  -0.679  -0.664  -0.660  -0.651  -0.650  -0.641
 -0.637  -0.630  -0.623  -0.620  -0.614  -0.604  -0.602  -0.592
 -0.591  -0.587  -0.585  -0.582  -0.580  -0.576  -0.555  -0.554
 -0.553  -0.549  -0.542  -0.540  -0.528  -0.516  -0.510  -0.508
 -0.506  -0.504  -0.502  -0.499  -0.485  -0.479  -0.478  -0.476
 -0.474  -0.469  -0.466  -0.461  -0.460  -0.460  -0.455  -0.450
 -0.447  -0.444  -0.436  -0.434  -0.434  -0.434  -0.431  -0.430
 -0.429  -0.425  -0.421  -0.419  -0.415  -0.414  -0.414  -0.412
 -0.410  -0.405  -0.403  -0.402  -0.400  -0.396  -0.396  -0.393
 -0.392  -0.392  -0.391  -0.391  -0.390  -0.388  -0.384  -0.382
 -0.379  -0.376  -0.375  -0.373  -0.371  -0.358  -0.357  -0.354
 -0.352  -0.352  -0.345  -0.344  -0.343  -0.341  -0.340  -0.340
 -0.335  -0.334  -0.332  -0.332  -0.327  -0.326  -0.317  -0.317
 -0.316  -0.313  -0.312  -0.310  -0.310  -0.306  -0.303  -0.299
 -0.295  -0.293  -0.292  -0.288  -0.287  -0.284  -0.282  -0.280
 -0.275  -0.269  -0.265  -0.263  -0.259  -0.253  -0.252  -0.248
 -0.243  -0.236  -0.230  -0.227  -0.191  -0.187

          Ground-State Mulliken Net Atomic Charges

     Atom                 Charge (a.u.)
  ----------------------------------------
      1 C                     0.272693
      2 C                    -0.128449
      3 N                    -0.489436
      4 C                    -0.068045
      5 C                     0.071026
      6 C                     0.034732
      7 C                     0.050591
      8 C                     0.062430
      9 C                     0.201016
     10 N                    -0.502792
     11 N                    -0.553381
     12 C                     0.241999
     13 C                     0.278518
     14 S                     0.606975
     15 N                    -0.582568
     16 C                    -0.217781
     17 S                     0.283033
     18 C                    -0.114018
     19 C                    -0.232475
     20 S                     0.291097
     21 C                     0.182558
     22 C                     0.072897
     23 C                    -0.298087
     24 C                    -0.066695
     25 N                    -0.441932
     26 S                     0.289589
     27 C                     0.111218
     28 C                    -0.308952
     29 C                    -0.232747
     30 H                     0.089794
     31 H                     0.108314
     32 H                     0.124860
     33 H                     0.108100
     34 H                     0.123824
     35 H                     0.123017
     36 H                     0.122009
     37 H                     0.137793
     38 H                     0.089746
     39 C                    -0.163499
     40 H                     0.124149
     41 H                     0.100671
     42 H                     0.119296
     43 C                    -0.182150
     44 H                     0.090464
     45 C                    -0.183789
     46 H                     0.087687
     47 H                     0.089728
     48 H                     0.085756
     49 C                    -0.163274
     50 H                     0.091183
     51 C                    -0.313661
     52 H                     0.098174
     53 H                     0.097671
     54 H                     0.095773
     55 H                     0.104524
     56 C                     0.260857
     57 C                    -0.132227
     58 N                    -0.479832
     59 C                    -0.087158
     60 C                     0.084895
     61 C                     0.055145
     62 C                     0.049715
     63 C                     0.024512
     64 C                     0.227211
     65 N                    -0.514236
     66 N                    -0.545401
     67 C                     0.176186
     68 C                     0.308207
     69 S                     0.609253
     70 N                    -0.532557
     71 C                    -0.229091
     72 S                     0.328248
     73 C                    -0.110336
     74 C                    -0.225431
     75 S                     0.282506
     76 C                     0.137369
     77 C                     0.056573
     78 C                    -0.325870
     79 C                    -0.035666
     80 N                    -0.420286
     81 S                     0.266352
     82 C                     0.112440
     83 C                    -0.294464
     84 C                    -0.219186
     85 H                     0.086562
     86 H                     0.115094
     87 H                     0.113706
     88 H                     0.128797
     89 H                     0.131033
     90 H                     0.111439
     91 H                     0.119506
     92 H                     0.118179
     93 H                     0.091595
     94 C                    -0.174814
     95 H                     0.116111
     96 H                     0.087257
     97 H                     0.126435
     98 C                    -0.187358
     99 H                     0.082444
    100 C                    -0.172846
    101 H                     0.087180
    102 H                     0.087627
    103 H                     0.088398
    104 C                    -0.176166
    105 H                     0.089205
    106 C                    -0.310439
    107 H                     0.095862
    108 H                     0.100773
    109 H                     0.097780
    110 H                     0.099743
  ----------------------------------------
  Sum of atomic charges =     0.000000

                    Cartesian Multipole Moments
 -----------------------------------------------------------------
    Charge (ESU x 10^10)
                 0.0000
    Dipole Moment (Debye)
         X       1.1398      Y       2.1103      Z       0.9867
       Tot       2.5935
    Quadrupole Moments (Debye-Ang)
        XX    -418.9015     XY      12.1044     YY    -423.9049
        XZ      -7.4330     YZ      -1.1886     ZZ    -441.9735

 Total job time:  102.76s(wall), 1140.40s(cpu)
        *  Thank you very much for using Q-Chem.  Have a nice day.  *
