 Q-Chem 4.4, Q-Chem, Inc., Pleasanton, CA (2016)
 Q-Chem 4.4.2 for Intel X86 Linux

User input:
--------------------------------------------------------------
$comment
SP
$end

$rem
MEM_STATIC 5000
MEM_TOTAL 20000
JOBTYPE SP
EXCHANGE B3LYP
BASIS 6-31g(d,p)
$end

$molecule
0 1
C         -14.976000     14.720000      8.474000
C         -14.108000     15.468000      7.681000
N         -16.286000     14.986000      8.616000
C         -14.678000     16.501000      6.931000
C         -16.822000     16.122000      7.946000
C         -16.041000     16.827000      7.024000
C         -16.770000     17.948000      6.193000
C         -18.021000     17.820000      5.638000
C         -16.202000     19.260000      6.054000
N         -18.654000     18.764000      4.859000
N         -15.064000     19.596000      6.603000
C         -16.836000     20.280000      5.379000
C         -18.050000     19.977000      4.777000
S         -14.785000     21.219000      6.263000
N         -16.083000     21.473000      5.312000
C         -18.646000     20.973000      3.795000
S         -18.486000     22.684000      3.978000
C         -19.393000     20.678000      2.662000
C         -19.358000     23.008000      2.433000
S         -19.854000     19.232000      2.036000
C         -19.741000     21.804000      1.896000
C         -19.650000     24.265000      1.836000
C         -20.605000     20.021000      0.588000
C         -20.495000     21.385000      0.725000
N         -20.259000     24.406000      0.701000
S         -19.018000     25.740000      2.541000
C         -20.350000     25.684000      0.355000
C         -19.784000     26.592000      1.249000
C         -14.470000     13.574000      9.322000
H         -13.048000     15.250000      7.583000
H         -14.019000     16.838000      6.137000
H         -17.879000     16.359000      8.056000
H         -18.639000     16.950000      5.853000
H         -21.043000     19.446000     -0.217000
H         -20.856000     22.109000      0.004000
H         -20.620000     25.937000     -0.661000
H         -19.740000     27.663000      1.103000
H         -13.419000     13.373000      9.080000
C         -15.270000     12.222000      9.307000
H         -14.421000     13.956000     10.349000
H         -14.512000     11.447000      9.471000
H         -15.782000     12.053000      8.352000
C         -16.418000     12.207000     10.430000
H         -16.923000     13.170000     10.572000
C         -15.820000     11.829000     11.769000
H         -17.266000     11.536000     10.244000
H         -15.045000     12.588000     11.935000
H         -15.215000     10.914000     11.799000
C         -16.781000     11.637000     12.982000
H         -17.245000     12.623000     13.115000
C         -15.915000     11.164000     14.225000
H         -17.427000     10.796000     12.702000
H         -16.544000     10.723000     15.008000
H         -15.373000     11.913000     14.815000
H         -15.274000     10.315000     13.957000
C         -16.949000     14.677000      3.511000
C         -16.949000     13.945000      2.338000
N         -16.133000     15.742000      3.637000
C         -16.104000     14.237000      1.252000
C         -15.303000     16.048000      2.667000
C         -15.221000     15.319000      1.453000
C         -14.208000     15.718000      0.450000
C         -12.944000     16.149000      0.946000
C         -14.323000     15.755000     -0.993000
N         -11.931000     16.447000      0.145000
N         -15.432000     15.397000     -1.660000
C         -13.222000     16.047000     -1.770000
C         -11.982000     16.394000     -1.207000
S         -15.069000     15.651000     -3.212000
N         -13.480000     16.016000     -3.145000
C         -10.842000     16.794000     -1.960000
S         -10.691000     16.972000     -3.681000
C          -9.644000     17.040000     -1.388000
C          -9.013000     17.537000     -3.565000
S          -9.096000     16.658000      0.252000
C          -8.603000     17.387000     -2.270000
C          -8.225000     17.978000     -4.724000
C          -7.462000     17.118000     -0.276000
C          -7.325000     17.471000     -1.573000
N          -6.893000     18.045000     -4.550000
S          -8.925000     18.638000     -6.247000
C          -6.410000     18.752000     -5.623000
C          -7.340000     19.010000     -6.620000
C         -17.789000     14.355000      4.648000
H         -17.552000     13.042000      2.363000
H         -16.049000     13.608000      0.368000
H         -14.782000     17.004000      2.706000
H         -12.707000     16.047000      2.004000
H          -6.607000     17.051000      0.384000
H          -6.420000     17.890000     -1.999000
H          -5.356000     18.993000     -5.581000
H          -7.206000     19.578000     -7.531000
H         -17.449000     14.958000      5.499000
C         -17.796000     12.847000      5.010000
H         -18.766000     14.832000      4.503000
H         -16.967000     12.515000      5.647000
H         -17.791000     12.169000      4.148000
C         -19.066000     12.383000      5.700000
H         -19.859000     12.638000      4.987000
C         -19.346000     13.168000      7.029000
H         -19.010000     11.321000      5.971000
H         -19.360000     14.241000      6.800000
H         -18.434000     13.139000      7.639000
C         -20.542000     12.741000      7.949000
H         -21.463000     12.659000      7.357000
C         -20.676000     13.742000      9.151000
H         -20.363000     11.725000      8.321000
H         -20.022000     13.518000     10.002000
H         -21.745000     13.761000      9.396000
H         -20.363000     14.751000      8.856000
$end

--------------------------------------------------------------

             Standard Nuclear Orientation (Angstroms)
    I     Atom           X                Y                Z
 ----------------------------------------------------------------
    1      C      -5.1748992159     3.4025014745    -1.7315784048
    2      C      -3.9156659675     3.1467494608    -2.2707439949
    3      N      -5.9350453775     2.4780113141    -1.1196014801
    4      C      -3.3989950023     1.8627501201    -2.0735491502
    5      C      -5.4465318647     1.1429757035    -1.0439280616
    6      C      -4.1351832803     0.8516356665    -1.4345120769
    7      C      -3.6188998510    -0.6064083773    -1.1409103283
    8      C      -3.8482890133    -1.2960914848     0.0257635008
    9      C      -2.9498157100    -1.3769885537    -2.1517622482
   10      N      -3.3582401947    -2.5480056736     0.3278049207
   11      N      -2.7352013335    -0.9203171656    -3.3578853400
   12      C      -2.5315034834    -2.6735414357    -1.9469537879
   13      C      -2.7362584180    -3.2084658900    -0.6820663443
   14      S      -1.9932564563    -2.1389233709    -4.2478778768
   15      N      -1.8468058748    -3.2319011190    -3.0488479066
   16      C      -2.0489333985    -4.5162344595    -0.3230653887
   17      S      -1.7849359335    -5.7843166772    -1.4671295598
   18      C      -1.5661770927    -4.8863160255     0.9254172838
   19      C      -0.9087100364    -6.7963564212    -0.2586641140
   20      S      -1.5727203123    -4.0765874577     2.3535663772
   21      C      -0.9006897535    -6.1243360824     0.9384149725
   22      C      -0.3278080729    -8.0807726520    -0.4445400265
   23      C      -0.6226974698    -5.3819044922     3.1762631854
   24      C      -0.4142032298    -6.4041323496     2.2801910012
   25      N       0.3139058825    -8.7278403870     0.4765970674
   26      S      -0.2902788131    -8.8050327852    -2.0401943795
   27      C       0.7981176481    -9.8744150406     0.0159599764
   28      C       0.5351389020   -10.1434699691    -1.3266150214
   29      C      -5.8282269405     4.7589920355    -1.8783852241
   30      H      -3.3150752972     3.8999123881    -2.7735008465
   31      H      -2.3290425525     1.8234799071    -2.2522824870
   32      H      -6.0517737108     0.3781019236    -0.5600185571
   33      H      -4.5212979027    -0.8993125332     0.7838363854
   34      H      -0.3010893864    -5.2964434182     4.2057089808
   35      H       0.1296271431    -7.3155733361     2.4989645225
   36      H       1.5428434083   -10.4026452771     0.5952020323
   37      H       0.8857803904   -11.0127153040    -1.8667595338
   38      H      -5.1102147067     5.4689604435    -2.3073016400
   39      C      -6.5008161205     5.4062247695    -0.6147228551
   40      H      -6.5765657259     4.6501614925    -2.6728655417
   41      H      -6.3841526882     6.4868405420    -0.7587513100
   42      H      -6.0161803157     5.0954376165     0.3186953160
   43      C      -8.0394272201     4.9663640334    -0.4788684583
   44      H      -8.2383995796     3.9264524683    -0.7644414559
   45      C      -8.9011796175     5.8341297693    -1.3720506531
   46      H      -8.4647785798     5.0051653444     0.5318301511
   47      H      -8.4810109106     5.6797026456    -2.3739850427
   48      H      -8.7819755096     6.9201179337    -1.2692397222
   49      C     -10.4491782252     5.6577225158    -1.3062115202
   50      H     -10.6145503133     4.6205531682    -1.6257624813
   51      C     -11.1079701214     6.7362259148    -2.2661894657
   52      H     -10.7226768261     5.9315526278    -0.2799500598
   53      H     -12.1730183730     6.8748123948    -2.0433060672
   54      H     -11.1633331009     6.5313446118    -3.3422115808
   55      H     -10.7108699373     7.7383648424    -2.0623880583
   56      C      -2.1305631831     1.4942018184     2.2201753250
   57      C      -1.3032653842     1.8897693291     3.2549978685
   58      N      -1.5965609106     1.1076083165     1.0448693915
   59      C       0.0976926794     1.9416362184     3.1396231317
   60      C      -0.2966373705     1.1593520278     0.8689223022
   61      C       0.6085520166     1.5914081831     1.8718782595
   62      C       2.0506615713     1.6644430510     1.5457418766
   63      C       2.3941557964     2.1055198623     0.2354228453
   64      C       3.1884291838     1.3259420528     2.3750457618
   65      N       3.6499635180     2.2946980942    -0.1436979311
   66      N       3.0823757741     0.8833775312     3.6383047687
   67      C       4.4698964256     1.5732664554     1.9302240581
   68      C       4.7291292274     2.0804258091     0.6454806034
   69      S       4.6053627383     0.6176644440     4.1018738167
   70      N       5.4626010809     1.2214790477     2.8515997075
   71      C       6.0322965430     2.2659773727     0.1033232786
   72      S       7.5678139404     1.9147794339     0.8348780135
   73      C       6.2423407681     2.8331346735    -1.1037881578
   74      C       8.4703672869     2.4143540796    -0.6087935662
   75      S       5.1047651044     3.7271124707    -2.1248431550
   76      C       7.5893333996     2.9845022336    -1.4841993989
   77      C       9.9301635789     2.3010724589    -0.7307282218
   78      C       6.4955179872     4.1783240505    -3.1360575384
   79      C       7.7072792029     3.7490197407    -2.7202215544
   80      N      10.5053166667     3.0210944227    -1.7103997471
   81      S      10.9442418230     1.1162758386     0.1709542517
   82      C      11.7838142364     2.5359181245    -1.8308776450
   83      C      12.1640454389     1.6377239593    -0.8438900694
   84      C      -3.5767768231     1.4781065163     2.3214672232
   85      H      -1.8178016868     2.2895696407     4.1239369366
   86      H       0.7353785757     2.3332753382     3.9270858276
   87      H       0.1318260236     0.6815089556    -0.0114089526
   88      H       1.6264110828     2.4998592860    -0.4286565729
   89      H       6.3906943843     4.8225492535    -3.9992492322
   90      H       8.6195521056     3.8430516225    -3.2989945291
   91      H      12.3542315961     2.9369207658    -2.6582723014
   92      H      13.0969810308     1.0975743886    -0.7523989630
   93      H      -3.9828998408     1.3228969458     1.3143008597
   94      C      -4.1705391595     2.7592316949     2.9628107852
   95      H      -3.8827204723     0.5200607976     2.7592227307
   96      H      -4.3213089332     3.6000799146     2.2747143190
   97      H      -3.5869774408     3.1663945604     3.7973328769
   98      C      -5.5029334391     2.5422527656     3.6570309433
   99      H      -5.2851929332     1.7711670166     4.4055353453
  100      C      -6.5972050490     1.9734727032     2.6875337105
  101      H      -5.9020617085     3.4812719481     4.0612098635
  102      H      -6.2083769016     1.0561226650     2.2279169362
  103      H      -6.6231971658     2.6102782828     1.7939521174
  104      C      -8.0731640168     1.8067697706     3.1904256050
  105      H      -8.0882343389     1.2580563194     4.1412754532
  106      C      -8.9434908030     1.1228644239     2.0770677282
  107      H      -8.4816288323     2.7943386185     3.4364850802
  108      H      -9.3428650133     1.8144033716     1.3258240102
  109      H      -9.7086556559     0.5510353719     2.6162163936
  110      H      -8.3392228217     0.4291678142     1.4798071315
 ----------------------------------------------------------------

    9   -5663.5048808870      6.54E-06 Convergence criterion met
 Total energy in the final basis set = -5663.5048808870

                    Orbital Energies (a.u.)
 --------------------------------------------------------------

 Alpha MOs
 -- Occupied --
-88.990 -88.988 -88.934 -88.921 -88.921 -88.920 -88.905 -88.899
-14.390 -14.390 -14.383 -14.373 -14.352 -14.350 -14.344 -14.336
-14.332 -14.326 -10.274 -10.263 -10.262 -10.257 -10.257 -10.253
-10.252 -10.248 -10.240 -10.237 -10.236 -10.235 -10.235 -10.231
-10.231 -10.231 -10.227 -10.227 -10.225 -10.225 -10.224 -10.224
-10.224 -10.223 -10.223 -10.223 -10.220 -10.219 -10.214 -10.213
-10.212 -10.208 -10.206 -10.204 -10.197 -10.195 -10.194 -10.191
-10.186 -10.185 -10.183 -10.182 -10.181 -10.178 -10.175 -10.171
-10.170 -10.169 -10.168 -10.163  -8.045  -8.043  -7.995  -7.983
 -7.981  -7.979  -7.964  -7.961  -6.010  -6.008  -6.005  -6.004
 -6.003  -6.001  -5.959  -5.956  -5.952  -5.946  -5.945  -5.944
 -5.943  -5.941  -5.940  -5.940  -5.937  -5.936  -5.929  -5.926
 -5.925  -5.922  -5.920  -5.917  -1.041  -1.028  -0.982  -0.969
 -0.959  -0.950  -0.946  -0.924  -0.913  -0.912  -0.902  -0.896
 -0.843  -0.840  -0.831  -0.823  -0.820  -0.812  -0.809  -0.809
 -0.807  -0.797  -0.795  -0.791  -0.781  -0.780  -0.765  -0.763
 -0.745  -0.743  -0.737  -0.734  -0.722  -0.721  -0.712  -0.702
 -0.689  -0.687  -0.672  -0.671  -0.656  -0.649  -0.646  -0.644
 -0.637  -0.631  -0.628  -0.623  -0.610  -0.607  -0.596  -0.595
 -0.594  -0.590  -0.586  -0.580  -0.576  -0.576  -0.561  -0.559
 -0.554  -0.543  -0.539  -0.535  -0.525  -0.518  -0.514  -0.508
 -0.507  -0.503  -0.499  -0.498  -0.493  -0.481  -0.476  -0.472
 -0.470  -0.467  -0.466  -0.466  -0.459  -0.458  -0.449  -0.447
 -0.440  -0.440  -0.437  -0.436  -0.434  -0.432  -0.429  -0.428
 -0.426  -0.425  -0.423  -0.418  -0.416  -0.416  -0.412  -0.411
 -0.410  -0.407  -0.403  -0.402  -0.400  -0.399  -0.394  -0.393
 -0.392  -0.390  -0.388  -0.387  -0.385  -0.383  -0.380  -0.378
 -0.378  -0.370  -0.370  -0.369  -0.365  -0.361  -0.357  -0.355
 -0.352  -0.351  -0.347  -0.347  -0.344  -0.339  -0.337  -0.337
 -0.336  -0.336  -0.335  -0.333  -0.332  -0.331  -0.317  -0.317
 -0.315  -0.308  -0.306  -0.305  -0.304  -0.300  -0.298  -0.298
 -0.295  -0.294  -0.293  -0.288  -0.287  -0.286  -0.281  -0.278
 -0.274  -0.268  -0.266  -0.262  -0.251  -0.249  -0.249  -0.246
 -0.243  -0.240  -0.236  -0.229  -0.193  -0.190

          Ground-State Mulliken Net Atomic Charges

     Atom                 Charge (a.u.)
  ----------------------------------------
      1 C                     0.291720
      2 C                    -0.124519
      3 N                    -0.496554
      4 C                    -0.046788
      5 C                     0.047212
      6 C                     0.057298
      7 C                     0.094156
      8 C                     0.041226
      9 C                     0.249680
     10 N                    -0.520949
     11 N                    -0.576068
     12 C                     0.222211
     13 C                     0.262899
     14 S                     0.602313
     15 N                    -0.546956
     16 C                    -0.226658
     17 S                     0.326695
     18 C                    -0.092938
     19 C                    -0.243995
     20 S                     0.258872
     21 C                     0.152228
     22 C                     0.075920
     23 C                    -0.316310
     24 C                    -0.044811
     25 N                    -0.431122
     26 S                     0.259447
     27 C                     0.119745
     28 C                    -0.313665
     29 C                    -0.228797
     30 H                     0.097334
     31 H                     0.106149
     32 H                     0.111841
     33 H                     0.103812
     34 H                     0.133046
     35 H                     0.126128
     36 H                     0.109528
     37 H                     0.130467
     38 H                     0.086658
     39 C                    -0.180414
     40 H                     0.126500
     41 H                     0.097849
     42 H                     0.102111
     43 C                    -0.180540
     44 H                     0.120562
     45 C                    -0.171336
     46 H                     0.077910
     47 H                     0.082845
     48 H                     0.077637
     49 C                    -0.176499
     50 H                     0.098528
     51 C                    -0.329026
     52 H                     0.100220
     53 H                     0.094370
     54 H                     0.106515
     55 H                     0.102329
     56 C                     0.291125
     57 C                    -0.110604
     58 N                    -0.495541
     59 C                    -0.054458
     60 C                     0.079728
     61 C                     0.022837
     62 C                     0.000883
     63 C                     0.065028
     64 C                     0.235751
     65 N                    -0.544357
     66 N                    -0.542362
     67 C                     0.161961
     68 C                     0.328129
     69 S                     0.610161
     70 N                    -0.550814
     71 C                    -0.192793
     72 S                     0.309479
     73 C                    -0.124125
     74 C                    -0.258402
     75 S                     0.282111
     76 C                     0.165574
     77 C                     0.047718
     78 C                    -0.310427
     79 C                    -0.038071
     80 N                    -0.417153
     81 S                     0.298891
     82 C                     0.115849
     83 C                    -0.305300
     84 C                    -0.256800
     85 H                     0.083612
     86 H                     0.114218
     87 H                     0.104855
     88 H                     0.118409
     89 H                     0.119433
     90 H                     0.122122
     91 H                     0.112352
     92 H                     0.132718
     93 H                     0.139587
     94 C                    -0.193348
     95 H                     0.124170
     96 H                     0.109724
     97 H                     0.095763
     98 C                    -0.183528
     99 H                     0.089724
    100 C                    -0.192674
    101 H                     0.086974
    102 H                     0.081598
    103 H                     0.114276
    104 C                    -0.181389
    105 H                     0.091658
    106 C                    -0.322497
    107 H                     0.094507
    108 H                     0.114844
    109 H                     0.101318
    110 H                     0.101544
  ----------------------------------------
  Sum of atomic charges =     0.000000

                    Cartesian Multipole Moments
 -----------------------------------------------------------------
    Charge (ESU x 10^10)
                 0.0000
    Dipole Moment (Debye)
         X       3.8762      Y      -0.4255      Z      -0.2656
       Tot       3.9086
    Quadrupole Moments (Debye-Ang)
        XX    -421.9402     XY     -20.0517     YY    -426.0249
        XZ      -1.2532     YZ       3.7794     ZZ    -421.5605

 Total job time:  88.31s(wall), 1061.80s(cpu)
        *  Thank you very much for using Q-Chem.  Have a nice day.  *
