 Q-Chem 4.4, Q-Chem, Inc., Pleasanton, CA (2016)
 Q-Chem 4.4.2 for Intel X86 Linux

User input:
--------------------------------------------------------------
$comment
SP
$end

$rem
MEM_STATIC 5000
MEM_TOTAL 20000
JOBTYPE SP
EXCHANGE B3LYP
BASIS 6-31g(d,p)
$end

$molecule
0 1
C         -18.443000     21.792000     -5.629000
C         -19.268000     21.973000     -4.432000
N         -18.163000     20.596000     -6.155000
C         -19.687000     20.812000     -3.802000
C         -18.681000     19.503000     -5.563000
C         -19.416000     19.589000     -4.395000
C         -20.113000     18.355000     -3.855000
C         -21.266000     17.900000     -4.551000
C         -19.608000     17.480000     -2.851000
N         -21.904000     16.717000     -4.307000
N         -18.526000     17.807000     -2.059000
C         -20.318000     16.347000     -2.529000
C         -21.479000     15.984000     -3.245000
S         -18.355000     16.496000     -1.105000
N         -19.706000     15.644000     -1.465000
C         -22.366000     14.988000     -2.729000
S         -22.607000     14.421000     -1.016000
C         -23.312000     14.362000     -3.492000
C         -23.864000     13.358000     -1.476000
S         -23.557000     14.571000     -5.204000
C         -24.136000     13.482000     -2.847000
C         -24.425000     12.315000     -0.602000
C         -24.762000     13.281000     -5.101000
C         -24.980000     12.841000     -3.821000
N         -25.061000     11.352000     -1.183000
S         -24.097000     12.160000      1.131000
C         -25.324000     10.378000     -0.282000
C         -24.676000     10.557000      0.927000
C         -17.821000     23.029000     -6.185000
H         -19.464000     22.912000     -3.924000
H         -20.222000     20.923000     -2.863000
H         -18.481000     18.501000     -5.941000
H         -21.575000     18.343000     -5.496000
H         -25.111000     12.875000     -6.041000
H         -25.624000     12.005000     -3.572000
H         -25.791000      9.483000     -0.673000
H         -24.639000      9.997000      1.852000
H         -16.938000     23.260000     -5.578000
C         -18.624000     24.309000     -6.346000
H         -17.282000     22.761000     -7.103000
H         -17.965000     25.164000     -6.544000
H         -19.137000     24.585000     -5.416000
C         -19.696000     24.279000     -7.469000
H         -20.521000     23.650000     -7.115000
C         -19.126000     23.681000     -8.777000
H         -20.050000     25.293000     -7.696000
H         -19.928000     23.576000     -9.517000
H         -18.821000     22.635000     -8.651000
C         -18.029000     24.485000     -9.422000
H         -17.260000     24.694000     -8.668000
C         -18.452000     25.818000    -10.027000
H         -17.580000     23.870000    -10.211000
H         -17.581000     26.269000    -10.518000
H         -18.812000     26.536000     -9.280000
H         -19.185000     25.716000    -10.837000
C         -16.949000     14.677000      3.511000
C         -16.949000     13.945000      2.338000
N         -16.133000     15.742000      3.637000
C         -16.104000     14.237000      1.252000
C         -15.303000     16.048000      2.667000
C         -15.221000     15.319000      1.453000
C         -14.208000     15.718000      0.450000
C         -12.944000     16.149000      0.946000
C         -14.323000     15.755000     -0.993000
N         -11.931000     16.447000      0.145000
N         -15.432000     15.397000     -1.660000
C         -13.222000     16.047000     -1.770000
C         -11.982000     16.394000     -1.207000
S         -15.069000     15.651000     -3.212000
N         -13.480000     16.016000     -3.145000
C         -10.842000     16.794000     -1.960000
S         -10.691000     16.972000     -3.681000
C          -9.644000     17.040000     -1.388000
C          -9.013000     17.537000     -3.565000
S          -9.096000     16.658000      0.252000
C          -8.603000     17.387000     -2.270000
C          -8.225000     17.978000     -4.724000
C          -7.462000     17.118000     -0.276000
C          -7.325000     17.471000     -1.573000
N          -6.893000     18.045000     -4.550000
S          -8.925000     18.638000     -6.247000
C          -6.410000     18.752000     -5.623000
C          -7.340000     19.010000     -6.620000
C         -17.789000     14.355000      4.648000
H         -17.552000     13.042000      2.363000
H         -16.049000     13.608000      0.368000
H         -14.782000     17.004000      2.706000
H         -12.707000     16.047000      2.004000
H          -6.607000     17.051000      0.384000
H          -6.420000     17.890000     -1.999000
H          -5.356000     18.993000     -5.581000
H          -7.206000     19.578000     -7.531000
H         -17.449000     14.958000      5.499000
C         -17.796000     12.847000      5.010000
H         -18.766000     14.832000      4.503000
H         -16.967000     12.515000      5.647000
H         -17.791000     12.169000      4.148000
C         -19.066000     12.383000      5.700000
H         -19.859000     12.638000      4.987000
C         -19.346000     13.168000      7.029000
H         -19.010000     11.321000      5.971000
H         -19.360000     14.241000      6.800000
H         -18.434000     13.139000      7.639000
C         -20.542000     12.741000      7.949000
H         -21.463000     12.659000      7.357000
C         -20.676000     13.742000      9.151000
H         -20.363000     11.725000      8.321000
H         -20.022000     13.518000     10.002000
H         -21.745000     13.761000      9.396000
H         -20.363000     14.751000      8.856000
$end

--------------------------------------------------------------

             Standard Nuclear Orientation (Angstroms)
    I     Atom           X                Y                Z
 ----------------------------------------------------------------
    1      C       2.1571911730     5.7896829002     2.0860179954
    2      C       1.1203616387     5.4123607809     3.0497646089
    3      N       2.1020950067     5.4791461890     0.7875483718
    4      C       0.0924333732     4.6236253328     2.5581937861
    5      C       1.0290829475     4.7993147456     0.3404339241
    6      C       0.0415303376     4.3540348719     1.1996839906
    7      C      -1.2226687935     3.7365108279     0.6334423355
    8      C      -2.1540672314     4.6118306203     0.0112187334
    9      C      -1.4733770051     2.3441200430     0.4689452386
   10      N      -3.2481463770     4.2046763456    -0.6982072456
   11      N      -0.6854496881     1.3748771937     1.0560192051
   12      C      -2.6355583122     1.9392339896    -0.1449561323
   13      C      -3.5308044383     2.8758361796    -0.7050067651
   14      S      -1.3768767776    -0.0157910161     0.5599864338
   15      N      -2.7471283982     0.5291422374    -0.1514650722
   16      C      -4.8556084497     2.4814124884    -1.0715654688
   17      S      -5.8613847267     1.0875814975    -0.4719086923
   18      C      -5.6548438592     3.2226741769    -1.8966199333
   19      C      -7.2007876568     1.5606431604    -1.4226086732
   20      S      -5.2061906690     4.6932941220    -2.7155444061
   21      C      -6.9234243122     2.7562121648    -2.1028184429
   22      C      -8.3857111395     0.7194876476    -1.6568302419
   23      C      -6.7799620424     4.6236616198    -3.5187436212
   24      C      -7.5703698874     3.5935847082    -3.0786061485
   25      N      -9.1138779447     1.0161648413    -2.6821017896
   26      S      -8.7491528838    -0.7830265212    -0.7935462382
   27      C     -10.0258131928     0.0379552179    -2.8848973420
   28      C      -9.8076646224    -1.0871463417    -2.1101821158
   29      C       3.3638095418     6.4578697364     2.6550412499
   30      H       1.1520406947     5.5747899517     4.1225246947
   31      H      -0.6371910380     4.2570512060     3.2748098814
   32      H       0.9322661481     4.5106785509    -0.7056079749
   33      H      -1.9258718776     5.6625835153    -0.1578973040
   34      H      -6.9223472297     5.2971268082    -4.3532543152
   35      H      -8.5344697447     3.3466856731    -3.5089378015
   36      H     -10.6465371630     0.1426505550    -3.7656559010
   37      H     -10.3078880099    -2.0412452944    -2.0098538990
   38      H       4.0059164531     5.6790040742     3.0823186709
   39      C       3.2357777900     7.5714043797     3.6810911847
   40      H       4.0279002950     6.7342948843     1.8257996632
   41      H       4.2030437016     7.7823322190     4.1548169522
   42      H       2.5930416017     7.2768925382     4.5203753842
   43      C       2.6848110527     8.9152129207     3.1317031075
   44      H       1.6121960932     8.7782707778     2.9519087858
   45      C       3.3764938748     9.3080550797     1.8048203275
   46      H       2.8581292590     9.7286475259     3.8481707916
   47      H       2.8980665992    10.2019412500     1.3878025144
   48      H       3.1826225170     8.5781347745     1.0094290749
   49      C       4.8486008270     9.6024827280     1.9146542076
   50      H       5.3350940993     8.7631266594     2.4268686998
   51      C       5.2157941960    10.8746117706     2.6687760339
   52      H       5.2555384401     9.6688431642     0.8986103741
   53      H       6.3036586194    11.0060714682     2.6198644382
   54      H       4.9397050983    10.8421053043     3.7298373610
   55      H       4.8211060139    11.7864632590     2.2034362634
   56      C      -2.4439657847    -4.9366373297     1.6733801689
   57      C      -2.3380126321    -4.4189608581     0.3956720644
   58      N      -1.3686102909    -4.9437464114     2.4854867031
   59      C      -1.1349471831    -3.9134391764    -0.1294625418
   60      C      -0.2118693862    -4.5089771078     2.0423590331
   61      C      -0.0208123711    -4.0010393554     0.7318410222
   62      C       1.3402026362    -3.5907303272     0.3187264483
   63      C       2.4243406822    -4.3866598075     0.7884220515
   64      C       1.7417615608    -2.4615618090    -0.4940292883
   65      N       3.6776007702    -4.1707837251     0.4151786070
   66      N       0.8764798819    -1.5845009466    -1.0278699573
   67      C       3.0598475246    -2.3100991156    -0.8693990323
   68      C       4.0678109167    -3.1819095363    -0.4233784156
   69      S       1.8090594464    -0.5145791039    -1.7963435133
   70      N       3.2894265918    -1.1904951585    -1.6768211222
   71      C       5.4537553506    -3.0174462909    -0.7039472435
   72      S       6.2318990602    -1.7530504464    -1.6051250926
   73      C       6.3829550044    -3.9216209981    -0.3271713125
   74      C       7.8507472703    -2.4166270395    -1.3095551726
   75      S       6.1494633334    -5.5716761968     0.2716838294
   76      C       7.7067219403    -3.6378679252    -0.7133568806
   77      C       9.0883530210    -1.7601129867    -1.7523048809
   78      C       7.9058857394    -5.7913280155     0.1071438327
   79      C       8.5984382455    -4.7485837403    -0.4014251426
   80      N      10.1954539368    -2.5236179126    -1.7717159684
   81      S       9.2620854755     0.0095219850    -2.0409882737
   82      C      11.2481409581    -1.6537724828    -1.9120226455
   83      C      10.8897775047    -0.3396395466    -2.1767928500
   84      C      -3.6717343348    -5.4958405220     2.2043502031
   85      H      -3.2181205459    -4.5537966120    -0.2263185942
   86      H      -1.0385506173    -3.5867311370    -1.1610106789
   87      H       0.5974750389    -4.3552416110     2.7552580432
   88      H       2.2309880217    -5.3257833777     1.3047539880
   89      H       8.3887436395    -6.7330714140     0.3331562656
   90      H       9.6809051086    -4.6964938082    -0.4416013697
   91      H      12.2304680381    -2.1008442293    -1.8350722634
   92      H      11.5346959392     0.5222554271    -2.2850437950
   93      H      -3.4294525830    -6.0084165093     3.1434856619
   94      C      -4.3939495483    -6.4560958135     1.2238034370
   95      H      -4.2705176620    -4.6791571384     2.6257404950
   96      H      -4.0300597524    -7.4908845851     1.2293183671
   97      H      -4.3670319830    -6.1431302992     0.1730508346
   98      C      -5.8951189633    -6.5390622016     1.4333337826
   99      H      -6.2330125337    -5.5024840993     1.3168143726
  100      C      -6.2721203139    -7.0058496814     2.8827631291
  101      H      -6.3570265227    -7.2575842082     0.7442847767
  102      H      -5.7840813198    -6.3339612372     3.5999450159
  103      H      -5.7087156158    -7.9219993606     3.1016921393
  104      C      -7.7727708577    -7.2767980046     3.2485225465
  105      H      -8.3936847553    -6.4207612709     2.9534021604
  106      C      -7.8970391378    -7.6237864425     4.7746016462
  107      H      -8.1453167901    -8.1094221417     2.6397306489
  108      H      -7.7122204048    -8.6771759986     5.0160669212
  109      H      -8.8862268338    -7.2583463298     5.0764430385
  110      H      -7.1323608956    -7.0972004259     5.3585959552
 ----------------------------------------------------------------

   10   -5663.5164679439      5.86E-06 Convergence criterion met
 Total energy in the final basis set = -5663.5164679439

                    Orbital Energies (a.u.)
 --------------------------------------------------------------

 Alpha MOs
 -- Occupied --
-88.993 -88.986 -88.934 -88.927 -88.925 -88.920 -88.906 -88.899
-14.394 -14.387 -14.385 -14.378 -14.351 -14.348 -14.344 -14.342
-14.332 -14.327 -10.275 -10.269 -10.260 -10.259 -10.258 -10.255
-10.251 -10.250 -10.241 -10.240 -10.239 -10.237 -10.236 -10.233
-10.232 -10.231 -10.231 -10.230 -10.228 -10.226 -10.226 -10.225
-10.225 -10.224 -10.220 -10.217 -10.216 -10.216 -10.215 -10.215
-10.207 -10.207 -10.205 -10.203 -10.200 -10.198 -10.192 -10.191
-10.188 -10.187 -10.185 -10.184 -10.181 -10.181 -10.177 -10.176
-10.176 -10.172 -10.170 -10.167  -8.048  -8.041  -7.996  -7.989
 -7.984  -7.980  -7.965  -7.960  -6.013  -6.008  -6.006  -6.005
 -6.000  -5.999  -5.959  -5.956  -5.953  -5.952  -5.949  -5.948
 -5.945  -5.945  -5.944  -5.941  -5.941  -5.937  -5.929  -5.926
 -5.924  -5.921  -5.921  -5.916  -1.044  -1.023  -0.984  -0.969
 -0.961  -0.951  -0.949  -0.941  -0.914  -0.911  -0.905  -0.886
 -0.843  -0.841  -0.833  -0.830  -0.824  -0.816  -0.816  -0.811
 -0.811  -0.805  -0.799  -0.796  -0.786  -0.783  -0.766  -0.763
 -0.749  -0.746  -0.735  -0.734  -0.725  -0.723  -0.715  -0.707
 -0.690  -0.690  -0.673  -0.666  -0.661  -0.658  -0.649  -0.639
 -0.639  -0.632  -0.630  -0.627  -0.616  -0.612  -0.600  -0.599
 -0.591  -0.591  -0.590  -0.583  -0.577  -0.577  -0.565  -0.555
 -0.549  -0.543  -0.541  -0.535  -0.527  -0.520  -0.515  -0.511
 -0.508  -0.505  -0.499  -0.497  -0.495  -0.495  -0.478  -0.475
 -0.473  -0.470  -0.469  -0.465  -0.463  -0.461  -0.460  -0.450
 -0.444  -0.442  -0.438  -0.438  -0.435  -0.434  -0.431  -0.429
 -0.427  -0.423  -0.421  -0.420  -0.420  -0.419  -0.413  -0.413
 -0.412  -0.408  -0.407  -0.406  -0.401  -0.398  -0.397  -0.395
 -0.393  -0.391  -0.391  -0.389  -0.387  -0.386  -0.385  -0.382
 -0.381  -0.377  -0.375  -0.370  -0.369  -0.364  -0.364  -0.357
 -0.355  -0.353  -0.350  -0.348  -0.345  -0.344  -0.342  -0.342
 -0.341  -0.338  -0.336  -0.335  -0.332  -0.330  -0.321  -0.320
 -0.316  -0.312  -0.310  -0.309  -0.304  -0.302  -0.301  -0.300
 -0.300  -0.299  -0.295  -0.292  -0.290  -0.289  -0.288  -0.286
 -0.276  -0.270  -0.263  -0.255  -0.253  -0.249  -0.247  -0.247
 -0.245  -0.244  -0.235  -0.230  -0.194  -0.191

          Ground-State Mulliken Net Atomic Charges

     Atom                 Charge (a.u.)
  ----------------------------------------
      1 C                     0.287450
      2 C                    -0.108112
      3 N                    -0.492125
      4 C                    -0.060663
      5 C                     0.089052
      6 C                     0.036198
      7 C                    -0.058100
      8 C                     0.066994
      9 C                     0.217388
     10 N                    -0.504733
     11 N                    -0.543686
     12 C                     0.183360
     13 C                     0.269023
     14 S                     0.646041
     15 N                    -0.552134
     16 C                    -0.186999
     17 S                     0.315173
     18 C                    -0.127226
     19 C                    -0.254769
     20 S                     0.280323
     21 C                     0.183463
     22 C                     0.083462
     23 C                    -0.308681
     24 C                    -0.062427
     25 N                    -0.410244
     26 S                     0.261509
     27 C                     0.114927
     28 C                    -0.308218
     29 C                    -0.245224
     30 H                     0.097624
     31 H                     0.102405
     32 H                     0.104997
     33 H                     0.118547
     34 H                     0.127087
     35 H                     0.117742
     36 H                     0.112833
     37 H                     0.134190
     38 H                     0.116375
     39 C                    -0.186263
     40 H                     0.120730
     41 H                     0.096793
     42 H                     0.087755
     43 C                    -0.174124
     44 H                     0.094145
     45 C                    -0.181827
     46 H                     0.092823
     47 H                     0.079748
     48 H                     0.107038
     49 C                    -0.169211
     50 H                     0.091169
     51 C                    -0.316832
     52 H                     0.091673
     53 H                     0.098722
     54 H                     0.101376
     55 H                     0.101469
     56 C                     0.277366
     57 C                    -0.110355
     58 N                    -0.486096
     59 C                    -0.063465
     60 C                     0.079425
     61 C                     0.019854
     62 C                     0.001160
     63 C                     0.066206
     64 C                     0.243867
     65 N                    -0.543862
     66 N                    -0.559144
     67 C                     0.159360
     68 C                     0.330095
     69 S                     0.620923
     70 N                    -0.547226
     71 C                    -0.191901
     72 S                     0.312101
     73 C                    -0.124116
     74 C                    -0.259094
     75 S                     0.285903
     76 C                     0.164493
     77 C                     0.046880
     78 C                    -0.310968
     79 C                    -0.037867
     80 N                    -0.417247
     81 S                     0.302638
     82 C                     0.116223
     83 C                    -0.305605
     84 C                    -0.240139
     85 H                     0.086052
     86 H                     0.117368
     87 H                     0.108694
     88 H                     0.123463
     89 H                     0.120358
     90 H                     0.122645
     91 H                     0.112819
     92 H                     0.133693
     93 H                     0.131288
     94 C                    -0.191143
     95 H                     0.123034
     96 H                     0.106199
     97 H                     0.098779
     98 C                    -0.182551
     99 H                     0.091742
    100 C                    -0.179996
    101 H                     0.088202
    102 H                     0.091894
    103 H                     0.085905
    104 C                    -0.180590
    105 H                     0.093181
    106 C                    -0.322569
    107 H                     0.095407
    108 H                     0.108970
    109 H                     0.104020
    110 H                     0.105730
  ----------------------------------------
  Sum of atomic charges =     0.000000

                    Cartesian Multipole Moments
 -----------------------------------------------------------------
    Charge (ESU x 10^10)
                 0.0000
    Dipole Moment (Debye)
         X      -0.3223      Y      -0.7966      Z      -0.0665
       Tot       0.8619
    Quadrupole Moments (Debye-Ang)
        XX    -389.9417     XY      30.0849     YY    -441.5499
        XZ       6.6611     YZ       8.5361     ZZ    -440.3890

 Total job time:  91.02s(wall), 1072.60s(cpu)
        *  Thank you very much for using Q-Chem.  Have a nice day.  *
