 Q-Chem 4.4, Q-Chem, Inc., Pleasanton, CA (2016)
 Q-Chem 4.4.2 for Intel X86 Linux

User input:
--------------------------------------------------------------
$comment
SP
$end

$rem
MEM_STATIC 5000
MEM_TOTAL 20000
JOBTYPE SP
EXCHANGE B3LYP
BASIS 6-31g(d,p)
$end

$molecule
0 1
C          -3.428000    -13.600000    -14.293000
C          -2.730000    -12.693000    -15.054000
N          -3.271000    -13.591000    -12.991000
C          -1.890000    -11.733000    -14.524000
C          -2.539000    -12.654000    -12.392000
C          -1.718000    -11.688000    -13.095000
C          -0.982000    -10.665000    -12.390000
C          -1.482000    -10.059000    -11.246000
C           0.292000    -10.232000    -12.728000
N          -0.964000     -9.151000    -10.444000
N           1.048000    -10.632000    -13.758000
C           1.003000     -9.431000    -11.748000
C           0.336000     -8.953000    -10.589000
S           2.491000     -9.921000    -13.501000
N           2.256000     -9.221000    -12.114000
C           0.860000     -8.168000     -9.436000
S          -0.035000     -7.059000     -8.443000
C           1.974000     -8.606000     -8.741000
C           1.185000     -7.051000     -7.146000
S           2.928000    -10.020000     -8.986000
C           2.153000     -7.997000     -7.500000
C           0.917000     -6.410000     -5.864000
C           3.844000     -9.615000     -7.424000
C           3.230000     -8.539000     -6.783000
N           1.961000     -6.017000     -5.166000
S          -0.600000     -6.283000     -5.115000
C           1.550000     -5.689000     -3.909000
C           0.199000     -5.719000     -3.724000
C          -4.332000    -14.700000    -14.875000
H          -2.764000    -12.761000    -16.138000
H          -1.326000    -11.064000    -15.167000
H          -2.457000    -12.675000    -11.306000
H          -2.503000    -10.352000    -11.007000
H           4.626000    -10.211000     -6.972000
H           3.471000     -8.258000     -5.764000
H           2.232000     -5.673000     -3.069000
H          -0.304000     -5.588000     -2.775000
H          -3.805000    -15.555000    -15.317000
C          -5.428000    -14.197000    -15.846000
H          -4.865000    -15.255000    -14.093000
H          -4.998000    -13.716000    -16.733000
H          -5.910000    -13.390000    -15.279000
C          -6.367000    -15.348000    -16.413000
H          -5.737000    -16.033000    -16.993000
C          -7.494000    -14.782000    -17.223000
H          -6.906000    -15.925000    -15.651000
H          -7.850000    -13.901000    -16.675000
H          -8.327000    -15.493000    -17.150000
C          -7.044000    -14.358000    -18.662000
H          -6.403000    -13.478000    -18.529000
C          -8.292000    -14.055000    -19.514000
H          -6.444000    -15.136000    -19.150000
H          -8.991000    -13.306000    -19.123000
H          -8.808000    -15.017000    -19.622000
H          -8.004000    -13.684000    -20.505000
C           6.244000    -14.591000    -17.982000
C           6.727000    -13.534000    -17.212000
N           5.097000    -15.270000    -17.651000
C           6.130000    -13.274000    -15.925000
C           4.477000    -14.993000    -16.493000
C           4.980000    -14.021000    -15.570000
C           4.429000    -13.975000    -14.218000
C           5.409000    -13.968000    -13.144000
C           3.041000    -13.959000    -13.903000
N           4.962000    -13.928000    -11.861000
N           2.100000    -14.171000    -14.798000
C           2.626000    -14.011000    -12.557000
C           3.623000    -14.061000    -11.544000
S           0.679000    -14.040000    -13.962000
N           1.270000    -14.067000    -12.397000
C           3.276000    -14.137000    -10.078000
S           1.634000    -14.416000     -9.497000
C           4.176000    -13.978000     -9.006000
C           2.231000    -14.334000     -7.822000
S           5.844000    -13.713000     -8.972000
C           3.539000    -13.938000     -7.749000
C           1.530000    -14.545000     -6.582000
C           5.742000    -13.307000     -7.207000
C           4.442000    -13.553000     -6.701000
N           0.233000    -14.638000     -6.825000
S           1.983000    -14.944000     -4.958000
C          -0.487000    -14.820000     -5.709000
C           0.309000    -15.065000     -4.607000
C           6.967000    -14.951000    -19.212000
H           7.657000    -13.030000    -17.458000
H           6.528000    -12.587000    -15.185000
H           3.744000    -15.716000    -16.138000
H           6.483000    -14.056000    -13.304000
H           6.655000    -13.050000     -6.687000
H           4.143000    -13.393000     -5.671000
H          -1.554000    -14.992000     -5.748000
H          -0.161000    -15.422000     -3.700000
H           7.514000    -14.045000    -19.503000
C           6.165000    -15.287000    -20.428000
H           7.770000    -15.663000    -18.986000
H           5.362000    -14.572000    -20.645000
H           5.605000    -16.231000    -20.423000
C           7.140000    -15.358000    -21.635000
H           7.812000    -14.490000    -21.637000
C           6.554000    -15.292000    -23.000000
H           7.817000    -16.207000    -21.476000
H           5.965000    -14.423000    -23.317000
H           5.787000    -16.072000    -22.917000
C           7.653000    -15.367000    -24.021000
H           8.363000    -14.537000    -23.923000
C           7.018000    -15.370000    -25.426000
H           8.264000    -16.247000    -23.785000
H           7.836000    -15.262000    -26.149000
H           6.409000    -14.494000    -25.679000
H           6.360000    -16.198000    -25.717000
$end

--------------------------------------------------------------

             Standard Nuclear Orientation (Angstroms)
    I     Atom           X                Y                Z
 ----------------------------------------------------------------
    1      C       1.8583502789     5.2468324397    -0.8622343930
    2      C       2.3185796167     4.7083795068     0.3155734842
    3      N       0.6803283147     4.8832132938    -1.3094249215
    4      C       1.5925588250     3.8242295660     1.0897005360
    5      C      -0.1154891811     4.0938241618    -0.5910007351
    6      C       0.2866023133     3.4265361699     0.6314783714
    7      C      -0.6378556689     2.6188392173     1.3919079027
    8      C      -1.9820352527     2.9471728024     1.4984457042
    9      C      -0.3116117005     1.4296002571     2.0275843682
   10      N      -2.9831807420     2.3354225196     2.0979966201
   11      N       0.8869766416     0.8367683134     2.0937075310
   12      C      -1.4101329719     0.5955693276     2.4805362694
   13      C      -2.7438124045     1.0822977432     2.4481538617
   14      S       0.5870396527    -0.6061314416     2.7878956178
   15      N      -0.9786169509    -0.5753403626     2.9173765389
   16      C      -4.0211773138     0.4044859828     2.8074867243
   17      S      -5.4670531949     1.1622715378     3.4009165761
   18      C      -4.3441846709    -0.8196158168     2.2479279415
   19      C      -6.4934722316    -0.2492767672     3.0478325297
   20      S      -3.4647197828    -1.7650975169     1.1068131947
   21      C      -5.6849356793    -1.1766273105     2.3818403274
   22      C      -7.9453893446    -0.1708951184     3.1574774750
   23      C      -4.9233394202    -2.9070216143     1.0002153090
   24      C      -5.9948141898    -2.3709684960     1.7145274763
   25      N      -8.5880223436    -1.3007706879     3.3623994746
   26      S      -8.8898318149     1.2093824700     2.8723788965
   27      C      -9.9209815259    -1.0869603694     3.1778487603
   28      C     -10.2662475084     0.2152426567     2.9648119555
   29      C       2.6750796325     6.1981477851    -1.7532407210
   30      H       3.3350699815     4.9138367863     0.6401819323
   31      H       2.0138642106     3.3916856418     1.9922045668
   32      H      -1.0942933044     3.8379444506    -0.9947693094
   33      H      -2.2341680706     3.9070286007     1.0506545825
   34      H      -5.0104521043    -3.7694575729     0.3524039187
   35      H      -7.0017675775    -2.7636325005     1.6293050934
   36      H     -10.6046562914    -1.8941369327     2.9497373608
   37      H     -11.2560607773     0.5631778278     2.7002712038
   38      H       3.4699986706     5.7228004218    -2.3416849469
   39      C       3.2301448865     7.4508040083    -1.0322546252
   40      H       2.0881847307     6.5813138638    -2.5972644946
   41      H       3.9266682596     7.1838239006    -0.2281359693
   42      H       2.3443214531     7.8602090056    -0.5294958432
   43      C       4.0471173971     8.4326664586    -1.9790983534
   44      H       4.9202000903     7.8831047976    -2.3508961367
   45      C       4.4266796869     9.6920050443    -1.2603607137
   46      H       3.4859051465     8.8242833627    -2.8368693078
   47      H       3.5483389358     9.9824390615    -0.6709825611
   48      H       4.5075420706    10.4801356905    -2.0199990220
   49      C       5.6542437808     9.4921466646    -0.3084468397
   50      H       5.2951329990     8.8655806324     0.5170375355
   51      C       6.1529349232    10.8694821365     0.1705846230
   52      H       6.4730343307     8.9545422677    -0.8024018456
   53      H       5.4203377101    11.5194310367     0.6638905629
   54      H       6.5366324010    11.3661854027    -0.7290964933
   55      H       6.9660967829    10.7558916914     0.8975859990
   56      C       6.9486142915    -3.7334598231     0.3955212097
   57      C       5.9169601942    -4.3009449870     1.1419047653
   58      N       6.7372655794    -2.6759817771    -0.4549391975
   59      C       4.5559158609    -3.9105514101     0.8670790425
   60      C       5.4852963339    -2.2416646205    -0.6694959866
   61      C       4.3472396661    -2.8560652868    -0.0554431857
   62      C       3.0119289436    -2.5280925933    -0.5483936769
   63      C       2.1576772756    -3.6671021693    -0.8430736277
   64      C       2.5251016300    -1.2088362310    -0.7688178524
   65      N       0.9023324850    -3.4308391975    -1.3076027064
   66      N       3.2960442895    -0.1433642212    -0.7256112311
   67      C       1.2502946659    -1.0170957867    -1.3386843335
   68      C       0.4755107831    -2.1648437597    -1.6628178329
   69      S       2.2834254733     1.1283621562    -1.0299353249
   70      N       0.9369223323     0.2932506987    -1.5672928828
   71      C      -0.8913060481    -2.0601928713    -2.2922627801
   72      S      -1.5485296762    -0.5421593420    -2.9047962948
   73      C      -1.8109487935    -3.1152659255    -2.4520847785
   74      C      -3.0355757159    -1.3974839211    -3.3800561609
   75      S      -1.7100602825    -4.7581072072    -2.0719544961
   76      C      -3.0686134462    -2.6873850039    -2.9239062896
   77      C      -4.1936561927    -0.9114822093    -4.0844523174
   78      C      -3.4960089864    -4.9282815775    -2.3400830300
   79      C      -4.0493397868    -3.7345893485    -2.8649409991
   80      N      -4.1149114177     0.4042091012    -4.1969806960
   81      S      -5.4758839702    -1.6314032590    -5.0006354917
   82      C      -5.1723955864     0.9297559428    -4.8314156811
   83      C      -5.9845957665    -0.0400017097    -5.3863444719
   84      C       8.3116342518    -4.2603952277     0.5679876331
   85      H       6.0849670608    -5.1633885072     1.7801812471
   86      H       3.6768873295    -4.4007844127     1.2732236524
   87      H       5.3252719746    -1.5978283981    -1.5331568709
   88      H       2.4853836262    -4.7036866753    -0.7729230051
   89      H      -3.9428786552    -5.9045428754    -2.2087842201
   90      H      -5.0961601083    -3.6000177966    -3.1138560687
   91      H      -5.2201641381     1.9833548012    -5.0706678724
   92      H      -6.7508558258     0.2670571041    -6.0860289768
   93      H       8.3195400191    -4.7253588792     1.5622070765
   94      C       9.4425466139    -3.2843509666     0.6239414510
   95      H       8.4779643845    -5.1108495601    -0.1042405390
   96      H       9.2668376916    -2.4352487986     1.2957114137
   97      H       9.7096890328    -2.7618237721    -0.3036151559
   98      C      10.7123552825    -4.0546685352     1.0785971326
   99      H      10.4860029582    -4.6905165328     1.9443187675
  100      C      11.8613587164    -3.2553918684     1.5805183604
  101      H      10.9735149811    -4.7742909296     0.2922446535
  102      H      11.7501241569    -2.5966048255     2.4501145338
  103      H      11.9676457411    -2.5361084427     0.7589878242
  104      C      12.9788442075    -4.1780233060     1.9752896959
  105      H      12.6798963873    -4.8685859469     2.7730098472
  106      C      14.1833511190    -3.3261143417     2.4232553381
  107      H      13.1716076888    -4.8458510825     1.1266052427
  108      H      14.9206002552    -4.0137149121     2.8559055048
  109      H      14.0079628751    -2.6576541309     3.2745284497
  110      H      14.6660723860    -2.6558083764     1.7015219446
 ----------------------------------------------------------------

   10   -5663.4748636536      3.32E-06 Convergence criterion met
 Total energy in the final basis set = -5663.4748636536

                    Orbital Energies (a.u.)
 --------------------------------------------------------------

 Alpha MOs
 -- Occupied --
-88.989 -88.979 -88.937 -88.929 -88.923 -88.919 -88.910 -88.905
-14.385 -14.385 -14.380 -14.376 -14.348 -14.345 -14.338 -14.333
-14.327 -14.325 -10.265 -10.264 -10.262 -10.261 -10.259 -10.256
-10.250 -10.249 -10.241 -10.239 -10.238 -10.236 -10.235 -10.235
-10.231 -10.230 -10.230 -10.228 -10.225 -10.225 -10.225 -10.224
-10.223 -10.223 -10.223 -10.223 -10.219 -10.218 -10.217 -10.215
-10.213 -10.212 -10.207 -10.205 -10.205 -10.199 -10.196 -10.195
-10.185 -10.185 -10.182 -10.181 -10.180 -10.178 -10.174 -10.173
-10.172 -10.170 -10.169 -10.166  -8.046  -8.034  -7.998  -7.991
 -7.981  -7.979  -7.970  -7.965  -6.011  -6.005  -6.003  -5.999
 -5.993  -5.991  -5.962  -5.959  -5.955  -5.955  -5.952  -5.949
 -5.946  -5.943  -5.942  -5.940  -5.937  -5.936  -5.935  -5.931
 -5.930  -5.927  -5.926  -5.921  -1.054  -1.026  -0.979  -0.977
 -0.976  -0.950  -0.937  -0.927  -0.918  -0.909  -0.908  -0.898
 -0.844  -0.840  -0.834  -0.824  -0.817  -0.813  -0.813  -0.808
 -0.806  -0.801  -0.798  -0.791  -0.789  -0.786  -0.769  -0.762
 -0.749  -0.748  -0.741  -0.738  -0.722  -0.717  -0.714  -0.709
 -0.698  -0.688  -0.675  -0.670  -0.655  -0.653  -0.650  -0.637
 -0.630  -0.629  -0.627  -0.619  -0.613  -0.607  -0.599  -0.598
 -0.594  -0.591  -0.588  -0.582  -0.577  -0.575  -0.571  -0.566
 -0.551  -0.546  -0.537  -0.534  -0.527  -0.519  -0.517  -0.515
 -0.511  -0.505  -0.501  -0.496  -0.489  -0.482  -0.479  -0.475
 -0.474  -0.474  -0.470  -0.468  -0.462  -0.456  -0.455  -0.448
 -0.445  -0.444  -0.439  -0.437  -0.436  -0.433  -0.432  -0.431
 -0.429  -0.426  -0.422  -0.422  -0.420  -0.418  -0.415  -0.413
 -0.411  -0.411  -0.406  -0.404  -0.403  -0.401  -0.400  -0.395
 -0.392  -0.391  -0.390  -0.388  -0.387  -0.382  -0.379  -0.378
 -0.377  -0.374  -0.373  -0.370  -0.368  -0.367  -0.357  -0.354
 -0.353  -0.349  -0.347  -0.346  -0.345  -0.343  -0.342  -0.340
 -0.339  -0.334  -0.333  -0.333  -0.329  -0.328  -0.327  -0.320
 -0.319  -0.311  -0.309  -0.308  -0.302  -0.300  -0.299  -0.299
 -0.294  -0.293  -0.289  -0.286  -0.283  -0.282  -0.278  -0.277
 -0.275  -0.272  -0.266  -0.260  -0.254  -0.253  -0.245  -0.243
 -0.241  -0.239  -0.232  -0.228  -0.194  -0.186

          Ground-State Mulliken Net Atomic Charges

     Atom                 Charge (a.u.)
  ----------------------------------------
      1 C                     0.283775
      2 C                    -0.113080
      3 N                    -0.478397
      4 C                    -0.062204
      5 C                     0.070359
      6 C                    -0.004895
      7 C                     0.076673
      8 C                     0.045338
      9 C                     0.226862
     10 N                    -0.480409
     11 N                    -0.573243
     12 C                     0.195372
     13 C                     0.259143
     14 S                     0.609708
     15 N                    -0.512242
     16 C                    -0.196953
     17 S                     0.306752
     18 C                    -0.128998
     19 C                    -0.221435
     20 S                     0.255900
     21 C                     0.169430
     22 C                     0.028827
     23 C                    -0.307867
     24 C                    -0.052720
     25 N                    -0.410332
     26 S                     0.296989
     27 C                     0.109304
     28 C                    -0.303598
     29 C                    -0.233953
     30 H                     0.088380
     31 H                     0.116082
     32 H                     0.112609
     33 H                     0.102032
     34 H                     0.129271
     35 H                     0.115990
     36 H                     0.112419
     37 H                     0.131205
     38 H                     0.107875
     39 C                    -0.188664
     40 H                     0.121259
     41 H                     0.095693
     42 H                     0.100761
     43 C                    -0.176586
     44 H                     0.092941
     45 C                    -0.174125
     46 H                     0.088932
     47 H                     0.096054
     48 H                     0.085234
     49 C                    -0.175407
     50 H                     0.097036
     51 C                    -0.315910
     52 H                     0.094852
     53 H                     0.104130
     54 H                     0.105259
     55 H                     0.094803
     56 C                     0.282341
     57 C                    -0.128441
     58 N                    -0.490791
     59 C                    -0.090187
     60 C                     0.102524
     61 C                     0.035607
     62 C                    -0.036288
     63 C                     0.073138
     64 C                     0.242042
     65 N                    -0.534120
     66 N                    -0.544951
     67 C                     0.211414
     68 C                     0.308041
     69 S                     0.621854
     70 N                    -0.580820
     71 C                    -0.225129
     72 S                     0.378623
     73 C                    -0.115256
     74 C                    -0.210566
     75 S                     0.283464
     76 C                     0.136091
     77 C                     0.042852
     78 C                    -0.325319
     79 C                    -0.081766
     80 N                    -0.417790
     81 S                     0.289236
     82 C                     0.122082
     83 C                    -0.314650
     84 C                    -0.230581
     85 H                     0.089430
     86 H                     0.100494
     87 H                     0.114327
     88 H                     0.125571
     89 H                     0.133241
     90 H                     0.114272
     91 H                     0.117129
     92 H                     0.130532
     93 H                     0.106468
     94 C                    -0.172912
     95 H                     0.118440
     96 H                     0.098300
     97 H                     0.110114
     98 C                    -0.185559
     99 H                     0.078094
    100 C                    -0.156933
    101 H                     0.091028
    102 H                     0.088942
    103 H                     0.087794
    104 C                    -0.173049
    105 H                     0.097418
    106 C                    -0.327687
    107 H                     0.093808
    108 H                     0.092779
    109 H                     0.100655
    110 H                     0.108416
  ----------------------------------------
  Sum of atomic charges =     0.000000

                    Cartesian Multipole Moments
 -----------------------------------------------------------------
    Charge (ESU x 10^10)
                 0.0000
    Dipole Moment (Debye)
         X      -2.7157      Y      -0.7256      Z      -0.6333
       Tot       2.8814
    Quadrupole Moments (Debye-Ang)
        XX    -394.1803     XY       4.0002     YY    -420.0623
        XZ      32.6017     YZ       1.1074     ZZ    -446.4550

 Total job time:  94.51s(wall), 1119.34s(cpu)
        *  Thank you very much for using Q-Chem.  Have a nice day.  *
