 Q-Chem 4.4, Q-Chem, Inc., Pleasanton, CA (2016)
 Q-Chem 4.4.2 for Intel X86 Linux

User input:
--------------------------------------------------------------
$comment
SP
$end

$rem
MEM_STATIC 5000
MEM_TOTAL 20000
JOBTYPE SP
EXCHANGE B3LYP
BASIS 6-31g(d,p)
$end

$molecule
0 1
C         -13.976000     12.100000     -7.671000
C         -14.325000     12.909000     -6.583000
N         -13.410000     12.557000     -8.794000
C         -14.010000     14.252000     -6.628000
C         -12.971000     13.853000     -8.789000
C         -13.253000     14.778000     -7.721000
C         -12.775000     16.205000     -7.771000
C         -11.577000     16.663000     -8.423000
C         -13.650000     17.279000     -7.465000
N         -11.153000     17.895000     -8.556000
N         -14.850000     17.168000     -6.858000
C         -13.195000     18.627000     -7.530000
C         -11.890000     18.887000     -8.042000
S         -15.384000     18.681000     -6.676000
N         -14.095000     19.576000     -7.105000
C         -11.411000     20.256000     -8.151000
S         -12.050000     21.726000     -7.368000
C         -10.275000     20.636000     -8.862000
C         -10.695000     22.742000     -7.918000
S          -9.216000     19.712000     -9.943000
C          -9.901000     22.025000     -8.664000
C         -10.618000     24.163000     -7.595000
C          -8.244000     21.229000    -10.052000
C          -8.809000     22.357000     -9.468000
N         -11.226000     24.591000     -6.481000
S          -9.807000     25.425000     -8.516000
C         -11.333000     25.965000     -6.461000
C         -10.707000     26.603000     -7.553000
C         -14.393000     10.620000     -7.587000
H         -14.619000     12.503000     -5.619000
H         -14.160000     14.900000     -5.770000
H         -12.474000     14.095000     -9.728000
H         -10.855000     15.985000     -8.876000
H          -7.233000     21.096000    -10.415000
H          -8.386000     23.354000     -9.510000
H         -11.915000     26.476000     -5.707000
H         -10.648000     27.657000     -7.792000
H         -15.408000     10.529000     -7.181000
C         -13.406000      9.754000     -6.693000
H         -14.464000     10.257000     -8.619000
H         -13.600000      9.953000     -5.632000
H         -12.422000     10.224000     -6.813000
C         -13.547000      8.193000     -6.925000
H         -14.275000      7.838000     -6.185000
C         -12.167000      7.562000     -6.620000
H         -13.884000      7.914000     -7.931000
H         -11.819000      7.710000     -5.590000
H         -11.402000      8.097000     -7.195000
C         -12.076000      6.054000     -6.989000
H         -12.767000      5.459000     -6.380000
C         -10.614000      5.682000     -6.714000
H         -12.388000      5.938000     -8.034000
H         -10.457000      4.615000     -6.910000
H         -10.480000      5.759000     -5.628000
H          -9.840000      6.326000     -7.149000
C         -16.949000     14.677000      3.511000
C         -16.949000     13.945000      2.338000
N         -16.133000     15.742000      3.637000
C         -16.104000     14.237000      1.252000
C         -15.303000     16.048000      2.667000
C         -15.221000     15.319000      1.453000
C         -14.208000     15.718000      0.450000
C         -12.944000     16.149000      0.946000
C         -14.323000     15.755000     -0.993000
N         -11.931000     16.447000      0.145000
N         -15.432000     15.397000     -1.660000
C         -13.222000     16.047000     -1.770000
C         -11.982000     16.394000     -1.207000
S         -15.069000     15.651000     -3.212000
N         -13.480000     16.016000     -3.145000
C         -10.842000     16.794000     -1.960000
S         -10.691000     16.972000     -3.681000
C          -9.644000     17.040000     -1.388000
C          -9.013000     17.537000     -3.565000
S          -9.096000     16.658000      0.252000
C          -8.603000     17.387000     -2.270000
C          -8.225000     17.978000     -4.724000
C          -7.462000     17.118000     -0.276000
C          -7.325000     17.471000     -1.573000
N          -6.893000     18.045000     -4.550000
S          -8.925000     18.638000     -6.247000
C          -6.410000     18.752000     -5.623000
C          -7.340000     19.010000     -6.620000
C         -17.789000     14.355000      4.648000
H         -17.552000     13.042000      2.363000
H         -16.049000     13.608000      0.368000
H         -14.782000     17.004000      2.706000
H         -12.707000     16.047000      2.004000
H          -6.607000     17.051000      0.384000
H          -6.420000     17.890000     -1.999000
H          -5.356000     18.993000     -5.581000
H          -7.206000     19.578000     -7.531000
H         -17.449000     14.958000      5.499000
C         -17.796000     12.847000      5.010000
H         -18.766000     14.832000      4.503000
H         -16.967000     12.515000      5.647000
H         -17.791000     12.169000      4.148000
C         -19.066000     12.383000      5.700000
H         -19.859000     12.638000      4.987000
C         -19.346000     13.168000      7.029000
H         -19.010000     11.321000      5.971000
H         -19.360000     14.241000      6.800000
H         -18.434000     13.139000      7.639000
C         -20.542000     12.741000      7.949000
H         -21.463000     12.659000      7.357000
C         -20.676000     13.742000      9.151000
H         -20.363000     11.725000      8.321000
H         -20.022000     13.518000     10.002000
H         -21.745000     13.761000      9.396000
H         -20.363000     14.751000      8.856000
$end

--------------------------------------------------------------

             Standard Nuclear Orientation (Angstroms)
    I     Atom           X                Y                Z
 ----------------------------------------------------------------
    1      C      -0.3375890013    -5.8320826253    -1.8422167572
    2      C      -0.8693114508    -4.5376914616    -1.8852138716
    3      N       0.9716030491    -6.1063212658    -1.8760301186
    4      C      -0.0012017832    -3.4647479316    -1.8939766591
    5      C       1.8337632995    -5.0519399243    -1.7444182303
    6      C       1.4064520584    -3.6760890708    -1.7589967149
    7      C       2.3939850919    -2.5455281569    -1.6409987170
    8      C       3.6392901912    -2.5948854811    -0.9220751715
    9      C       2.3384320681    -1.4331560730    -2.5197928956
   10      N       4.5626161951    -1.6691698290    -0.8458608551
   11      N       1.3048740281    -1.1202188231    -3.3288652382
   12      C       3.2858285573    -0.3752142660    -2.4123078950
   13      C       4.3736004384    -0.5178414899    -1.5017153353
   14      S       1.7185714585     0.2686546033    -4.0411390911
   15      N       3.0673940715     0.7005629076    -3.2406893580
   16      C       5.3747031442     0.5318214989    -1.3945519903
   17      S       5.2798883446     2.2235316261    -1.9526173979
   18      C       6.5952905370     0.3885873795    -0.7387567452
   19      C       6.8091602756     2.6852345550    -1.1658907832
   20      S       7.3770926731    -1.0385343772    -0.0345359621
   21      C       7.3356001179     1.6307861717    -0.6072847509
   22      C       7.3429252729     4.0403477550    -1.2567871128
   23      C       8.6734030430     0.1056232405     0.4835728782
   24      C       8.5798611558     1.3987547876    -0.0181498712
   25      N       6.4800402369     5.0474784703    -1.4437660874
   26      S       9.0298577581     4.5326671755    -1.1543840911
   27      C       7.1295682118     6.2065354546    -1.8104066705
   28      C       8.5364199902     6.0963923179    -1.8149413169
   29      C      -1.3504025680    -6.9914024060    -1.8813489056
   30      H      -1.9151817257    -4.3247588244    -1.6817856036
   31      H      -0.3598161801    -2.4428980628    -1.8179072178
   32      H       2.8664023867    -5.3990601816    -1.7230162995
   33      H       3.9396491351    -3.4506616887    -0.3190755137
   34      H       9.3182940148    -0.2641642507     1.2703078056
   35      H       9.3144612644     2.1795863636     0.1411194930
   36      H       6.5845725149     7.0819684199    -2.1343786039
   37      H       9.2832966267     6.8366406451    -2.0713115645
   38      H      -2.1445355401    -6.7837403257    -2.6090653910
   39      C      -2.0153978972    -7.2735019069    -0.4665831710
   40      H      -0.8148619257    -7.8599058333    -2.2822628829
   41      H      -2.7745714132    -6.5099232512    -0.2578699486
   42      H      -1.2479620944    -7.0061909322     0.2703992787
   43      C      -2.7166175825    -8.6909119170    -0.3682682877
   44      H      -3.7645980723    -8.5344403282    -0.6526316730
   45      C      -2.6547658865    -9.1263013307     1.1157116401
   46      H      -2.2745189421    -9.4598516070    -1.0138118922
   47      H      -3.1773914475    -8.4535818023     1.8072454130
   48      H      -1.6178748404    -9.0440439988     1.4623608717
   49      C      -3.1254561958   -10.5888719437     1.3562190927
   50      H      -4.1854898783   -10.7064565967     1.1014850327
   51      C      -2.8711676036   -10.8303667044     2.8490253736
   52      H      -2.5593241258   -11.2453786146     0.6844166885
   53      H      -3.2107717141   -11.8345650116     3.1279676762
   54      H      -3.5664050718   -10.1732981102     3.3858556310
   55      H      -1.8762599232   -10.5805949521     3.2373677216
   56      C      -8.5017463858     2.6676700360    -0.5703988076
   57      C      -8.0226791100     1.4104124650    -0.8890693984
   58      N      -7.6806123434     3.5752407755    -0.0064739570
   59      C      -6.7023228215     1.0034014419    -0.6250877729
   60      C      -6.4445212710     3.2449074868     0.2874559309
   61      C      -5.8975520542     1.9627203264     0.0251931586
   62      C      -4.5080251533     1.6808366268     0.4507934070
   63      C      -4.0873245817     2.2403544846     1.6915285906
   64      C      -3.4841414952     0.9198959208    -0.2343886832
   65      N      -2.8978895144     1.9862946138     2.2180946384
   66      N      -3.6732160540     0.3174777825    -1.4194107074
   67      C      -2.2763598661     0.6690416119     0.3816710965
   68      C      -1.9588201331     1.1972093389     1.6446775772
   69      S      -2.2452946735    -0.3510655167    -1.7644895219
   70      N      -1.4008377026    -0.1025217570    -0.3905341282
   71      C      -0.6953740955     1.0471278618     2.2832609001
   72      S       0.7228432536     0.2341824814     1.6966559571
   73      C      -0.4553463431     1.4987703627     3.5327847012
   74      C       1.6744875818     0.6708932059     3.1291439381
   75      S      -1.6100726410     2.0569753515     4.7537852611
   76      C       0.8311387752     1.2389986282     4.0421850213
   77      C       3.1001486951     0.3506101826     3.2828162353
   78      C      -0.2611616149     2.0526823350     5.9116974398
   79      C       0.9312820580     1.6205494539     5.4459440072
   80      N       3.5980556240     0.4255646961     4.5299968601
   81      S       4.2458686880     0.0969412254     1.9160292152
   82      C       4.9633468698     0.3915381632     4.3911119821
   83      C       5.4140831049     0.1081047165     3.1097161309
   84      C      -9.8727348467     3.0776773484    -0.8035031701
   85      H      -8.7759574749     0.7086944174    -1.2352001346
   86      H      -6.3569623327    -0.0115527618    -0.8003478575
   87      H      -5.7469692801     4.0308163503     0.5749737185
   88      H      -4.8091190994     2.7272281223     2.3456721033
   89      H      -0.3996777517     2.3127294560     6.9529960400
   90      H       1.8611529845     1.6807515541     6.0007212301
   91      H       5.5246963000     0.5541279160     5.3017229800
   92      H       6.4341466108     0.0683655690     2.7513974959
   93      H     -10.0323051705     4.0299376095    -0.2827847174
   94      C     -10.9216728149     2.0251943358    -0.3594697852
   95      H      -9.9527405163     3.4503177708    -1.8320075252
   96      H     -11.1921321787     2.0538019355     0.7032001249
   97      H     -10.6399508960     0.9845820172    -0.5607451261
   98      C     -12.2298055152     2.0947504912    -1.1264422616
   99      H     -11.9276630249     1.9580276255    -2.1715545874
  100      C     -12.9196846650     3.4985417437    -1.0068476212
  101      H     -12.9532544902     1.3589111104    -0.7528341965
  102      H     -12.2026465429     4.2643310414    -1.3283893493
  103      H     -12.9766709862     3.7592103723     0.0578069826
  104      C     -14.3441178680     3.7218148829    -1.6235194590
  105      H     -14.3617772973     3.3793827874    -2.6665234880
  106      C     -14.7644916506     5.2264033107    -1.4677614864
  107      H     -15.0631065801     3.0729706113    -1.1089931302
  108      H     -15.2131623968     5.4732695627    -0.4983056518
  109      H     -15.4078068705     5.4395249024    -2.3302414659
  110      H     -13.8873466642     5.8835934721    -1.5101025348
 ----------------------------------------------------------------

   10   -5663.5174754976      7.48E-06 Convergence criterion met
 Total energy in the final basis set = -5663.5174754976

                    Orbital Energies (a.u.)
 --------------------------------------------------------------

 Alpha MOs
 -- Occupied --
-88.992 -88.990 -88.935 -88.925 -88.922 -88.922 -88.916 -88.902
-14.395 -14.391 -14.386 -14.383 -14.354 -14.349 -14.342 -14.340
-14.333 -14.324 -10.278 -10.265 -10.264 -10.261 -10.259 -10.256
-10.255 -10.252 -10.243 -10.243 -10.240 -10.240 -10.239 -10.239
-10.237 -10.236 -10.235 -10.234 -10.233 -10.230 -10.227 -10.225
-10.223 -10.222 -10.222 -10.221 -10.219 -10.219 -10.213 -10.212
-10.211 -10.211 -10.210 -10.210 -10.202 -10.197 -10.194 -10.187
-10.187 -10.186 -10.185 -10.185 -10.184 -10.183 -10.179 -10.178
-10.175 -10.175 -10.175 -10.171  -8.048  -8.045  -7.995  -7.985
 -7.981  -7.980  -7.976  -7.961  -6.013  -6.010  -6.007  -6.006
 -6.005  -6.003  -5.959  -5.956  -5.952  -5.949  -5.946  -5.945
 -5.945  -5.943  -5.942  -5.941  -5.940  -5.937  -5.937  -5.936
 -5.932  -5.925  -5.922  -5.917  -1.043  -1.040  -0.973  -0.966
 -0.961  -0.956  -0.945  -0.937  -0.917  -0.910  -0.910  -0.902
 -0.844  -0.836  -0.832  -0.829  -0.816  -0.814  -0.813  -0.807
 -0.805  -0.801  -0.799  -0.794  -0.785  -0.783  -0.767  -0.762
 -0.752  -0.746  -0.744  -0.729  -0.720  -0.719  -0.714  -0.711
 -0.695  -0.686  -0.679  -0.669  -0.658  -0.653  -0.645  -0.644
 -0.634  -0.633  -0.628  -0.626  -0.610  -0.607  -0.603  -0.597
 -0.595  -0.588  -0.586  -0.582  -0.581  -0.578  -0.571  -0.563
 -0.555  -0.549  -0.544  -0.537  -0.525  -0.521  -0.520  -0.510
 -0.507  -0.506  -0.500  -0.495  -0.491  -0.489  -0.481  -0.474
 -0.474  -0.471  -0.470  -0.468  -0.466  -0.460  -0.455  -0.446
 -0.444  -0.441  -0.441  -0.437  -0.435  -0.434  -0.430  -0.429
 -0.428  -0.425  -0.423  -0.421  -0.419  -0.416  -0.415  -0.413
 -0.409  -0.407  -0.404  -0.403  -0.401  -0.398  -0.396  -0.394
 -0.393  -0.392  -0.391  -0.389  -0.386  -0.386  -0.382  -0.380
 -0.380  -0.375  -0.372  -0.372  -0.368  -0.367  -0.362  -0.361
 -0.355  -0.354  -0.352  -0.349  -0.347  -0.345  -0.343  -0.341
 -0.340  -0.339  -0.337  -0.335  -0.334  -0.328  -0.327  -0.320
 -0.319  -0.318  -0.316  -0.310  -0.309  -0.304  -0.300  -0.298
 -0.298  -0.296  -0.294  -0.291  -0.287  -0.287  -0.284  -0.282
 -0.280  -0.269  -0.266  -0.259  -0.257  -0.255  -0.249  -0.245
 -0.240  -0.240  -0.234  -0.226  -0.203  -0.188

          Ground-State Mulliken Net Atomic Charges

     Atom                 Charge (a.u.)
  ----------------------------------------
      1 C                     0.260693
      2 C                    -0.111324
      3 N                    -0.474625
      4 C                    -0.049431
      5 C                     0.060058
      6 C                     0.030479
      7 C                     0.009610
      8 C                     0.054747
      9 C                     0.231012
     10 N                    -0.506673
     11 N                    -0.539368
     12 C                     0.186627
     13 C                     0.315421
     14 S                     0.616683
     15 N                    -0.542323
     16 C                    -0.228209
     17 S                     0.351167
     18 C                    -0.135173
     19 C                    -0.232700
     20 S                     0.279398
     21 C                     0.183038
     22 C                     0.032993
     23 C                    -0.316111
     24 C                    -0.075776
     25 N                    -0.414724
     26 S                     0.272681
     27 C                     0.122881
     28 C                    -0.312920
     29 C                    -0.232064
     30 H                     0.096124
     31 H                     0.108669
     32 H                     0.107528
     33 H                     0.110905
     34 H                     0.131790
     35 H                     0.112966
     36 H                     0.124325
     37 H                     0.138562
     38 H                     0.101974
     39 C                    -0.190013
     40 H                     0.114158
     41 H                     0.093931
     42 H                     0.106603
     43 C                    -0.180261
     44 H                     0.097575
     45 C                    -0.172303
     46 H                     0.099685
     47 H                     0.089957
     48 H                     0.097840
     49 C                    -0.176314
     50 H                     0.093947
     51 C                    -0.318691
     52 H                     0.093927
     53 H                     0.094332
     54 H                     0.102252
     55 H                     0.107854
     56 C                     0.276643
     57 C                    -0.110764
     58 N                    -0.487396
     59 C                    -0.055747
     60 C                     0.079440
     61 C                     0.024687
     62 C                    -0.000967
     63 C                     0.065276
     64 C                     0.229412
     65 N                    -0.544006
     66 N                    -0.543631
     67 C                     0.163577
     68 C                     0.328814
     69 S                     0.610810
     70 N                    -0.563043
     71 C                    -0.193727
     72 S                     0.301885
     73 C                    -0.123624
     74 C                    -0.255306
     75 S                     0.282845
     76 C                     0.164466
     77 C                     0.028484
     78 C                    -0.311946
     79 C                    -0.036713
     80 N                    -0.422879
     81 S                     0.339887
     82 C                     0.113439
     83 C                    -0.315686
     84 C                    -0.240021
     85 H                     0.080925
     86 H                     0.112256
     87 H                     0.107603
     88 H                     0.122337
     89 H                     0.118519
     90 H                     0.122447
     91 H                     0.107585
     92 H                     0.136581
     93 H                     0.130812
     94 C                    -0.190473
     95 H                     0.121639
     96 H                     0.105875
     97 H                     0.097769
     98 C                    -0.182880
     99 H                     0.091385
    100 C                    -0.179592
    101 H                     0.088138
    102 H                     0.091887
    103 H                     0.085641
    104 C                    -0.181119
    105 H                     0.094213
    106 C                    -0.322822
    107 H                     0.095376
    108 H                     0.108730
    109 H                     0.103955
    110 H                     0.105617
  ----------------------------------------
  Sum of atomic charges =     0.000000

                    Cartesian Multipole Moments
 -----------------------------------------------------------------
    Charge (ESU x 10^10)
                 0.0000
    Dipole Moment (Debye)
         X       2.1362      Y       0.4304      Z      -1.1883
       Tot       2.4821
    Quadrupole Moments (Debye-Ang)
        XX    -377.4945     XY      37.6970     YY    -446.2458
        XZ      10.5824     YZ      -7.7564     ZZ    -444.0055

 Total job time:  94.66s(wall), 1128.25s(cpu)
        *  Thank you very much for using Q-Chem.  Have a nice day.  *
