 Q-Chem 4.4, Q-Chem, Inc., Pleasanton, CA (2016)
 Q-Chem 4.4.2 for Intel X86 Linux

User input:
--------------------------------------------------------------
$comment
SP
$end

$rem
MEM_STATIC 5000
MEM_TOTAL 20000
JOBTYPE SP
EXCHANGE B3LYP
BASIS 6-31g(d,p)
$end

$molecule
0 1
C          11.911000     29.351000      6.157000
C          12.056000     28.170000      5.304000
N          11.005000     29.388000      7.152000
C          11.243000     27.078000      5.494000
C          10.290000     28.261000      7.443000
C          10.364000     27.099000      6.634000
C           9.473000     25.908000      6.884000
C           8.742000     25.257000      5.873000
C           9.025000     25.402000      8.187000
N           7.804000     24.296000      5.977000
N           9.486000     25.922000      9.353000
C           8.096000     24.390000      8.365000
C           7.444000     23.883000      7.175000
S           8.700000     25.089000     10.507000
N           7.746000     24.126000      9.622000
C           6.360000     22.898000      7.286000
S           6.078000     21.820000      8.643000
C           5.472000     22.614000      6.238000
C           4.763000     20.984000      7.833000
S           5.182000     23.423000      4.718000
C           4.666000     21.554000      6.546000
C           3.904000     20.018000      8.408000
C           4.080000     22.038000      4.320000
C           3.898000     21.209000      5.407000
N           2.861000     19.578000      7.697000
S           4.194000     19.187000      9.891000
C           2.209000     18.614000      8.401000
C           2.785000     18.218000      9.567000
C          12.694000     30.660000      5.900000
H          12.797000     28.182000      4.511000
H          11.141000     26.201000      4.861000
H           9.699000     28.415000      8.344000
H           8.889000     25.606000      4.852000
H           3.606000     22.053000      3.347000
H           3.207000     20.375000      5.347000
H           1.318000     18.211000      7.938000
H           2.480000     17.427000     10.239000
H          12.892000     31.153000      6.859000
C          12.000000     31.674000      5.017000
H          13.581000     30.342000      5.339000
H          10.938000     31.610000      5.287000
H          12.083000     31.322000      3.981000
C          12.620000     33.040000      5.142000
H          12.514000     33.406000      6.170000
C          11.935000     34.138000      4.273000
H          13.693000     33.079000      4.916000
H          11.992000     33.821000      3.225000
H          12.412000     35.125000      4.322000
C          10.354000     34.246000      4.536000
H           9.934000     33.237000      4.435000
C           9.839000     35.311000      3.571000
H          10.233000     34.683000      5.535000
H          10.495000     36.172000      3.392000
H           8.949000     35.788000      4.000000
H           9.571000     34.869000      2.604000
C          -7.003000     27.352000      8.610000
C          -5.934000     26.916000      7.812000
N          -6.884000     27.590000      9.933000
C          -4.733000     26.634000      8.485000
C          -5.755000     27.278000     10.548000
C          -4.645000     26.808000      9.917000
C          -3.481000     26.246000     10.708000
C          -2.702000     25.222000     10.233000
C          -3.145000     26.717000     11.964000
N          -1.610000     24.776000     10.911000
N          -3.741000     27.754000     12.606000
C          -2.082000     26.200000     12.730000
C          -1.315000     25.183000     12.135000
S          -3.096000     27.888000     14.108000
N          -1.870000     26.803000     13.964000
C          -0.211000     24.558000     12.903000
S          -0.104000     24.688000     14.713000
C           0.675000     23.600000     12.496000
C           1.436000     23.822000     14.724000
S           0.730000     22.733000     10.940000
C           1.628000     23.246000     13.424000
C           2.335000     23.544000     15.814000
C           2.258000     22.055000     11.548000
C           2.438000     22.184000     12.913000
N           3.622000     23.373000     15.561000
S           1.851000     24.066000     17.434000
C           4.289000     23.576000     16.777000
C           3.476000     23.822000     17.826000
C          -8.286000     27.507000      7.853000
H          -6.087000     26.742000      6.751000
H          -3.865000     26.394000      7.879000
H          -5.845000     27.266000     11.633000
H          -2.963000     24.730000      9.297000
H           2.860000     21.520000     10.826000
H           3.259000     21.826000     13.523000
H           5.369000     23.623000     16.805000
H           3.752000     24.027000     18.852000
H          -7.966000     27.669000      6.816000
C          -9.435000     28.396000      8.337000
H          -8.770000     26.524000      7.901000
H          -9.387000     28.664000      9.400000
H         -10.439000     27.981000      8.180000
C          -9.377000     29.764000      7.600000
H          -8.408000     30.254000      7.762000
C         -10.568000     30.689000      8.005000
H          -9.455000     29.614000      6.517000
H         -10.611000     30.895000      9.081000
H         -11.534000     30.323000      7.635000
C         -10.552000     32.056000      7.324000
H          -9.474000     32.261000      7.295000
C         -11.455000     33.079000      8.062000
H         -10.879000     32.021000      6.278000
H         -11.110000     34.116000      7.974000
H         -11.595000     32.689000      9.078000
H         -12.450000     33.031000      7.602000
$end

--------------------------------------------------------------

             Standard Nuclear Orientation (Angstroms)
    I     Atom           X                Y                Z
 ----------------------------------------------------------------
    1      C      -9.8912811585    -3.5211594240     1.2562942849
    2      C     -10.2405516593    -2.9583044745    -0.0493088030
    3      N      -8.7647147621    -3.1561009010     1.8964586616
    4      C      -9.4011014290    -2.0560760090    -0.6582752280
    5      C      -7.9946221823    -2.1576808837     1.3709590064
    6      C      -8.2642058471    -1.5975865464     0.0966670536
    7      C      -7.3337588927    -0.5916786962    -0.5336343521
    8      C      -6.8770648077    -0.6793250051    -1.8618028795
    9      C      -6.5708357498     0.4550730172     0.1568785939
   10      N      -5.9387780952     0.0502634795    -2.4954429099
   11      N      -6.7266962007     0.6962863122     1.4835287611
   12      C      -5.6224632454     1.2676148889    -0.4424829829
   13      C      -5.2877999119     0.9761159869    -1.8213527531
   14      S      -5.6725589377     1.8917295545     1.8046379097
   15      N      -4.9670103369     2.1008622298     0.3627035506
   16      C      -4.2063260210     1.7090653566    -2.4927702423
   17      S      -3.5880219925     3.2874089609    -2.0349617724
   18      C      -3.6085575929     1.2720335255    -3.6840636927
   19      C      -2.5147661935     3.3788249197    -3.4220400371
   20      S      -3.7129091823    -0.2464303079    -4.5398436482
   21      C      -2.7464062470     2.2104222109    -4.1782516448
   22      C      -1.5347089336     4.3712703691    -3.6591092195
   23      C      -2.7400120779     0.5520557763    -5.8463367395
   24      C      -2.2873679671     1.7935506578    -5.4517004918
   25      N      -0.7016334258     4.2205679549    -4.6936351885
   26      S      -1.4395475805     5.8887437341    -2.8453716061
   27      C       0.1104219643     5.3081506282    -4.7816463944
   28      C      -0.1527340367     6.3340629396    -3.9293548666
   29      C     -10.7194615373    -4.6448891672     1.9226033155
   30      H     -11.1569156948    -3.2814096604    -0.5329967119
   31      H      -9.4573970785    -1.6672571000    -1.6711289469
   32      H      -7.1970762471    -1.8960711762     2.0639805371
   33      H      -7.2771564012    -1.4882767974    -2.4712080933
   34      H      -2.5254748453    -0.0384250349    -6.7277765772
   35      H      -1.6298927842     2.3649747629    -6.0981042944
   36      H       0.8584491954     5.2780671379    -5.5628053059
   37      H       0.3146414238     7.3082844350    -3.8769844868
   38      H     -10.6725812132    -4.5266853327     3.0115312693
   39      C     -10.2737658736    -6.0571127462     1.6119573139
   40      H     -11.7174704917    -4.5486890384     1.4783762763
   41      H      -9.1777231292    -6.0102800285     1.5753923181
   42      H     -10.6125938521    -6.2947303882     0.5956785838
   43      C     -10.8485357850    -7.0507000479     2.5858180960
   44      H     -10.4895137405    -6.8322573442     3.5984196745
   45      C     -10.4084068144    -8.5247848583     2.3341229211
   46      H     -11.9440727193    -7.0518851511     2.6468379368
   47      H     -10.7252329805    -8.8017208976     1.3217150929
   48      H     -10.8621673817    -9.2603528778     3.0102442388
   49      C      -8.8124955168    -8.6986700351     2.2773331729
   50      H      -8.4268648811    -7.9639911753     1.5588500585
   51      C      -8.5608735286   -10.1717111991     1.9650654925
   52      H      -8.4465444127    -8.5571473945     3.3018633733
   53      H      -9.2445759459   -10.8963302997     2.4246045699
   54      H      -7.5937901788   -10.4711324788     2.3878735955
   55      H      -8.5422272657   -10.3467207779     0.8827989060
   56      C       9.0415294559    -3.2044760214    -1.7770207108
   57      C       7.8083806310    -3.1083502483    -2.4401683651
   58      N       9.2573620749    -2.6920332811    -0.5474058449
   59      C       6.8159968662    -2.3496787439    -1.7963935505
   60      C       8.3202467321    -1.9487669876     0.0179082724
   61      C       7.0894763315    -1.7305806366    -0.5194556054
   62      C       6.1637546505    -0.6801247391     0.0602018596
   63      C       5.2949728552     0.0385330480    -0.7206894114
   64      C       6.1516962294    -0.3680005091     1.4073121222
   65      N       4.4100737901     0.9221677438    -0.1847720961
   66      N       6.8851971643    -0.9841378904     2.3691333665
   67      C       5.3172678839     0.6174040876     1.9700919344
   68      C       4.4299516331     1.2654261001     1.0929714510
   69      S       6.6372580345    -0.2166370480     3.7972277768
   70      N       5.4191372877     0.7898325537     3.3453010271
   71      C       3.5568123727     2.3482459848     1.6071639530
   72      S       3.9069697422     3.2056301991     3.1713669851
   73      C       2.6012348020     3.0622632364     0.9397361510
   74      C       2.4228465317     4.1538189289     3.0299688642
   75      S       2.1612538090     2.9794915512    -0.7852031447
   76      C       1.9132296424     3.9806466670     1.6999530771
   77      C       1.8274397713     5.0860264013     3.9519585702
   78      C       0.8377651829     4.0820819058    -0.3415767631
   79      C       1.0055715317     4.7166082395     0.8755852479
   80      N       0.5189006668     5.2768364404     3.9213654160
   81      S       2.7002619840     5.4318112552     5.4518766413
   82      C       0.1775783388     5.8391811650     5.1591139684
   83      C       1.2267588376     6.0702914433     5.9762396137
   84      C      10.0927614482    -3.9122318322    -2.5752412384
   85      H       7.6909390842    -3.5415304228    -3.4290912233
   86      H       5.8247422214    -2.3452433964    -2.2387221125
   87      H       8.6797475818    -1.3809514244     0.8745374951
   88      H       5.3148436693    -0.0772464432    -1.8035011495
   89      H       0.0761725672     4.2357939936    -1.0940807710
   90      H       0.3655405024     5.4526885467     1.3476562839
   91      H      -0.8610167138     5.9657856477     5.4323988413
   92      H       1.2162180974     6.4762957774     6.9791984231
   93      H       9.5220147573    -4.5484492430    -3.2633463328
   94      C      11.3225469278    -4.5647261239    -1.9375447012
   95      H      10.5776268636    -3.1300104405    -3.1718015650
   96      H      11.5417154534    -4.2240788074    -0.9177302264
   97      H      12.2568130176    -4.4397171273    -2.5000477004
   98      C      11.0754139193    -6.0918664026    -1.7803033412
   99      H      10.1759527388    -6.2820810534    -1.1802258701
  100      C      12.3258677751    -6.8219801591    -1.1959831745
  101      H      10.8797467207    -6.5462405864    -2.7584298405
  102      H      12.6366574954    -6.4352271345    -0.2182854463
  103      H      13.1696735008    -6.8447298784    -1.8970440474
  104      C      12.1334499937    -8.3247283305    -1.0025165604
  105      H      11.0817904112    -8.3609402261    -0.6900252465
  106      C      13.1882773040    -8.9216686224    -0.0342275368
  107      H      12.1875912845    -8.8910334223    -1.9398730901
  108      H      12.8276839498    -9.7897023278     0.5302438258
  109      H      13.5805180939    -8.0799626363     0.5502672842
  110      H      14.0361685378    -9.2626158632    -0.6414873121
 ----------------------------------------------------------------

    9   -5663.5021605592      8.30E-06 Convergence criterion met
 Total energy in the final basis set = -5663.5021605592

                    Orbital Energies (a.u.)
 --------------------------------------------------------------

 Alpha MOs
 -- Occupied --
-88.987 -88.984 -88.929 -88.927 -88.923 -88.920 -88.906 -88.903
-14.387 -14.385 -14.381 -14.376 -14.348 -14.347 -14.344 -14.340
-14.330 -14.323 -10.268 -10.267 -10.261 -10.258 -10.256 -10.252
-10.250 -10.250 -10.241 -10.240 -10.239 -10.238 -10.237 -10.236
-10.235 -10.230 -10.229 -10.229 -10.229 -10.228 -10.228 -10.226
-10.224 -10.223 -10.222 -10.220 -10.219 -10.218 -10.217 -10.216
-10.215 -10.212 -10.208 -10.205 -10.202 -10.199 -10.193 -10.192
-10.186 -10.186 -10.179 -10.178 -10.178 -10.177 -10.176 -10.176
-10.171 -10.171 -10.170 -10.168  -8.042  -8.041  -7.991  -7.986
 -7.985  -7.979  -7.966  -7.963  -6.007  -6.006  -6.002  -6.000
 -6.000  -5.998  -5.955  -5.951  -5.950  -5.949  -5.948  -5.947
 -5.946  -5.943  -5.943  -5.942  -5.939  -5.935  -5.930  -5.927
 -5.927  -5.924  -5.922  -5.919  -1.045  -1.025  -0.974  -0.969
 -0.963  -0.957  -0.941  -0.931  -0.914  -0.907  -0.904  -0.892
 -0.843  -0.834  -0.829  -0.829  -0.816  -0.811  -0.808  -0.807
 -0.806  -0.804  -0.797  -0.792  -0.786  -0.779  -0.768  -0.767
 -0.749  -0.749  -0.738  -0.736  -0.725  -0.718  -0.709  -0.706
 -0.694  -0.690  -0.672  -0.669  -0.659  -0.650  -0.642  -0.641
 -0.634  -0.633  -0.626  -0.623  -0.610  -0.609  -0.599  -0.593
 -0.591  -0.589  -0.585  -0.578  -0.574  -0.571  -0.567  -0.560
 -0.553  -0.546  -0.541  -0.538  -0.523  -0.522  -0.513  -0.512
 -0.508  -0.506  -0.498  -0.489  -0.489  -0.480  -0.475  -0.475
 -0.472  -0.470  -0.468  -0.466  -0.463  -0.462  -0.454  -0.450
 -0.446  -0.444  -0.440  -0.436  -0.434  -0.432  -0.431  -0.430
 -0.426  -0.425  -0.419  -0.418  -0.418  -0.415  -0.414  -0.413
 -0.412  -0.408  -0.403  -0.401  -0.400  -0.396  -0.396  -0.395
 -0.393  -0.393  -0.389  -0.386  -0.385  -0.383  -0.383  -0.380
 -0.378  -0.377  -0.373  -0.371  -0.369  -0.363  -0.358  -0.351
 -0.351  -0.350  -0.349  -0.348  -0.347  -0.346  -0.342  -0.341
 -0.337  -0.335  -0.334  -0.330  -0.325  -0.324  -0.323  -0.318
 -0.315  -0.309  -0.307  -0.303  -0.301  -0.300  -0.296  -0.295
 -0.294  -0.293  -0.292  -0.291  -0.288  -0.286  -0.284  -0.281
 -0.277  -0.269  -0.269  -0.265  -0.253  -0.250  -0.249  -0.247
 -0.245  -0.238  -0.231  -0.228  -0.192  -0.187

          Ground-State Mulliken Net Atomic Charges

     Atom                 Charge (a.u.)
  ----------------------------------------
      1 C                     0.255751
      2 C                    -0.129640
      3 N                    -0.476652
      4 C                    -0.058351
      5 C                     0.085419
      6 C                     0.025991
      7 C                     0.059471
      8 C                     0.034894
      9 C                     0.173025
     10 N                    -0.507848
     11 N                    -0.537221
     12 C                     0.219529
     13 C                     0.303864
     14 S                     0.597919
     15 N                    -0.549174
     16 C                    -0.234215
     17 S                     0.328205
     18 C                    -0.099975
     19 C                    -0.222376
     20 S                     0.266030
     21 C                     0.156400
     22 C                     0.052766
     23 C                    -0.307514
     24 C                    -0.053128
     25 N                    -0.437748
     26 S                     0.268736
     27 C                     0.136573
     28 C                    -0.311047
     29 C                    -0.212197
     30 H                     0.091014
     31 H                     0.107971
     32 H                     0.123565
     33 H                     0.099376
     34 H                     0.129245
     35 H                     0.123140
     36 H                     0.112767
     37 H                     0.137741
     38 H                     0.119573
     39 C                    -0.170947
     40 H                     0.093113
     41 H                     0.116713
     42 H                     0.088574
     43 C                    -0.177008
     44 H                     0.096533
     45 C                    -0.187233
     46 H                     0.090198
     47 H                     0.087395
     48 H                     0.087973
     49 C                    -0.174912
     50 H                     0.105367
     51 C                    -0.320199
     52 H                     0.096926
     53 H                     0.102667
     54 H                     0.095573
     55 H                     0.103407
     56 C                     0.300625
     57 C                    -0.116716
     58 N                    -0.500224
     59 C                    -0.105415
     60 C                     0.092734
     61 C                     0.051566
     62 C                     0.075637
     63 C                     0.041607
     64 C                     0.227067
     65 N                    -0.549946
     66 N                    -0.566805
     67 C                     0.182947
     68 C                     0.343885
     69 S                     0.607162
     70 N                    -0.566610
     71 C                    -0.232368
     72 S                     0.325264
     73 C                    -0.112023
     74 C                    -0.216789
     75 S                     0.275598
     76 C                     0.155323
     77 C                     0.046727
     78 C                    -0.290955
     79 C                    -0.082702
     80 N                    -0.422254
     81 S                     0.276133
     82 C                     0.110778
     83 C                    -0.295151
     84 C                    -0.243990
     85 H                     0.095797
     86 H                     0.103148
     87 H                     0.116803
     88 H                     0.114263
     89 H                     0.132169
     90 H                     0.119623
     91 H                     0.116023
     92 H                     0.130199
     93 H                     0.100919
     94 C                    -0.179155
     95 H                     0.123810
     96 H                     0.125185
     97 H                     0.092126
     98 C                    -0.186410
     99 H                     0.098164
    100 C                    -0.176922
    101 H                     0.087973
    102 H                     0.092527
    103 H                     0.091009
    104 C                    -0.182580
    105 H                     0.087806
    106 C                    -0.322760
    107 H                     0.089708
    108 H                     0.107327
    109 H                     0.103292
    110 H                     0.102833
  ----------------------------------------
  Sum of atomic charges =     0.000000

                    Cartesian Multipole Moments
 -----------------------------------------------------------------
    Charge (ESU x 10^10)
                 0.0000
    Dipole Moment (Debye)
         X      -0.7542      Y       1.7291      Z      -1.2181
       Tot       2.2455
    Quadrupole Moments (Debye-Ang)
        XX    -430.3164     XY      10.5285     YY    -418.2838
        XZ      -6.6102     YZ      19.3050     ZZ    -413.0110

 Total job time:  78.30s(wall), 909.07s(cpu)
        *  Thank you very much for using Q-Chem.  Have a nice day.  *
