 Q-Chem 4.4, Q-Chem, Inc., Pleasanton, CA (2016)
 Q-Chem 4.4.2 for Intel X86 Linux

User input:
--------------------------------------------------------------
$comment
SP
$end

$rem
MEM_STATIC 5000
MEM_TOTAL 20000
JOBTYPE SP
EXCHANGE B3LYP
BASIS 6-31g(d,p)
$end

$molecule
0 1
C          10.913000     23.372000      2.705000
C          11.901000     23.622000      3.661000
N           9.735000     22.771000      3.015000
C          11.637000     23.244000      4.988000
C           9.519000     22.365000      4.290000
C          10.437000     22.604000      5.339000
C          10.235000     22.070000      6.776000
C          10.887000     22.741000      7.826000
C           9.390000     21.000000      7.130000
N          10.772000     22.408000      9.106000
N           8.629000     20.218000      6.214000
C           9.322000     20.600000      8.495000
C           9.983000     21.317000      9.487000
S           7.962000     19.081000      7.234000
N           8.482000     19.510000      8.612000
C           9.683000     21.077000     10.940000
S           8.312000     20.128000     11.605000
C          10.232000     21.810000     11.960000
C           8.554000     20.810000     13.217000
S          11.492000     23.036000     11.934000
C           9.633000     21.651000     13.187000
C           7.683000     20.762000     14.375000
C          11.272000     23.287000     13.704000
C          10.297000     22.442000     14.193000
N           8.113000     20.975000     15.583000
S           5.942000     20.429000     14.272000
C           7.077000     20.839000     16.471000
C           5.867000     20.719000     15.967000
C          11.019000     23.962000      1.271000
H          12.820000     24.094000      3.327000
H          12.384000     23.409000      5.759000
H           8.613000     21.821000      4.557000
H          11.469000     23.659000      7.745000
H          11.841000     23.909000     14.382000
H          10.022000     22.441000     15.241000
H           7.116000     20.820000     17.552000
H           4.920000     20.686000     16.491000
H          11.457000     24.967000      1.248000
C           9.672000     24.000000      0.446000
H          11.791000     23.396000      0.736000
H           9.083000     24.844000      0.826000
H           9.135000     23.062000      0.636000
C           9.942000     24.301000     -1.075000
H          10.550000     25.211000     -1.155000
C           8.672000     24.539000     -1.984000
H          10.656000     23.516000     -1.352000
H           8.390000     25.564000     -1.711000
H           7.826000     23.999000     -1.541000
C           8.893000     24.418000     -3.522000
H           9.453000     25.287000     -3.888000
C           7.514000     24.402000     -4.306000
H           9.446000     23.479000     -3.654000
H           7.087000     25.361000     -3.987000
H           6.925000     23.553000     -3.939000
H           7.784000     24.307000     -5.366000
C          -7.003000     27.352000      8.610000
C          -5.934000     26.916000      7.812000
N          -6.884000     27.590000      9.933000
C          -4.733000     26.634000      8.485000
C          -5.755000     27.278000     10.548000
C          -4.645000     26.808000      9.917000
C          -3.481000     26.246000     10.708000
C          -2.702000     25.222000     10.233000
C          -3.145000     26.717000     11.964000
N          -1.610000     24.776000     10.911000
N          -3.741000     27.754000     12.606000
C          -2.082000     26.200000     12.730000
C          -1.315000     25.183000     12.135000
S          -3.096000     27.888000     14.108000
N          -1.870000     26.803000     13.964000
C          -0.211000     24.558000     12.903000
S          -0.104000     24.688000     14.713000
C           0.675000     23.600000     12.496000
C           1.436000     23.822000     14.724000
S           0.730000     22.733000     10.940000
C           1.628000     23.246000     13.424000
C           2.335000     23.544000     15.814000
C           2.258000     22.055000     11.548000
C           2.438000     22.184000     12.913000
N           3.622000     23.373000     15.561000
S           1.851000     24.066000     17.434000
C           4.289000     23.576000     16.777000
C           3.476000     23.822000     17.826000
C          -8.286000     27.507000      7.853000
H          -6.087000     26.742000      6.751000
H          -3.865000     26.394000      7.879000
H          -5.845000     27.266000     11.633000
H          -2.963000     24.730000      9.297000
H           2.860000     21.520000     10.826000
H           3.259000     21.826000     13.523000
H           5.369000     23.623000     16.805000
H           3.752000     24.027000     18.852000
H          -7.966000     27.669000      6.816000
C          -9.435000     28.396000      8.337000
H          -8.770000     26.524000      7.901000
H          -9.387000     28.664000      9.400000
H         -10.439000     27.981000      8.180000
C          -9.377000     29.764000      7.600000
H          -8.408000     30.254000      7.762000
C         -10.568000     30.689000      8.005000
H          -9.455000     29.614000      6.517000
H         -10.611000     30.895000      9.081000
H         -11.534000     30.323000      7.635000
C         -10.552000     32.056000      7.324000
H          -9.474000     32.261000      7.295000
C         -11.455000     33.079000      8.062000
H         -10.879000     32.021000      6.278000
H         -11.110000     34.116000      7.974000
H         -11.595000     32.689000      9.078000
H         -12.450000     33.031000      7.602000
$end

--------------------------------------------------------------

             Standard Nuclear Orientation (Angstroms)
    I     Atom           X                Y                Z
 ----------------------------------------------------------------
    1      C       8.7274991054    -5.7585674719    -0.9941363402
    2      C       9.3467209584    -4.7661869506    -1.7585480080
    3      N       7.7821799241    -5.4753390887    -0.0607884263
    4      C       8.9487910602    -3.4354535296    -1.5480501259
    5      C       7.4487631781    -4.1813751380     0.1663845644
    6      C       7.9876415799    -3.1064148277    -0.5781397129
    7      C       7.6755340804    -1.6240773875    -0.2679887465
    8      C       7.8251454607    -0.6879169701    -1.3067693334
    9      C       7.1837996827    -1.1408476622     0.9603952793
   10      N       7.5588512992     0.6069586072    -1.1847092705
   11      N       6.9428833459    -1.9362560332     2.1175408372
   12      C       6.9650211855     0.2581858734     1.1110277302
   13      C       7.1198037450     1.1287559170     0.0371449812
   14      S       6.4951852537    -0.7726838125     3.2237614777
   15      N       6.5350419759     0.5190829603     2.3972779350
   16      C       6.6157073382     2.5425777746     0.1133261325
   17      S       5.5344775609     3.2245963424     1.3735879473
   18      C       6.6563833278     3.4210827549    -0.9381796750
   19      C       5.1845154507     4.6429275661     0.3795582389
   20      S       7.4067662902     3.2717316237    -2.5212057801
   21      C       5.8988440289     4.5577936096    -0.7844472988
   22      C       4.1548188012     5.6498817080     0.5459227964
   23      C       6.7438371698     4.8830836434    -2.9776821212
   24      C       6.0285679880     5.4244431726    -1.9293067791
   25      N       4.2207588613     6.8179832024    -0.0204020286
   26      S       2.6908599068     5.3956328511     1.5179109004
   27      C       3.1266603028     7.5642525635     0.3350784701
   28      C       2.1638702838     6.9451135807     0.9848617413
   29      C       8.9320825842    -7.2644515153    -1.3199443330
   30      H      10.1027650756    -5.0764838865    -2.4734005133
   31      H       9.4147670483    -2.6330431433    -2.1125666892
   32      H       6.7430723101    -3.9164221108     0.9536972673
   33      H       8.0684224642    -0.9077393692    -2.3462419941
   34      H       6.9129223977     5.4622210846    -3.8756459344
   35      H       5.5534373083     6.3949047353    -2.0092141784
   36      H       2.9386858374     8.6131923960     0.1484402423
   37      H       1.1943737380     7.3287648718     1.2770297315
   38      H       9.0016770697    -7.4688882620    -2.3950072261
   39      C       7.8588960082    -8.2486323542    -0.7066445293
   40      H       9.9443295566    -7.5383762146    -0.9991853487
   41      H       6.9542931780    -8.1657785411    -1.3218566595
   42      H       7.6404188567    -7.9131472155     0.3151335562
   43      C       8.3294709114    -9.7465318999    -0.8152641016
   44      H       8.5990783265    -9.9599570957    -1.8573416071
   45      C       7.2777154850   -10.8491148723    -0.3981953877
   46      H       9.3070540588    -9.7276646889    -0.3185496783
   47      H       6.6168751299   -10.8711253418    -1.2742567808
   48      H       6.5882720025   -10.4078363877     0.3322195515
   49      C       7.8485487861   -12.2685642795    -0.1011453538
   50      H       8.1487544466   -12.7535384340    -1.0378382762
   51      C       6.7553887401   -13.2046814053     0.5661168439
   52      H       8.6991962480   -12.0950647085     0.5706066797
   53      H       5.9738427818   -13.1862081378    -0.2036984932
   54      H       6.4216472799   -12.7274711406     1.4952551550
   55      H       7.2606991334   -14.1642833451     0.7374367888
   56      C     -10.3057426492    -3.4599125042     1.0416373834
   57      C      -9.0085849627    -3.9777506753     1.1790657829
   58      N     -10.5580630354    -2.2293021196     0.5486196312
   59      C      -7.9551399477    -3.1007713490     0.8692031333
   60      C      -9.5482742553    -1.4105949859     0.3031501856
   61      C      -8.2376373954    -1.7541944483     0.4269703408
   62      C      -7.1493116103    -0.7015002609     0.3653024120
   63      C      -5.9897307743    -0.8067403679     1.0901050089
   64      C      -7.2664225054     0.4380372821    -0.4093021492
   65      N      -4.9823430150     0.0997273306     0.9694807410
   66      N      -8.2979890953     0.7254101189    -1.2435900031
   67      C      -6.2805568566     1.4422378605    -0.4698341303
   68      C      -5.1087894200     1.2183448014     0.2740986439
   69      S      -8.0708365388     2.2241553859    -1.8698082882
   70      N      -6.5510657331     2.5121501076    -1.3144770912
   71      C      -4.0494860722     2.2559622724     0.2962662134
   72      S      -4.3802576885     3.9790303881    -0.1792076624
   73      C      -2.8283401928     2.2146850983     0.9090532369
   74      C      -2.6788301379     4.4058204672     0.0321487161
   75      S      -2.1556808585     0.9347760194     1.9507884095
   76      C      -2.0326001085     3.3205711956     0.7127813392
   77      C      -1.9926340431     5.6418668702    -0.2415467516
   78      C      -0.6554469956     1.8886274399     1.8908065444
   79      C      -0.8241569078     3.1940474009     1.4669177725
   80      N      -0.7003780266     5.6136816428    -0.5224363750
   81      S      -2.9568236359     7.0082322179    -0.8199273925
   82      C      -0.4153028004     6.8239026168    -1.1696236042
   83      C      -1.4672234025     7.6632664617    -1.2736302513
   84      C     -11.3739363605    -4.3981971499     1.5125377111
   85      H      -8.8647183254    -4.9764900295     1.5805979647
   86      H      -6.9490739842    -3.5083141451     0.8695857774
   87      H      -9.8578258766    -0.3769244689     0.1576439789
   88      H      -5.8648756205    -1.6234986090     1.7997515168
   89      H       0.2302086460     1.4045280303     2.2796186407
   90      H      -0.0805039909     3.9773819978     1.3793263998
   91      H       0.5540258445     6.9854656761    -1.6209464998
   92      H      -1.5011701365     8.6375338490    -1.7432339962
   93      H     -10.9138775891    -5.3906947295     1.4270539029
   94      C     -12.8296634523    -4.3018623904     1.0473966054
   95      H     -11.4984472383    -4.1812323416     2.5803730511
   96      H     -13.1018511263    -3.3379790289     0.5991335848
   97      H     -13.5783034213    -4.4887199604     1.8281093856
   98      C     -13.0785755571    -5.3312111712    -0.0912169601
   99      H     -12.3882843532    -5.1623006164    -0.9280396882
  100      C     -14.5681052433    -5.3251414973    -0.5596136649
  101      H     -12.8692548997    -6.3467304885     0.2642804079
  102      H     -14.9057622031    -4.3461595244    -0.9196734851
  103      H     -15.2529703263    -5.7233842100     0.1995796965
  104      C     -14.8671451028    -6.3060959179    -1.6914306055
  105      H     -13.9405344125    -6.2375636809    -2.2759354911
  106      C     -16.1961699346    -5.9645650089    -2.4150545649
  107      H     -14.9327848442    -7.3473334013    -1.3541089084
  108      H     -16.2088164304    -6.2517399356    -3.4731229123
  109      H     -16.4100747216    -4.9131379645    -2.1854855941
  110      H     -16.9951927101    -6.5296584745    -1.9189084379
 ----------------------------------------------------------------

   10   -5663.4817793678      4.23E-06 Convergence criterion met
 Total energy in the final basis set = -5663.4817793678

                    Orbital Energies (a.u.)
 --------------------------------------------------------------

 Alpha MOs
 -- Occupied --
-88.997 -88.990 -88.930 -88.927 -88.924 -88.920 -88.908 -88.908
-14.389 -14.389 -14.386 -14.379 -14.352 -14.352 -14.348 -14.345
-14.328 -14.326 -10.273 -10.272 -10.269 -10.262 -10.262 -10.260
-10.254 -10.253 -10.246 -10.243 -10.243 -10.241 -10.240 -10.239
-10.232 -10.231 -10.231 -10.230 -10.227 -10.227 -10.225 -10.224
-10.224 -10.222 -10.222 -10.222 -10.221 -10.218 -10.217 -10.215
-10.214 -10.211 -10.206 -10.205 -10.201 -10.199 -10.197 -10.193
-10.188 -10.188 -10.180 -10.179 -10.177 -10.176 -10.175 -10.174
-10.174 -10.172 -10.171 -10.170  -8.053  -8.045  -7.990  -7.989
 -7.982  -7.982  -7.967  -7.966  -6.017  -6.012  -6.011  -6.010
 -6.004  -6.003  -5.953  -5.953  -5.950  -5.949  -5.947  -5.947
 -5.946  -5.945  -5.943  -5.942  -5.939  -5.939  -5.932  -5.931
 -5.929  -5.927  -5.923  -5.922  -1.042  -1.028  -0.981  -0.974
 -0.961  -0.954  -0.943  -0.930  -0.915  -0.908  -0.896  -0.895
 -0.840  -0.838  -0.832  -0.826  -0.821  -0.817  -0.811  -0.809
 -0.807  -0.794  -0.794  -0.790  -0.788  -0.777  -0.770  -0.765
 -0.751  -0.747  -0.740  -0.736  -0.727  -0.722  -0.708  -0.705
 -0.694  -0.692  -0.678  -0.673  -0.661  -0.651  -0.645  -0.644
 -0.637  -0.634  -0.626  -0.623  -0.611  -0.607  -0.595  -0.593
 -0.590  -0.588  -0.578  -0.576  -0.575  -0.573  -0.568  -0.566
 -0.550  -0.550  -0.543  -0.541  -0.526  -0.518  -0.516  -0.514
 -0.510  -0.506  -0.500  -0.493  -0.483  -0.483  -0.478  -0.478
 -0.473  -0.471  -0.468  -0.465  -0.462  -0.460  -0.454  -0.452
 -0.448  -0.443  -0.442  -0.437  -0.436  -0.435  -0.431  -0.428
 -0.427  -0.426  -0.422  -0.422  -0.419  -0.417  -0.414  -0.414
 -0.412  -0.406  -0.404  -0.403  -0.402  -0.398  -0.398  -0.397
 -0.396  -0.394  -0.390  -0.389  -0.387  -0.383  -0.382  -0.380
 -0.378  -0.376  -0.371  -0.369  -0.368  -0.363  -0.355  -0.352
 -0.352  -0.351  -0.350  -0.349  -0.346  -0.342  -0.342  -0.339
 -0.337  -0.334  -0.332  -0.328  -0.328  -0.325  -0.319  -0.314
 -0.313  -0.308  -0.308  -0.306  -0.304  -0.304  -0.300  -0.298
 -0.297  -0.294  -0.293  -0.291  -0.289  -0.287  -0.284  -0.281
 -0.274  -0.272  -0.268  -0.268  -0.255  -0.252  -0.250  -0.249
 -0.244  -0.242  -0.234  -0.231  -0.197  -0.191

          Ground-State Mulliken Net Atomic Charges

     Atom                 Charge (a.u.)
  ----------------------------------------
      1 C                     0.280837
      2 C                    -0.112568
      3 N                    -0.501482
      4 C                    -0.088124
      5 C                     0.086996
      6 C                     0.044800
      7 C                     0.028780
      8 C                     0.061754
      9 C                     0.201653
     10 N                    -0.519499
     11 N                    -0.568185
     12 C                     0.185355
     13 C                     0.294971
     14 S                     0.633377
     15 N                    -0.520659
     16 C                    -0.227022
     17 S                     0.326168
     18 C                    -0.114845
     19 C                    -0.237869
     20 S                     0.279841
     21 C                     0.166681
     22 C                     0.058560
     23 C                    -0.310611
     24 C                    -0.055681
     25 N                    -0.439576
     26 S                     0.257728
     27 C                     0.117550
     28 C                    -0.281004
     29 C                    -0.254092
     30 H                     0.092217
     31 H                     0.096171
     32 H                     0.127465
     33 H                     0.123073
     34 H                     0.128708
     35 H                     0.125455
     36 H                     0.109877
     37 H                     0.140904
     38 H                     0.107937
     39 C                    -0.173466
     40 H                     0.108824
     41 H                     0.094985
     42 H                     0.127180
     43 C                    -0.189823
     44 H                     0.084822
     45 C                    -0.184272
     46 H                     0.085482
     47 H                     0.089466
     48 H                     0.095041
     49 C                    -0.184915
     50 H                     0.097163
     51 C                    -0.313448
     52 H                     0.097576
     53 H                     0.107503
     54 H                     0.108993
     55 H                     0.103164
     56 C                     0.301049
     57 C                    -0.116488
     58 N                    -0.499898
     59 C                    -0.104872
     60 C                     0.092723
     61 C                     0.051779
     62 C                     0.076334
     63 C                     0.041589
     64 C                     0.226232
     65 N                    -0.550954
     66 N                    -0.564963
     67 C                     0.182767
     68 C                     0.342966
     69 S                     0.610063
     70 N                    -0.567837
     71 C                    -0.230534
     72 S                     0.328064
     73 C                    -0.113527
     74 C                    -0.216234
     75 S                     0.275128
     76 C                     0.156676
     77 C                     0.044537
     78 C                    -0.295481
     79 C                    -0.082243
     80 N                    -0.423366
     81 S                     0.276869
     82 C                     0.104879
     83 C                    -0.299791
     84 C                    -0.244304
     85 H                     0.096678
     86 H                     0.102892
     87 H                     0.117022
     88 H                     0.114948
     89 H                     0.127816
     90 H                     0.127539
     91 H                     0.124259
     92 H                     0.131083
     93 H                     0.101336
     94 C                    -0.179340
     95 H                     0.124407
     96 H                     0.125140
     97 H                     0.092529
     98 C                    -0.186096
     99 H                     0.097910
    100 C                    -0.177094
    101 H                     0.088175
    102 H                     0.092452
    103 H                     0.091198
    104 C                    -0.182094
    105 H                     0.087563
    106 C                    -0.322918
    107 H                     0.089801
    108 H                     0.107430
    109 H                     0.103292
    110 H                     0.102996
  ----------------------------------------
  Sum of atomic charges =     0.000000

                    Cartesian Multipole Moments
 -----------------------------------------------------------------
    Charge (ESU x 10^10)
                 0.0000
    Dipole Moment (Debye)
         X      -0.8512      Y       1.8477      Z      -0.2274
       Tot       2.0470
    Quadrupole Moments (Debye-Ang)
        XX    -448.9195     XY      -3.2718     YY    -403.4473
        XZ     -18.6405     YZ      -8.0564     ZZ    -435.0135

 Total job time:  86.33s(wall), 1009.59s(cpu)
        *  Thank you very much for using Q-Chem.  Have a nice day.  *
