 Q-Chem 4.4, Q-Chem, Inc., Pleasanton, CA (2016)
 Q-Chem 4.4.2 for Intel X86 Linux

User input:
--------------------------------------------------------------
$comment
SP
$end

$rem
MEM_STATIC 5000
MEM_TOTAL 20000
JOBTYPE SP
EXCHANGE B3LYP
BASIS 6-31g(d,p)
$end

$molecule
0 1
C          33.022000    -26.133000      0.476000
C          32.247000    -27.344000      0.252000
N          32.756000    -25.285000      1.487000
C          31.040000    -27.441000      0.883000
C          31.570000    -25.449000      2.111000
C          30.660000    -26.496000      1.862000
C          29.292000    -26.476000      2.574000
C          29.165000    -25.979000      3.884000
C          28.087000    -27.045000      1.993000
N          27.981000    -25.913000      4.552000
N          28.037000    -27.663000      0.781000
C          26.883000    -27.013000      2.708000
C          26.899000    -26.440000      3.979000
S          26.534000    -28.076000      0.613000
N          25.936000    -27.671000      2.041000
C          25.655000    -26.247000      4.741000
S          24.130000    -27.104000      4.443000
C          25.418000    -25.182000      5.558000
C          23.184000    -25.958000      5.405000
S          26.452000    -23.970000      6.319000
C          24.038000    -24.959000      5.826000
C          21.729000    -25.870000      5.464000
C          24.989000    -23.192000      7.006000
C          23.830000    -23.895000      6.719000
N          21.136000    -26.788000      4.738000
S          20.695000    -24.515000      5.862000
C          19.838000    -26.427000      4.426000
C          19.444000    -25.217000      4.946000
C          34.388000    -25.996000     -0.224000
H          32.606000    -28.052000     -0.489000
H          30.378000    -28.260000      0.616000
H          31.375000    -24.720000      2.896000
H          30.021000    -25.546000      4.400000
H          25.128000    -22.326000      7.639000
H          22.843000    -23.615000      7.069000
H          19.123000    -27.085000      3.950000
H          18.487000    -24.761000      4.728000
H          34.991000    -25.153000      0.135000
C          34.060000    -25.794000     -1.675000
H          35.029000    -26.875000     -0.089000
H          33.437000    -24.893000     -1.721000
H          33.437000    -26.596000     -2.090000
C          35.319000    -25.447000     -2.515000
H          35.023000    -25.249000     -3.553000
C          36.362000    -26.570000     -2.441000
H          35.675000    -24.460000     -2.195000
H          36.694000    -26.669000     -1.400000
H          37.336000    -26.284000     -2.857000
C          36.066000    -27.955000     -3.099000
H          35.057000    -28.372000     -2.996000
C          37.084000    -29.074000     -2.696000
H          36.248000    -27.847000     -4.175000
H          36.639000    -30.050000     -2.926000
H          37.311000    -29.031000     -1.623000
H          38.035000    -28.821000     -3.181000
C          16.490000    -22.127000     -0.974000
C          16.579000    -21.906000      0.348000
N          16.450000    -23.368000     -1.490000
C          16.753000    -22.950000      1.248000
C          16.684000    -24.391000     -0.657000
C          16.815000    -24.321000      0.758000
C          16.804000    -25.510000      1.621000
C          15.925000    -25.507000      2.744000
C          17.488000    -26.718000      1.399000
N          15.684000    -26.570000      3.460000
N          18.439000    -26.880000      0.391000
C          17.250000    -27.796000      2.215000
C          16.314000    -27.690000      3.227000
S          19.082000    -28.305000      0.716000
N          18.172000    -28.756000      1.981000
C          15.953000    -28.730000      4.251000
S          15.133000    -28.336000      5.714000
C          15.994000    -30.098000      4.114000
C          15.030000    -30.020000      6.246000
S          16.312000    -31.109000      2.695000
C          15.469000    -30.822000      5.220000
C          14.438000    -30.368000      7.465000
C          15.902000    -32.521000      3.730000
C          15.380000    -32.212000      4.979000
N          14.338000    -31.643000      7.883000
S          13.672000    -29.232000      8.479000
C          13.603000    -31.682000      9.080000
C          13.104000    -30.467000      9.492000
C          16.466000    -20.976000     -2.038000
H          16.764000    -20.904000      0.725000
H          17.026000    -22.711000      2.272000
H          16.716000    -25.349000     -1.174000
H          15.338000    -24.629000      3.009000
H          16.041000    -33.476000      3.240000
H          15.108000    -32.973000      5.701000
H          13.472000    -32.602000      9.634000
H          12.648000    -30.278000     10.455000
H          16.780000    -20.058000     -1.525000
C          15.025000    -20.700000     -2.543000
H          17.160000    -21.158000     -2.868000
H          14.649000    -21.449000     -3.252000
H          14.905000    -19.847000     -3.221000
C          13.955000    -20.586000     -1.366000
H          12.976000    -20.311000     -1.777000
C          14.072000    -19.343000     -0.459000
H          13.819000    -21.535000     -0.832000
H          13.909000    -18.485000     -1.122000
H          15.014000    -19.151000      0.070000
C          13.016000    -19.411000      0.616000
H          12.019000    -19.749000      0.304000
C          12.976000    -18.046000      1.315000
H          13.394000    -20.087000      1.392000
H          13.928000    -17.754000      1.775000
H          12.256000    -17.985000      2.141000
H          12.817000    -17.258000      0.569000
$end

--------------------------------------------------------------

             Standard Nuclear Orientation (Angstroms)
    I     Atom           X                Y                Z
 ----------------------------------------------------------------
    1      C     -11.4865736037    -0.2043043967     0.0301918787
    2      C     -10.7600099812     0.4863527906    -1.0245213299
    3      N     -11.0397454059    -0.2529955495     1.2990317950
    4      C      -9.4548564494     0.8051809765    -0.7809195109
    5      C      -9.7560979554     0.1154948117     1.4973549565
    6      C      -8.9027732761     0.6475534242     0.5099033757
    7      C      -7.4249762762     0.9072081616     0.8669236054
    8      C      -7.0558001586     1.3333745877     2.1558491934
    9      C      -6.3478885728     0.8265236683    -0.1060713030
   10      N      -5.7673006997     1.5532864588     2.5351167948
   11      N      -6.5239386793     0.5324840204    -1.4236125910
   12      C      -5.0306402728     1.0995500294     0.2840293535
   13      C      -4.8097530623     1.4609227176     1.6124286235
   14      S      -5.0771561059     0.5541334616    -2.0270639040
   15      N      -4.2225724908     1.0656492060    -0.7745258854
   16      C      -3.4453927820     1.6349047849     2.1355732171
   17      S      -1.9986862513     1.9127576560     1.1462724559
   18      C      -3.0651456713     1.3013921658     3.4013000705
   19      C      -0.8953568380     1.5187840648     2.4733463103
   20      S      -3.9444904181     0.9802494067     4.8982440055
   21      C      -1.6608538675     1.1246252746     3.5518689785
   22      C       0.5439413054     1.3047531673     2.3691271690
   23      C      -2.3830954165     0.6305412144     5.7090287052
   24      C      -1.2947047394     0.8433188983     4.8783721027
   25      N       0.9949476037     1.4779423529     1.1492715116
   26      S       1.6256613784     0.3847224653     3.3923623282
   27      C       2.2081397858     0.8409930232     0.9623777433
   28      C       2.6854395617     0.1896849943     2.0749058443
   29      C     -12.9611645345    -0.5771428214    -0.2173926438
   30      H     -11.2480169577     0.6090918455    -1.9868156275
   31      H      -8.8499471502     1.1822585822    -1.6007921956
   32      H      -9.4209454410     0.0249969779     2.5294275965
   33      H      -7.8015940804     1.4335182338     2.9434047003
   34      H      -2.4055489418     0.3815008145     6.7613787982
   35      H      -0.2611804229     0.7239538327     5.1827542117
   36      H       2.8245165664     0.9564441695     0.0806092379
   37      H       3.5809455567    -0.4180395125     2.0679103703
   38      H     -13.4908993805    -0.9222433595     0.6789474767
   39      C     -12.9147953770    -1.6857503484    -1.2286434793
   40      H     -13.5593070473     0.2631208628    -0.5887812213
   41      H     -12.3176417006    -2.4846722424    -0.7734761539
   42      H     -12.3762796247    -1.4098412214    -2.1437570997
   43      C     -14.3121668951    -2.3212508596    -1.4622712614
   44      H     -14.2190951160    -3.1631067326    -2.1600393697
   45      C     -15.3149866830    -1.2813755268    -1.9794421861
   46      H     -14.6076804275    -2.8325367051    -0.5378452036
   47      H     -15.4434884598    -0.5090596611    -1.2108581003
   48      H     -16.3519289038    -1.6394692155    -1.9725327021
   49      C     -15.1397017055    -0.6696030535    -3.4055609110
   50      H     -14.1267231779    -0.4121781206    -3.7375035364
   51      C     -16.0557852735     0.5708836361    -3.6755195551
   52      H     -15.5225924130    -1.4059711962    -4.1223040062
   53      H     -15.6559323698     1.1190793971    -4.5375520737
   54      H     -16.0760614467     1.2411030067    -2.8065535764
   55      H     -17.0829750168     0.1918317798    -3.7450603451
   56      C       4.4463919016    -6.2759780455    -0.8259327089
   57      C       4.6075444846    -5.6032208170     0.3255331206
   58      N       4.3962115338    -5.6531302854    -2.0165122310
   59      C       4.6137071192    -4.2143305886     0.3595618636
   60      C       4.3306509209    -4.3149051554    -2.0110985813
   61      C       4.4691362736    -3.4625098210    -0.8803775720
   62      C       4.6509088667    -2.0089572905    -0.9933145706
   63      C       5.7263705761    -1.4161672532    -0.2682207261
   64      C       3.9451864467    -1.1352447949    -1.8388832200
   65      N       6.1053664885    -0.1807397760    -0.4436831068
   66      N       2.8218119645    -1.5246414432    -2.5690263724
   67      C       4.3402446988     0.1749395132    -1.9481080171
   68      C       5.4500128627     0.6117157541    -1.2487389173
   69      S       2.2612062554    -0.1456980220    -3.1468977076
   70      N       3.3969300314     0.8808340584    -2.6101581129
   71      C       6.0049335220     2.0079851755    -1.1940418914
   72      S       7.0841973932     2.5219331587     0.0465434409
   73      C       5.9477161001     2.9767776823    -2.1687424841
   74      C       7.2969539244     4.1356272426    -0.6464320722
   75      S       5.3737405789     2.9006089579    -3.8425275440
   76      C       6.6771133891     4.1614192112    -1.8727001854
   77      C       8.1110496732     5.0943280306    -0.0335129007
   78      C       5.9812896204     4.5830687126    -4.0249620144
   79      C       6.7280251314     5.0653073228    -2.9582858689
   80      N       8.2966275177     6.3228811604    -0.5498142380
   81      S       9.0475292352     4.7634321589     1.3517531214
   82      C       9.2449586034     7.0125927984     0.2244731817
   83      C       9.8049061236     6.2763015060     1.2439357398
   84      C       4.2612264907    -7.8311517464    -0.8939145499
   85      H       4.4906226008    -6.1117595408     1.2784631493
   86      H       4.5377138551    -3.7195145928     1.3237237556
   87      H       4.2077308336    -3.9007637346    -3.0108258120
   88      H       6.3471351908    -1.9973781765     0.4118698235
   89      H       5.7583884642     5.0253838944    -4.9873124467
   90      H       7.1366201464     6.0688525983    -2.9399557376
   91      H       9.4843718881     8.0503219190     0.0340091396
   92      H      10.4335361569     6.6791491499     2.0272390380
   93      H       4.0439019799    -8.1734544071     0.1259324707
   94      C       5.5788951924    -8.5422546031    -1.3010557048
   95      H       3.4240002349    -8.1257252198    -1.5388476202
   96      H       5.8189305805    -8.4606800946    -2.3691318313
   97      H       5.5629376869    -9.6381985739    -1.2824769324
   98      C       6.8513919913    -8.0247936563    -0.4909871489
   99      H       7.7331882285    -8.6177370982    -0.7627231801
  100      C       6.8998884065    -8.3936466509     1.0066718798
  101      H       7.0921226525    -6.9780155945    -0.7158369611
  102      H       6.9289579456    -9.4894230773     1.0337086181
  103      H       6.0736827795    -8.0895448160     1.6616339671
  104      C       8.1405404169    -7.7988849367     1.6250779699
  105      H       9.0627423306    -7.8614689686     1.0324365358
  106      C       8.3030698737    -8.4119316473     3.0219258164
  107      H       7.9205324261    -6.7445980548     1.8302892139
  108      H       7.4533428247    -8.2266828001     3.6903678908
  109      H       9.1658615787    -8.0303031093     3.5825925024
  110      H       8.3129742479    -9.5056685147     2.9420348378
 ----------------------------------------------------------------

    9   -5663.5074667345      8.62E-06 Convergence criterion met
 Total energy in the final basis set = -5663.5074667345

                    Orbital Energies (a.u.)
 --------------------------------------------------------------

 Alpha MOs
 -- Occupied --
-89.000 -88.992 -88.930 -88.922 -88.920 -88.918 -88.909 -88.909
-14.389 -14.386 -14.381 -14.381 -14.350 -14.350 -14.341 -14.340
-14.331 -14.330 -10.268 -10.265 -10.262 -10.262 -10.260 -10.258
-10.258 -10.252 -10.243 -10.240 -10.239 -10.239 -10.235 -10.233
-10.233 -10.233 -10.231 -10.230 -10.230 -10.230 -10.229 -10.229
-10.228 -10.227 -10.226 -10.226 -10.226 -10.224 -10.224 -10.221
-10.217 -10.209 -10.205 -10.203 -10.202 -10.199 -10.199 -10.198
-10.193 -10.185 -10.184 -10.181 -10.181 -10.180 -10.180 -10.179
-10.178 -10.177 -10.176 -10.172  -8.056  -8.049  -7.991  -7.985
 -7.981  -7.976  -7.969  -7.968  -6.021  -6.015  -6.014  -6.014
 -6.008  -6.007  -5.955  -5.951  -5.949  -5.948  -5.945  -5.945
 -5.942  -5.941  -5.941  -5.937  -5.937  -5.933  -5.933  -5.933
 -5.930  -5.929  -5.925  -5.924  -1.058  -1.050  -0.987  -0.972
 -0.963  -0.961  -0.945  -0.936  -0.914  -0.913  -0.906  -0.905
 -0.847  -0.841  -0.838  -0.830  -0.818  -0.813  -0.811  -0.810
 -0.809  -0.807  -0.802  -0.798  -0.791  -0.781  -0.772  -0.768
 -0.751  -0.747  -0.744  -0.739  -0.721  -0.718  -0.713  -0.711
 -0.697  -0.693  -0.684  -0.676  -0.660  -0.654  -0.654  -0.649
 -0.640  -0.634  -0.631  -0.625  -0.617  -0.607  -0.600  -0.597
 -0.593  -0.592  -0.590  -0.587  -0.583  -0.576  -0.568  -0.558
 -0.555  -0.549  -0.545  -0.542  -0.527  -0.523  -0.518  -0.516
 -0.511  -0.507  -0.505  -0.499  -0.490  -0.486  -0.484  -0.481
 -0.479  -0.478  -0.475  -0.471  -0.469  -0.461  -0.454  -0.453
 -0.446  -0.440  -0.439  -0.437  -0.437  -0.436  -0.435  -0.432
 -0.432  -0.429  -0.428  -0.426  -0.422  -0.420  -0.420  -0.416
 -0.412  -0.412  -0.407  -0.404  -0.401  -0.401  -0.399  -0.399
 -0.398  -0.396  -0.395  -0.390  -0.390  -0.388  -0.386  -0.385
 -0.379  -0.378  -0.374  -0.370  -0.364  -0.360  -0.360  -0.355
 -0.354  -0.354  -0.351  -0.350  -0.347  -0.343  -0.342  -0.341
 -0.340  -0.338  -0.334  -0.331  -0.328  -0.328  -0.320  -0.319
 -0.316  -0.315  -0.314  -0.311  -0.311  -0.309  -0.306  -0.304
 -0.299  -0.298  -0.290  -0.289  -0.287  -0.285  -0.283  -0.281
 -0.280  -0.277  -0.276  -0.268  -0.259  -0.255  -0.252  -0.252
 -0.242  -0.240  -0.234  -0.230  -0.195  -0.193

          Ground-State Mulliken Net Atomic Charges

     Atom                 Charge (a.u.)
  ----------------------------------------
      1 C                     0.249170
      2 C                    -0.111098
      3 N                    -0.475909
      4 C                    -0.062613
      5 C                     0.060860
      6 C                     0.042203
      7 C                     0.046448
      8 C                     0.045723
      9 C                     0.175941
     10 N                    -0.523701
     11 N                    -0.534074
     12 C                     0.260336
     13 C                     0.294815
     14 S                     0.612473
     15 N                    -0.555057
     16 C                    -0.245341
     17 S                     0.352105
     18 C                    -0.097171
     19 C                    -0.203144
     20 S                     0.274950
     21 C                     0.112934
     22 C                     0.052463
     23 C                    -0.313980
     24 C                    -0.065378
     25 N                    -0.422035
     26 S                     0.282584
     27 C                     0.104438
     28 C                    -0.312150
     29 C                    -0.214555
     30 H                     0.095439
     31 H                     0.115534
     32 H                     0.096964
     33 H                     0.117211
     34 H                     0.131551
     35 H                     0.106497
     36 H                     0.117764
     37 H                     0.137013
     38 H                     0.113345
     39 C                    -0.184307
     40 H                     0.113694
     41 H                     0.102209
     42 H                     0.096702
     43 C                    -0.186671
     44 H                     0.088246
     45 C                    -0.174621
     46 H                     0.095933
     47 H                     0.092053
     48 H                     0.084827
     49 C                    -0.186421
     50 H                     0.090320
     51 C                    -0.320440
     52 H                     0.101577
     53 H                     0.104600
     54 H                     0.101791
     55 H                     0.106497
     56 C                     0.266788
     57 C                    -0.099425
     58 N                    -0.469230
     59 C                    -0.097394
     60 C                     0.083904
     61 C                     0.030083
     62 C                     0.016611
     63 C                     0.059728
     64 C                     0.188159
     65 N                    -0.492433
     66 N                    -0.530080
     67 C                     0.235663
     68 C                     0.279699
     69 S                     0.646158
     70 N                    -0.552468
     71 C                    -0.226100
     72 S                     0.310396
     73 C                    -0.115756
     74 C                    -0.226363
     75 S                     0.258894
     76 C                     0.155624
     77 C                     0.065463
     78 C                    -0.300765
     79 C                    -0.052416
     80 N                    -0.457060
     81 S                     0.279867
     82 C                     0.108474
     83 C                    -0.300753
     84 C                    -0.207985
     85 H                     0.091883
     86 H                     0.100397
     87 H                     0.107985
     88 H                     0.114447
     89 H                     0.129750
     90 H                     0.134750
     91 H                     0.114166
     92 H                     0.134876
     93 H                     0.095788
     94 C                    -0.186744
     95 H                     0.117314
     96 H                     0.106806
     97 H                     0.090023
     98 C                    -0.191887
     99 H                     0.092322
    100 C                    -0.160268
    101 H                     0.102154
    102 H                     0.089795
    103 H                     0.081499
    104 C                    -0.173422
    105 H                     0.095722
    106 C                    -0.322365
    107 H                     0.096935
    108 H                     0.097088
    109 H                     0.095091
    110 H                     0.100072
  ----------------------------------------
  Sum of atomic charges =     0.000000

                    Cartesian Multipole Moments
 -----------------------------------------------------------------
    Charge (ESU x 10^10)
                 0.0000
    Dipole Moment (Debye)
         X       1.6302      Y      -1.1244      Z      -0.1987
       Tot       1.9903
    Quadrupole Moments (Debye-Ang)
        XX    -424.1775     XY      10.8430     YY    -437.3317
        XZ      38.9262     YZ     -11.4947     ZZ    -424.5537

 Total job time:  82.63s(wall), 978.95s(cpu)
        *  Thank you very much for using Q-Chem.  Have a nice day.  *
