 Q-Chem 4.4, Q-Chem, Inc., Pleasanton, CA (2016)
 Q-Chem 4.4.2 for Intel X86 Linux

User input:
--------------------------------------------------------------
$comment
SP
$end

$rem
MEM_STATIC 5000
MEM_TOTAL 20000
JOBTYPE SP
EXCHANGE B3LYP
BASIS 6-31g(d,p)
$end

$molecule
0 1
C          15.735000    -25.005000    -11.389000
C          16.081000    -24.130000    -10.345000
N          15.000000    -26.137000    -11.161000
C          15.477000    -24.256000     -9.058000
C          14.419000    -26.257000     -9.939000
C          14.592000    -25.350000     -8.876000
C          13.787000    -25.529000     -7.614000
C          12.540000    -26.143000     -7.647000
C          14.233000    -25.148000     -6.320000
N          11.851000    -26.448000     -6.552000
N          15.482000    -24.784000     -5.979000
C          13.471000    -25.390000     -5.160000
C          12.238000    -25.993000     -5.304000
S          15.490000    -24.511000     -4.354000
N          14.075000    -25.087000     -4.011000
C          11.306000    -26.312000     -4.210000
S          11.653000    -26.041000     -2.513000
C          10.104000    -27.004000     -4.399000
C          10.151000    -26.786000     -2.027000
S           9.274000    -27.475000     -5.814000
C           9.492000    -27.238000     -3.163000
C           9.706000    -27.087000     -0.649000
C           7.892000    -27.844000     -4.779000
C           8.198000    -27.738000     -3.409000
N           8.672000    -27.871000     -0.493000
S          10.474000    -26.428000      0.791000
C           8.512000    -28.163000      0.876000
C           9.415000    -27.563000      1.706000
C          16.178000    -24.944000    -12.826000
H          16.724000    -23.260000    -10.441000
H          15.849000    -23.646000     -8.241000
H          13.881000    -27.175000     -9.708000
H          12.103000    -26.529000     -8.567000
H           6.986000    -28.224000     -5.232000
H           7.426000    -27.894000     -2.664000
H           7.796000    -28.921000      1.164000
H           9.604000    -27.690000      2.763000
H          17.274000    -24.910000    -12.787000
C          15.530000    -23.699000    -13.581000
H          15.928000    -25.816000    -13.442000
H          15.814000    -23.694000    -14.640000
H          15.842000    -22.738000    -13.154000
C          13.917000    -23.667000    -13.537000
H          13.686000    -23.592000    -12.468000
C          13.230000    -24.918000    -14.101000
H          13.553000    -22.724000    -13.963000
H          12.137000    -24.879000    -14.007000
H          13.652000    -25.799000    -13.601000
C          13.639000    -25.059000    -15.595000
H          13.486000    -24.101000    -16.107000
C          12.742000    -26.101000    -16.303000
H          14.659000    -25.451000    -15.685000
H          12.864000    -27.127000    -15.934000
H          12.987000    -26.067000    -17.372000
H          11.676000    -25.844000    -16.332000
C          16.490000    -22.127000     -0.974000
C          16.579000    -21.906000      0.348000
N          16.450000    -23.368000     -1.490000
C          16.753000    -22.950000      1.248000
C          16.684000    -24.391000     -0.657000
C          16.815000    -24.321000      0.758000
C          16.804000    -25.510000      1.621000
C          15.925000    -25.507000      2.744000
C          17.488000    -26.718000      1.399000
N          15.684000    -26.570000      3.460000
N          18.439000    -26.880000      0.391000
C          17.250000    -27.796000      2.215000
C          16.314000    -27.690000      3.227000
S          19.082000    -28.305000      0.716000
N          18.172000    -28.756000      1.981000
C          15.953000    -28.730000      4.251000
S          15.133000    -28.336000      5.714000
C          15.994000    -30.098000      4.114000
C          15.030000    -30.020000      6.246000
S          16.312000    -31.109000      2.695000
C          15.469000    -30.822000      5.220000
C          14.438000    -30.368000      7.465000
C          15.902000    -32.521000      3.730000
C          15.380000    -32.212000      4.979000
N          14.338000    -31.643000      7.883000
S          13.672000    -29.232000      8.479000
C          13.603000    -31.682000      9.080000
C          13.104000    -30.467000      9.492000
C          16.466000    -20.976000     -2.038000
H          16.764000    -20.904000      0.725000
H          17.026000    -22.711000      2.272000
H          16.716000    -25.349000     -1.174000
H          15.338000    -24.629000      3.009000
H          16.041000    -33.476000      3.240000
H          15.108000    -32.973000      5.701000
H          13.472000    -32.602000      9.634000
H          12.648000    -30.278000     10.455000
H          16.780000    -20.058000     -1.525000
C          15.025000    -20.700000     -2.543000
H          17.160000    -21.158000     -2.868000
H          14.649000    -21.449000     -3.252000
H          14.905000    -19.847000     -3.221000
C          13.955000    -20.586000     -1.366000
H          12.976000    -20.311000     -1.777000
C          14.072000    -19.343000     -0.459000
H          13.819000    -21.535000     -0.832000
H          13.909000    -18.485000     -1.122000
H          15.014000    -19.151000      0.070000
C          13.016000    -19.411000      0.616000
H          12.019000    -19.749000      0.304000
C          12.976000    -18.046000      1.315000
H          13.394000    -20.087000      1.392000
H          13.928000    -17.754000      1.775000
H          12.256000    -17.985000      2.141000
H          12.817000    -17.258000      0.569000
$end

--------------------------------------------------------------

             Standard Nuclear Orientation (Angstroms)
    I     Atom           X                Y                Z
 ----------------------------------------------------------------
    1      C       9.4536951893     0.5899344332     2.5205283319
    2      C       8.6459495010     1.6200818869     2.0090401827
    3      N       8.9937367083    -0.6948152414     2.6277172746
    4      C       7.4109116212     1.3229850343     1.3582899267
    5      C       7.8214668392    -0.9821125861     2.0044287460
    6      C       7.0146810734    -0.0392982390     1.3390380074
    7      C       5.8032953997    -0.5114880125     0.5759576922
    8      C       5.7597950795    -1.7899152730     0.0311407858
    9      C       4.6224075240     0.2573755761     0.3946689522
   10      N       4.6700978849    -2.3038651880    -0.5302739532
   11      N       4.3050656070     1.3988459055     1.0311574398
   12      C       3.4906887479    -0.2483391196    -0.2748631667
   13      C       3.5562006520    -1.5261032114    -0.7922229218
   14      S       2.8056043606     1.8495673228     0.5176555657
   15      N       2.4197312757     0.5451226070    -0.2576998017
   16      C       2.4796072987    -2.2103871901    -1.5270175790
   17      S       0.8882599142    -1.5273299642    -1.8003403331
   18      C       2.5639508233    -3.5402018649    -1.9558160171
   19      C       0.3270941197    -2.9922675994    -2.5660267414
   20      S       3.8635632503    -4.6462611490    -1.9804412004
   21      C       1.3512300328    -3.9299283071    -2.5341045130
   22      C      -1.0504624003    -3.3002681243    -3.0075963406
   23      C       2.8602769026    -5.6723265462    -3.0089917850
   24      C       1.5452685293    -5.1871135756    -3.1397333288
   25      N      -1.3332770178    -4.5356730696    -3.3268744532
   26      S      -2.3224692078    -2.0924858826    -3.1523918457
   27      C      -2.7182683453    -4.6509025723    -3.5582749381
   28      C      -3.4252742453    -3.4894418327    -3.4339342455
   29      C      10.8273903729     0.7106277551     3.1232999839
   30      H       8.9179436124     2.6707587725     1.9682690478
   31      H       6.7532826535     2.1405702509     1.0807083093
   32      H       7.4002201640    -1.9788764868     2.1250188151
   33      H       6.5778929805    -2.5003982437     0.1420225820
   34      H       3.2594945539    -6.6167874047    -3.3540482350
   35      H       0.8365364474    -5.6982396607    -3.7814450720
   36      H      -3.1424091111    -5.6381123194    -3.6835168083
   37      H      -4.4898101389    -3.3001536722    -3.4396196274
   38      H      10.7276040357     1.4625516165     3.9161090362
   39      C      11.9139477789     1.0898866399     2.0207984184
   40      H      11.2166443609    -0.1898966843     3.6130724483
   41      H      12.9188945165     1.1214058659     2.4581204884
   42      H      11.7256845779     2.0685076685     1.5624842798
   43      C      11.9837764144     0.0590409169     0.7809556634
   44      H      10.9860661774     0.1229322222     0.3312455521
   45      C      12.2548490913    -1.4008688805     1.1685753062
   46      H      12.6578117520     0.4516230173     0.0097380171
   47      H      12.2446191565    -2.0769731827     0.3038300715
   48      H      11.5213925663    -1.6984277111     1.9286708714
   49      C      13.6344666229    -1.4601866950     1.8843510137
   50      H      14.3816803983    -0.9306445741     1.2805516132
   51      C      14.1111324680    -2.9256050534     2.0146418689
   52      H      13.5559325402    -1.0920369660     2.9141384553
   53      H      13.4866633770    -3.5471968613     2.6683872159
   54      H      15.1356110147    -2.8998386557     2.4067155865
   55      H      14.2732083935    -3.4415183777     1.0602777684
   56      C       0.0842978641     4.7743742184    -0.9478994744
   57      C      -1.1411771197     5.1945094992    -1.3030662095
   58      N       0.2698020524     3.7546633396    -0.0913278663
   59      C      -2.2860308525     4.6735611824    -0.7130367341
   60      C      -0.8089348516     3.2786245836     0.5449800739
   61      C      -2.1652097209     3.6289044595     0.2957643292
   62      C      -3.2992201405     2.8736855698     0.8455604703
   63      C      -4.3254756034     2.4662743915    -0.0569886179
   64      C      -3.4358273096     2.3987345387     2.1616774862
   65      N      -5.2707776828     1.6306813634     0.2730027001
   66      N      -2.5655718743     2.7534235371     3.1929680329
   67      C      -4.4816391172     1.5690576316     2.4818304073
   68      C      -5.3709406021     1.1835053561     1.4959458746
   69      S      -3.2825202045     2.1734672927     4.4965534142
   70      N      -4.5590743273     1.4319050426     3.8240796224
   71      C      -6.5998980946     0.3321903766     1.6553926915
   72      S      -7.8588251625     0.3032168317     0.4796936775
   73      C      -6.8176318740    -0.6710688184     2.5707816738
   74      C      -8.7931215898    -0.9275545448     1.3409607701
   75      S      -5.7253901471    -1.4210977234     3.7460563871
   76      C      -8.0349099602    -1.3847299047     2.3920111091
   77      C     -10.0196694639    -1.3908152655     0.8525973632
   78      C      -7.0562407702    -2.5775516405     4.0989302410
   79      C      -8.1494653905    -2.5053574538     3.2459273518
   80      N     -10.7403055806    -2.3348633995     1.4848992752
   81      S     -10.6603879506    -0.9040389304    -0.6500591579
   82      C     -11.8579391960    -2.6674363673     0.7007785430
   83      C     -11.9148671820    -2.0370959237    -0.5216780532
   84      C       1.4049021112     5.4483459958    -1.4570551146
   85      H      -1.2625757943     6.1123405019    -1.8715788411
   86      H      -3.2312254526     5.1832807970    -0.8774115575
   87      H      -0.5552685892     2.5149968955     1.2788759665
   88      H      -4.3204100336     2.7679314295    -1.1032464119
   89      H      -6.8347800972    -3.2645243882     4.9054472057
   90      H      -9.0218855362    -3.1375491018     3.3625712952
   91      H     -12.6176981854    -3.3494485703     1.0586928246
   92      H     -12.7668067071    -2.0529907834    -1.1887405683
   93      H       1.1225963467     6.4094578462    -1.9054483197
   94      C       2.0553966812     4.6283076374    -2.6025139332
   95      H       2.1148932005     5.6459372245    -0.6443249260
   96      H       2.5737667872     3.7217158345    -2.2642215505
   97      H       2.9340254111     5.0771395819    -3.0802737480
   98      C       1.0175420059     4.1852837262    -3.7293735016
   99      H       1.5472292048     3.6825345063    -4.5477020990
  100      C       0.4502271741     5.3158259193    -4.6133504420
  101      H       0.2700450982     3.4755760630    -3.3527883111
  102      H       1.3184260578     5.7423137568    -5.1297231976
  103      H      -0.0723899407     6.1566240410    -4.1400652533
  104      C      -0.5362989641     4.7323714625    -5.5940298369
  105      H      -0.2566178039     3.7802160688    -6.0638974300
  106      C      -0.8617655311     5.8184501791    -6.6274370824
  107      H      -1.4812311448     4.5986072611    -5.0543574249
  108      H      -1.2930504754     6.7292728850    -6.1943512997
  109      H      -1.5969361586     5.5138501446    -7.3831751107
  110      H       0.0685052620     6.1834441423    -7.0792297985
 ----------------------------------------------------------------

   10   -5663.5251854578      6.94E-06 Convergence criterion met
 Total energy in the final basis set = -5663.5251854578

                    Orbital Energies (a.u.)
 --------------------------------------------------------------

 Alpha MOs
 -- Occupied --
-89.000 -88.980 -88.924 -88.922 -88.921 -88.920 -88.910 -88.904
-14.388 -14.387 -14.373 -14.365 -14.350 -14.343 -14.339 -14.339
-14.338 -14.328 -10.269 -10.266 -10.264 -10.262 -10.259 -10.252
-10.245 -10.243 -10.241 -10.240 -10.237 -10.236 -10.235 -10.235
-10.234 -10.232 -10.232 -10.231 -10.230 -10.230 -10.229 -10.229
-10.229 -10.228 -10.225 -10.225 -10.221 -10.219 -10.216 -10.214
-10.212 -10.211 -10.209 -10.202 -10.200 -10.200 -10.199 -10.198
-10.190 -10.187 -10.185 -10.184 -10.182 -10.180 -10.179 -10.173
-10.172 -10.171 -10.166 -10.163  -8.056  -8.035  -7.987  -7.982
 -7.981  -7.981  -7.970  -7.964  -6.021  -6.015  -6.014  -6.000
 -5.994  -5.993  -5.951  -5.947  -5.946  -5.946  -5.945  -5.944
 -5.942  -5.942  -5.942  -5.938  -5.938  -5.938  -5.934  -5.931
 -5.928  -5.926  -5.925  -5.921  -1.050  -1.041  -0.986  -0.964
 -0.960  -0.952  -0.948  -0.928  -0.915  -0.908  -0.905  -0.897
 -0.848  -0.842  -0.842  -0.821  -0.818  -0.812  -0.811  -0.807
 -0.805  -0.795  -0.794  -0.793  -0.786  -0.775  -0.774  -0.759
 -0.753  -0.745  -0.741  -0.731  -0.722  -0.718  -0.715  -0.703
 -0.699  -0.687  -0.684  -0.669  -0.662  -0.655  -0.646  -0.642
 -0.642  -0.634  -0.627  -0.620  -0.618  -0.605  -0.599  -0.593
 -0.590  -0.589  -0.585  -0.585  -0.580  -0.571  -0.570  -0.556
 -0.550  -0.544  -0.543  -0.534  -0.528  -0.517  -0.517  -0.515
 -0.507  -0.506  -0.498  -0.494  -0.492  -0.483  -0.482  -0.480
 -0.479  -0.472  -0.471  -0.466  -0.464  -0.462  -0.455  -0.445
 -0.444  -0.440  -0.438  -0.437  -0.436  -0.435  -0.433  -0.431
 -0.428  -0.427  -0.427  -0.424  -0.420  -0.415  -0.411  -0.407
 -0.406  -0.406  -0.403  -0.403  -0.402  -0.400  -0.398  -0.397
 -0.395  -0.393  -0.391  -0.389  -0.386  -0.382  -0.382  -0.379
 -0.375  -0.374  -0.372  -0.368  -0.367  -0.361  -0.357  -0.356
 -0.356  -0.350  -0.349  -0.347  -0.345  -0.344  -0.343  -0.342
 -0.336  -0.335  -0.332  -0.331  -0.330  -0.330  -0.322  -0.318
 -0.316  -0.314  -0.311  -0.307  -0.302  -0.301  -0.298  -0.294
 -0.293  -0.288  -0.287  -0.287  -0.285  -0.284  -0.282  -0.280
 -0.277  -0.275  -0.265  -0.265  -0.259  -0.256  -0.254  -0.250
 -0.244  -0.241  -0.236  -0.224  -0.196  -0.188

          Ground-State Mulliken Net Atomic Charges

     Atom                 Charge (a.u.)
  ----------------------------------------
      1 C                     0.276281
      2 C                    -0.122828
      3 N                    -0.482050
      4 C                    -0.077036
      5 C                     0.063196
      6 C                     0.056427
      7 C                     0.032428
      8 C                     0.056637
      9 C                     0.220337
     10 N                    -0.531177
     11 N                    -0.568664
     12 C                     0.185887
     13 C                     0.310049
     14 S                     0.630694
     15 N                    -0.551534
     16 C                    -0.233120
     17 S                     0.328259
     18 C                    -0.103124
     19 C                    -0.233649
     20 S                     0.295337
     21 C                     0.158630
     22 C                     0.087692
     23 C                    -0.313711
     24 C                    -0.068465
     25 N                    -0.444045
     26 S                     0.240071
     27 C                     0.126734
     28 C                    -0.304542
     29 C                    -0.229541
     30 H                     0.091420
     31 H                     0.127366
     32 H                     0.104574
     33 H                     0.114109
     34 H                     0.123585
     35 H                     0.118575
     36 H                     0.117226
     37 H                     0.136298
     38 H                     0.104447
     39 C                    -0.197425
     40 H                     0.125213
     41 H                     0.098566
     42 H                     0.089892
     43 C                    -0.187981
     44 H                     0.091110
     45 C                    -0.170223
     46 H                     0.086418
     47 H                     0.087974
     48 H                     0.119105
     49 C                    -0.171209
     50 H                     0.090356
     51 C                    -0.325548
     52 H                     0.097906
     53 H                     0.103884
     54 H                     0.090956
     55 H                     0.097499
     56 C                     0.278102
     57 C                    -0.106461
     58 N                    -0.483471
     59 C                    -0.094735
     60 C                     0.094935
     61 C                     0.027113
     62 C                     0.011967
     63 C                     0.072859
     64 C                     0.187249
     65 N                    -0.496432
     66 N                    -0.532674
     67 C                     0.244985
     68 C                     0.293375
     69 S                     0.636839
     70 N                    -0.554892
     71 C                    -0.225320
     72 S                     0.310030
     73 C                    -0.117156
     74 C                    -0.229748
     75 S                     0.260484
     76 C                     0.154748
     77 C                     0.064697
     78 C                    -0.299855
     79 C                    -0.053866
     80 N                    -0.457556
     81 S                     0.278327
     82 C                     0.108181
     83 C                    -0.300714
     84 C                    -0.211008
     85 H                     0.094717
     86 H                     0.107694
     87 H                     0.109965
     88 H                     0.113586
     89 H                     0.130282
     90 H                     0.134598
     91 H                     0.114335
     92 H                     0.134920
     93 H                     0.099169
     94 C                    -0.191301
     95 H                     0.115587
     96 H                     0.104368
     97 H                     0.092372
     98 C                    -0.192012
     99 H                     0.095510
    100 C                    -0.161022
    101 H                     0.104997
    102 H                     0.090332
    103 H                     0.081066
    104 C                    -0.174808
    105 H                     0.097930
    106 C                    -0.322264
    107 H                     0.097500
    108 H                     0.096913
    109 H                     0.096021
    110 H                     0.100277
  ----------------------------------------
  Sum of atomic charges =     0.000000

                    Cartesian Multipole Moments
 -----------------------------------------------------------------
    Charge (ESU x 10^10)
                 0.0000
    Dipole Moment (Debye)
         X      -4.0656      Y       3.4831      Z      -1.4998
       Tot       5.5598
    Quadrupole Moments (Debye-Ang)
        XX    -424.7144     XY      23.0678     YY    -421.0400
        XZ       6.2385     YZ      -1.0965     ZZ    -439.8231

 Total job time:  92.32s(wall), 1093.17s(cpu)
        *  Thank you very much for using Q-Chem.  Have a nice day.  *
