 Q-Chem 4.4, Q-Chem, Inc., Pleasanton, CA (2016)
 Q-Chem 4.4.2 for Intel X86 Linux

User input:
--------------------------------------------------------------
$comment
SP
$end

$rem
MEM_STATIC 5000
MEM_TOTAL 20000
JOBTYPE SP
EXCHANGE B3LYP
BASIS 6-31g(d,p)
$end

$molecule
0 1
C          25.986000     25.435000     -2.987000
C          25.345000     24.180000     -3.075000
N          25.314000     26.510000     -2.500000
C          24.087000     23.983000     -2.629000
C          24.060000     26.349000     -2.048000
C          23.382000     25.083000     -2.151000
C          21.895000     24.858000     -1.886000
C          21.459000     23.763000     -1.188000
C          20.958000     25.835000     -2.239000
N          20.174000     23.541000     -0.923000
N          21.222000     27.002000     -2.757000
C          19.620000     25.628000     -1.901000
C          19.193000     24.387000     -1.304000
S          19.783000     27.680000     -2.922000
N          18.781000     26.543000     -2.286000
C          17.758000     23.973000     -1.316000
S          16.516000     24.544000     -2.436000
C          17.287000     22.892000     -0.591000
C          15.379000     23.355000     -1.885000
S          18.097000     21.719000      0.404000
C          15.981000     22.542000     -0.903000
C          14.164000     23.136000     -2.646000
C          16.568000     20.731000      0.484000
C          15.594000     21.330000     -0.273000
N          13.259000     22.442000     -2.009000
S          14.127000     23.214000     -4.423000
C          12.223000     22.237000     -2.896000
C          12.560000     22.608000     -4.176000
C          27.419000     25.644000     -3.518000
H          25.951000     23.386000     -3.503000
H          23.649000     22.991000     -2.581000
H          23.494000     27.234000     -1.759000
H          22.020000     22.917000     -0.795000
H          16.498000     19.849000      1.108000
H          14.570000     20.977000     -0.312000
H          11.266000     21.781000     -2.681000
H          11.797000     22.540000     -4.940000
H          27.669000     24.814000     -4.190000
C          28.287000     25.683000     -2.245000
H          27.523000     26.486000     -4.214000
H          28.087000     24.710000     -1.780000
H          28.068000     26.474000     -1.517000
C          29.774000     25.778000     -2.534000
H          30.307000     25.580000     -1.596000
C          30.184000     27.177000     -3.096000
H          30.042000     25.032000     -3.292000
H          29.877000     27.976000     -2.410000
H          29.531000     27.343000     -3.962000
C          31.691000     27.314000     -3.388000
H          31.891000     28.388000     -3.299000
C          32.114000     26.799000     -4.767000
H          32.289000     26.858000     -2.589000
H          31.760000     25.766000     -4.872000
H          33.183000     26.570000     -4.858000
H          31.886000     27.464000     -5.609000
C          13.978000      8.633000      3.324000
C          15.110000      8.839000      4.103000
N          13.617000      9.580000      2.453000
C          15.758000     10.064000      4.156000
C          14.244000     10.779000      2.540000
C          15.284000     11.098000      3.387000
C          15.875000     12.477000      3.468000
C          17.202000     12.801000      3.446000
C          15.003000     13.602000      3.580000
N          17.724000     14.039000      3.510000
N          13.696000     13.540000      3.673000
C          15.488000     14.906000      3.655000
C          16.900000     15.132000      3.655000
S          13.096000     15.034000      3.949000
N          14.517000     15.801000      3.872000
C          17.607000     16.454000      3.497000
S          19.020000     16.731000      2.491000
C          17.218000     17.661000      4.111000
C          19.013000     18.491000      2.898000
S          16.013000     17.897000      5.393000
C          17.995000     18.783000      3.775000
C          20.199000     19.326000      2.656000
C          16.592000     19.576000      5.512000
C          17.647000     19.881000      4.631000
N          21.319000     18.672000      2.434000
S          20.282000     21.063000      2.956000
C          22.352000     19.579000      2.457000
C          22.006000     20.841000      2.857000
C          13.329000      7.290000      3.299000
H          15.568000      8.051000      4.694000
H          16.573000     10.355000      4.811000
H          13.737000     11.575000      1.996000
H          17.929000     11.993000      3.381000
H          16.145000     20.204000      6.271000
H          18.093000     20.867000      4.588000
H          23.297000     19.182000      2.111000
H          22.664000     21.674000      3.067000
H          12.846000      7.124000      2.328000
C          12.190000      7.209000      4.299000
H          14.070000      6.483000      3.355000
H          11.572000      8.113000      4.233000
H          12.706000      7.144000      5.265000
C          11.372000      5.925000      4.104000
H          10.755000      5.936000      3.197000
C          10.297000      5.721000      5.225000
H          12.001000      5.027000      4.064000
H          10.755000      5.794000      6.219000
H           9.848000      4.721000      5.254000
C           9.161000      6.729000      5.107000
H           8.588000      6.583000      6.031000
C           8.191000      6.606000      3.924000
H           9.577000      7.742000      5.047000
H           7.918000      5.545000      3.868000
H           8.584000      7.040000      2.997000
H           7.299000      7.198000      4.162000
$end

--------------------------------------------------------------

             Standard Nuclear Orientation (Angstroms)
    I     Atom           X                Y                Z
 ----------------------------------------------------------------
    1      C     -10.1645205238     2.3157678907    -1.3169859928
    2      C      -8.8764874627     2.3375867412    -1.8950385605
    3      N     -10.4534221379     1.4272233026    -0.3313885230
    4      C      -7.8798128464     1.5395128868    -1.4591408293
    5      C      -9.4845446959     0.6178208970     0.1256511341
    6      C      -8.1723294280     0.6092880837    -0.4668581754
    7      C      -7.0851793929    -0.4242202593    -0.1805291581
    8      C      -5.7790905758    -0.0479402877    -0.0106162832
    9      C      -7.4235469525    -1.7630603870     0.0433491724
   10      N      -4.8068956665    -0.9164588419     0.2563042656
   11      N      -8.6304067405    -2.2548047279     0.0831732261
   12      C      -6.4096030873    -2.6580566897     0.3872044566
   13      C      -5.0296881414    -2.2403622081     0.4008082113
   14      S      -8.3993927087    -3.8071608482     0.3905052825
   15      N      -6.7656178775    -3.8981476350     0.5446811741
   16      C      -3.9168581169    -3.2352947584     0.3509729141
   17      S      -4.0233656550    -4.8912325027    -0.2569179734
   18      C      -2.5931991277    -2.8853876931     0.5547348490
   19      C      -2.3020990287    -5.0974800553    -0.1876781854
   20      S      -1.8262174123    -1.3488690287     0.8247412232
   21      C      -1.6984221498    -3.9026000286     0.2545128907
   22      C      -1.7036557405    -6.2483462703    -0.8362763553
   23      C      -0.1925180439    -2.1261290863     0.6073057692
   24      C      -0.3522858269    -3.4544439695     0.3063409430
   25      N      -0.4621854999    -6.4634236413    -0.4914236820
   26      S      -2.3183618673    -6.9012705776    -2.3728336196
   27      C      -0.0150985242    -7.5149014941    -1.2638209639
   28      C      -0.9012753101    -7.8308918154    -2.2660439037
   29      C     -11.2955084211     3.2243895165    -1.8408219568
   30      H      -8.7463920094     3.0616459420    -2.6948319381
   31      H      -6.8619142297     1.6521175177    -1.8188832415
   32      H      -9.7515243681    -0.1611376978     0.8391266854
   33      H      -5.3181611853     0.9339986406    -0.1013137913
   34      H       0.7226953226    -1.5710592176     0.7700384785
   35      H       0.4759525011    -4.1479086815     0.2178312525
   36      H       0.9367756518    -8.0218496154    -1.1804593698
   37      H      -0.6712905167    -8.6801086839    -2.8956681607
   38      H     -11.0184033471     3.5913104087    -2.8365959456
   39      C     -11.3969816442     4.3414514357    -0.7837742503
   40      H     -12.2224454701     2.6920085182    -2.0889231055
   41      H     -10.3912379896     4.7789428424    -0.7896878341
   42      H     -11.6434301633     4.0365320849     0.2408785284
   43      C     -12.3925651620     5.4269952364    -1.1500024795
   44      H     -12.2346260628     6.2668834462    -0.4624124593
   45      C     -13.8723980046     4.9339803094    -1.0595810237
   46      H     -12.2175532475     5.7416172518    -2.1859985302
   47      H     -14.0894868976     4.5390302736    -0.0595145850
   48      H     -13.9156277636     4.0337775854    -1.6854302417
   49      C     -14.9122034441     6.0156360984    -1.4115858561
   50      H     -15.8156359289     5.7144038454    -0.8689387560
   51      C     -15.2013644378     6.1464299235    -2.9099429214
   52      H     -14.6383959074     6.9821754242    -0.9702558611
   53      H     -14.2485556114     6.2966331456    -3.4324602247
   54      H     -15.6520719233     7.1024731484    -3.2037576839
   55      H     -15.8551778729     5.3740509826    -3.3331825271
   56      C      11.4171132750     2.2576034891    -2.0637714192
   57      C      10.8807281739     3.3520446632    -1.3965454157
   58      N      10.6125863469     1.2360514263    -2.3718928320
   59      C       9.6003763428     3.3382760053    -0.8637719061
   60      C       9.3748312269     1.2281990604    -1.8185397770
   61      C       8.8254379429     2.2171928386    -1.0306131775
   62      C       7.4682663746     2.0946930585    -0.3977133925
   63      C       6.4734315019     3.0309604730    -0.4075064942
   64      C       7.1312056326     0.8945982378     0.2985017162
   65      N       5.2569840626     2.9110491242     0.1538319917
   66      N       7.9376762694    -0.1225990276     0.4873318919
   67      C       5.8885229894     0.7174035852     0.9031569099
   68      C       4.9282973077     1.7761382911     0.8599427607
   69      S       7.2200669076    -1.2147239950     1.4673889613
   70      N       5.8164570003    -0.4235001418     1.5989299901
   71      C       3.4725516959     1.6965893252     1.2433142197
   72      S       2.1468577723     2.4006088685     0.3310499468
   73      C       2.9660873780     1.0221681906     2.3719488054
   74      C       0.9376845613     1.7174518514     1.4862532344
   75      S       3.8731742914     0.3439571181     3.7388679956
   76      C       1.5664637888     1.0337672852     2.5001216169
   77      C      -0.4402801304     2.2293045684     1.5263169921
   78      C       2.3057556967     0.0857543740     4.5419702879
   79      C       1.1988335540     0.5232551131     3.7899546808
   80      N      -0.6371021944     3.3801292289     0.9194696670
   81      S      -1.7167409295     1.5955679906     2.5670301025
   82      C      -1.8988953649     3.8202197242     1.2426806676
   83      C      -2.5407064473     3.0852205925     2.2019589437
   84      C      12.7972669704     2.3342114776    -2.6248257777
   85      H      11.4189331273     4.2877472470    -1.2749514077
   86      H       9.1356636034     4.0914994082    -0.2355780067
   87      H       8.8730696530     0.2639607017    -1.8898188802
   88      H       6.6643490834     3.9809393388    -0.9042042208
   89      H       2.3210747677    -0.3215455766     5.5440411818
   90      H       0.1826780530     0.4216569300     4.1506024409
   91      H      -2.2346811296     4.6674553049     0.6597657587
   92      H      -3.4762131664     3.3122955461     2.6961422538
   93      H      12.8789079219     1.6924913565    -3.5109499458
   94      C      13.8184196283     1.7634907869    -1.6576612920
   95      H      13.0188153261     3.3351944753    -3.0152298818
   96      H      13.4509051551     0.8157773281    -1.2450254816
   97      H      13.8932771759     2.5372783583    -0.8835255534
   98      C      15.1926655633     1.6175879020    -2.3254677447
   99      H      15.2345202441     0.8049907748    -3.0612619376
  100      C      16.3113195463     1.1962420122    -1.3130632269
  101      H      15.5151165721     2.5366101354    -2.8305107937
  102      H      16.3221418453     1.8678540739    -0.4459132305
  103      H      17.3353107505     1.2972056199    -1.6921283449
  104      C      16.1363905911    -0.2432391547    -0.8463965033
  105      H      16.8669125051    -0.3428895359    -0.0340981993
  106      C      16.3881027468    -1.3758670251    -1.8510422607
  107      H      15.1108266211    -0.3876093641    -0.4855630429
  108      H      17.3330074946    -1.1298642180    -2.3510658966
  109      H      15.5369197228    -1.5582866557    -2.5176339933
  110      H      16.5103236412    -2.3050287279    -1.2813997561
 ----------------------------------------------------------------

    9   -5663.4989785692      5.54E-06 Convergence criterion met
 Total energy in the final basis set = -5663.4989785692

                    Orbital Energies (a.u.)
 --------------------------------------------------------------

 Alpha MOs
 -- Occupied --
-88.992 -88.981 -88.935 -88.926 -88.926 -88.923 -88.910 -88.904
-14.386 -14.382 -14.380 -14.373 -14.351 -14.348 -14.341 -14.338
-14.327 -14.327 -10.270 -10.269 -10.266 -10.261 -10.256 -10.251
-10.249 -10.247 -10.242 -10.241 -10.240 -10.239 -10.235 -10.234
-10.233 -10.232 -10.229 -10.229 -10.226 -10.225 -10.225 -10.224
-10.224 -10.224 -10.224 -10.222 -10.219 -10.217 -10.212 -10.212
-10.208 -10.207 -10.207 -10.205 -10.202 -10.195 -10.193 -10.192
-10.189 -10.183 -10.181 -10.179 -10.179 -10.178 -10.174 -10.174
-10.174 -10.173 -10.172 -10.171  -8.047  -8.038  -7.996  -7.987
 -7.986  -7.981  -7.970  -7.963  -6.013  -6.007  -6.005  -6.003
 -5.997  -5.995  -5.960  -5.957  -5.953  -5.951  -5.950  -5.948
 -5.946  -5.945  -5.944  -5.943  -5.942  -5.938  -5.935  -5.931
 -5.928  -5.926  -5.924  -5.919  -1.060  -1.045  -0.979  -0.968
 -0.957  -0.952  -0.942  -0.934  -0.927  -0.910  -0.908  -0.902
 -0.842  -0.839  -0.833  -0.832  -0.819  -0.813  -0.810  -0.807
 -0.806  -0.806  -0.796  -0.795  -0.786  -0.779  -0.769  -0.766
 -0.748  -0.746  -0.741  -0.736  -0.725  -0.720  -0.710  -0.706
 -0.696  -0.691  -0.675  -0.674  -0.657  -0.657  -0.644  -0.644
 -0.636  -0.633  -0.629  -0.624  -0.612  -0.610  -0.599  -0.595
 -0.595  -0.587  -0.587  -0.586  -0.579  -0.575  -0.559  -0.553
 -0.551  -0.546  -0.540  -0.538  -0.525  -0.524  -0.520  -0.512
 -0.512  -0.507  -0.504  -0.500  -0.492  -0.488  -0.481  -0.478
 -0.476  -0.475  -0.468  -0.465  -0.460  -0.460  -0.457  -0.446
 -0.445  -0.444  -0.438  -0.436  -0.435  -0.434  -0.433  -0.430
 -0.429  -0.427  -0.423  -0.419  -0.418  -0.416  -0.414  -0.411
 -0.409  -0.407  -0.407  -0.403  -0.401  -0.401  -0.398  -0.396
 -0.395  -0.394  -0.389  -0.388  -0.388  -0.383  -0.382  -0.380
 -0.380  -0.378  -0.372  -0.371  -0.370  -0.367  -0.362  -0.359
 -0.356  -0.355  -0.351  -0.349  -0.344  -0.344  -0.341  -0.341
 -0.337  -0.335  -0.334  -0.331  -0.330  -0.328  -0.324  -0.320
 -0.315  -0.314  -0.310  -0.305  -0.303  -0.299  -0.299  -0.298
 -0.297  -0.296  -0.293  -0.289  -0.288  -0.287  -0.285  -0.283
 -0.275  -0.269  -0.267  -0.261  -0.250  -0.249  -0.246  -0.245
 -0.243  -0.242  -0.239  -0.230  -0.195  -0.193

          Ground-State Mulliken Net Atomic Charges

     Atom                 Charge (a.u.)
  ----------------------------------------
      1 C                     0.254514
      2 C                    -0.116195
      3 N                    -0.480996
      4 C                    -0.054062
      5 C                     0.090578
      6 C                     0.010307
      7 C                     0.015492
      8 C                     0.046389
      9 C                     0.257344
     10 N                    -0.515159
     11 N                    -0.533453
     12 C                     0.170412
     13 C                     0.299528
     14 S                     0.575280
     15 N                    -0.548355
     16 C                    -0.215792
     17 S                     0.320353
     18 C                    -0.127171
     19 C                    -0.236217
     20 S                     0.286666
     21 C                     0.159493
     22 C                     0.055928
     23 C                    -0.326785
     24 C                    -0.049465
     25 N                    -0.418150
     26 S                     0.294306
     27 C                     0.115519
     28 C                    -0.291664
     29 C                    -0.215024
     30 H                     0.080734
     31 H                     0.100863
     32 H                     0.116852
     33 H                     0.118322
     34 H                     0.144919
     35 H                     0.121804
     36 H                     0.117591
     37 H                     0.120990
     38 H                     0.095696
     39 C                    -0.169487
     40 H                     0.118379
     41 H                     0.090181
     42 H                     0.117316
     43 C                    -0.177743
     44 H                     0.085665
     45 C                    -0.174481
     46 H                     0.086936
     47 H                     0.088690
     48 H                     0.092273
     49 C                    -0.173972
     50 H                     0.091187
     51 C                    -0.319615
     52 H                     0.094172
     53 H                     0.101566
     54 H                     0.096835
     55 H                     0.108445
     56 C                     0.283865
     57 C                    -0.131060
     58 N                    -0.485168
     59 C                    -0.066519
     60 C                     0.074837
     61 C                     0.065583
     62 C                     0.051664
     63 C                     0.051466
     64 C                     0.242733
     65 N                    -0.507458
     66 N                    -0.567640
     67 C                     0.227025
     68 C                     0.247915
     69 S                     0.605624
     70 N                    -0.553076
     71 C                    -0.210164
     72 S                     0.358823
     73 C                    -0.137244
     74 C                    -0.260902
     75 S                     0.278655
     76 C                     0.155746
     77 C                     0.059866
     78 C                    -0.296369
     79 C                    -0.085649
     80 N                    -0.415119
     81 S                     0.292922
     82 C                     0.121072
     83 C                    -0.315678
     84 C                    -0.236692
     85 H                     0.085201
     86 H                     0.097726
     87 H                     0.107342
     88 H                     0.109229
     89 H                     0.133426
     90 H                     0.115379
     91 H                     0.112732
     92 H                     0.131923
     93 H                     0.117176
     94 C                    -0.168051
     95 H                     0.102850
     96 H                     0.116604
     97 H                     0.095948
     98 C                    -0.183294
     99 H                     0.101009
    100 C                    -0.179270
    101 H                     0.087740
    102 H                     0.086245
    103 H                     0.081189
    104 C                    -0.176170
    105 H                     0.088195
    106 C                    -0.314347
    107 H                     0.093383
    108 H                     0.100311
    109 H                     0.107717
    110 H                     0.103012
  ----------------------------------------
  Sum of atomic charges =     0.000000

                    Cartesian Multipole Moments
 -----------------------------------------------------------------
    Charge (ESU x 10^10)
                 0.0000
    Dipole Moment (Debye)
         X       1.2990      Y      -0.9347      Z       0.2084
       Tot       1.6138
    Quadrupole Moments (Debye-Ang)
        XX    -432.7448     XY      -1.6991     YY    -414.1669
        XZ      16.6965     YZ       5.5920     ZZ    -434.3465

 Total job time:  80.98s(wall), 951.65s(cpu)
        *  Thank you very much for using Q-Chem.  Have a nice day.  *
