 Q-Chem 4.4, Q-Chem, Inc., Pleasanton, CA (2016)
 Q-Chem 4.4.2 for Intel X86 Linux

User input:
--------------------------------------------------------------
$comment
SP
$end

$rem
MEM_STATIC 5000
MEM_TOTAL 20000
JOBTYPE SP
EXCHANGE B3LYP
BASIS 6-31g(d,p)
$end

$molecule
0 1
C          13.860000     19.931000     15.414000
C          12.597000     19.817000     14.952000
N          14.906000     19.745000     14.682000
C          12.385000     19.620000     13.568000
C          14.699000     19.581000     13.329000
C          13.426000     19.576000     12.686000
C          13.187000     19.459000     11.158000
C          12.071000     18.781000     10.642000
C          13.919000     20.181000     10.163000
N          11.875000     18.528000      9.309000
N          14.840000     21.064000     10.479000
C          13.742000     19.948000      8.838000
C          12.688000     19.150000      8.405000
S          15.585000     21.498000      9.069000
N          14.620000     20.641000      8.020000
C          12.286000     19.006000      7.021000
S          12.880000     19.921000      5.674000
C          11.366000     18.060000      6.609000
C          11.935000     19.003000      4.509000
S          10.430000     16.760000      7.412000
C          11.186000     18.068000      5.219000
C          11.724000     19.355000      3.128000
C           9.879000     16.201000      5.824000
C          10.237000     17.106000      4.799000
N          10.576000     19.159000      2.489000
S          12.940000     20.238000      2.246000
C          10.688000     19.676000      1.182000
C          11.862000     20.347000      0.896000
C          14.160000     19.880000     16.904000
H          11.761000     19.898000     15.640000
H          11.370000     19.472000     13.211000
H          15.492000     19.378000     12.610000
H          11.416000     18.208000     11.296000
H           9.311000     15.280000      5.794000
H           9.828000     17.032000      3.798000
H           9.883000     19.582000      0.465000
H          12.217000     20.717000     -0.057000
H          14.982000     20.532000     17.223000
C          14.584000     18.396000     17.390000
H          13.252000     20.216000     17.419000
H          15.489000     18.088000     16.852000
H          13.818000     17.692000     17.042000
C          14.743000     18.270000     18.907000
H          15.490000     18.965000     19.311000
C          15.058000     16.841000     19.440000
H          13.792000     18.527000     19.391000
H          15.351000     16.915000     20.495000
H          15.998000     16.518000     18.977000
C          13.912000     15.828000     19.324000
H          13.073000     16.165000     19.946000
C          14.331000     14.468000     19.896000
H          13.547000     15.839000     18.290000
H          15.390000     14.317000     19.655000
H          13.784000     13.682000     19.361000
H          14.145000     14.391000     20.974000
C          13.978000      8.633000      3.324000
C          15.110000      8.839000      4.103000
N          13.617000      9.580000      2.453000
C          15.758000     10.064000      4.156000
C          14.244000     10.779000      2.540000
C          15.284000     11.098000      3.387000
C          15.875000     12.477000      3.468000
C          17.202000     12.801000      3.446000
C          15.003000     13.602000      3.580000
N          17.724000     14.039000      3.510000
N          13.696000     13.540000      3.673000
C          15.488000     14.906000      3.655000
C          16.900000     15.132000      3.655000
S          13.096000     15.034000      3.949000
N          14.517000     15.801000      3.872000
C          17.607000     16.454000      3.497000
S          19.020000     16.731000      2.491000
C          17.218000     17.661000      4.111000
C          19.013000     18.491000      2.898000
S          16.013000     17.897000      5.393000
C          17.995000     18.783000      3.775000
C          20.199000     19.326000      2.656000
C          16.592000     19.576000      5.512000
C          17.647000     19.881000      4.631000
N          21.319000     18.672000      2.434000
S          20.282000     21.063000      2.956000
C          22.352000     19.579000      2.457000
C          22.006000     20.841000      2.857000
C          13.329000      7.290000      3.299000
H          15.568000      8.051000      4.694000
H          16.573000     10.355000      4.811000
H          13.737000     11.575000      1.996000
H          17.929000     11.993000      3.381000
H          16.145000     20.204000      6.271000
H          18.093000     20.867000      4.588000
H          23.297000     19.182000      2.111000
H          22.664000     21.674000      3.067000
H          12.846000      7.124000      2.328000
C          12.190000      7.209000      4.299000
H          14.070000      6.483000      3.355000
H          11.572000      8.113000      4.233000
H          12.706000      7.144000      5.265000
C          11.372000      5.925000      4.104000
H          10.755000      5.936000      3.197000
C          10.297000      5.721000      5.225000
H          12.001000      5.027000      4.064000
H          10.755000      5.794000      6.219000
H           9.848000      4.721000      5.254000
C           9.161000      6.729000      5.107000
H           8.588000      6.583000      6.031000
C           8.191000      6.606000      3.924000
H           9.577000      7.742000      5.047000
H           7.918000      5.545000      3.868000
H           8.584000      7.040000      2.997000
H           7.299000      7.198000      4.162000
$end

--------------------------------------------------------------

             Standard Nuclear Orientation (Angstroms)
    I     Atom           X                Y                Z
 ----------------------------------------------------------------
    1      C      -9.2297628509    -1.4490321700     0.1487029861
    2      C      -8.7732344956    -1.9192996949    -1.0311441717
    3      N      -8.5005324249    -0.7871422002     0.9821660348
    4      C      -7.4733480778    -1.5627501499    -1.4582000495
    5      C      -7.2439100631    -0.4164390610     0.5534080348
    6      C      -6.6840599724    -0.7280476719    -0.7207469595
    7      C      -5.2986681198    -0.2592673443    -1.2370108640
    8      C      -4.5159282173    -1.0722943564    -2.0722960384
    9      C      -4.7906237238     1.0719729068    -1.1073062547
   10      N      -3.2326254607    -0.7738260855    -2.4509313856
   11      N      -5.5012405830     2.0402681548    -0.5732519578
   12      C      -3.5241506106     1.3911421868    -1.4753005810
   13      C      -2.7540769515     0.4780087741    -2.1883103496
   14      S      -4.4900363988     3.3375172763    -0.4117223493
   15      N      -3.1554008992     2.6900896466    -1.1638264295
   16      C      -1.4806230251     0.7873992361    -2.8050668976
   17      S      -0.7623770887     2.3576691578    -2.9562130119
   18      C      -0.6554071399    -0.1868984669    -3.3349939951
   19      C       0.7032666060     1.7233431901    -3.6927543394
   20      S      -0.7107704907    -1.9737589365    -3.4573441556
   21      C       0.5482691888     0.3450295021    -3.8174667213
   22      C       1.7288384785     2.5019848756    -4.3389009635
   23      C       0.9451789447    -1.9636859204    -4.0862765856
   24      C       1.3883244249    -0.6515186906    -4.3685056489
   25      N       2.3798745942     2.0993670155    -5.4245767137
   26      S       2.0595256241     4.1318813340    -3.8189465937
   27      C       3.2598270954     3.1222772777    -5.8337468388
   28      C       3.1775033510     4.3082227132    -5.1287154741
   29      C     -10.4989242773    -2.0023362630     0.7778173275
   30      H      -9.4120421771    -2.5455471389    -1.6464001224
   31      H      -7.0909677115    -1.9903741073    -2.3804261642
   32      H      -6.5178312077     0.1094922041     1.1724595675
   33      H      -4.8013245941    -2.1036551590    -2.2720804300
   34      H       1.4264608943    -2.9231107885    -4.2264072661
   35      H       2.2943226789    -0.4592803428    -4.9315061654
   36      H       3.9285237162     2.9912647391    -6.6743600340
   37      H       3.8228619088     5.1752906669    -5.1820023928
   38      H     -11.0979276300    -1.2591628555     1.3176666304
   39      C     -10.1863234933    -3.1622120288     1.8618823430
   40      H     -11.1136853562    -2.3896661437    -0.0435409251
   41      H      -9.5654376199    -2.7446215382     2.6640368881
   42      H      -9.5363257269    -3.9068035340     1.3858966351
   43      C     -11.4419774904    -3.8504248394     2.4023841161
   44      H     -12.1362018649    -3.1461060372     2.8780284608
   45      C     -11.1975531267    -5.0390037692     3.3785459152
   46      H     -11.9907487760    -4.3049441619     1.5675378658
   47      H     -12.1505974529    -5.3086259439     3.8511561091
   48      H     -10.6343768345    -4.6496268634     4.2350014536
   49      C     -10.5966244195    -6.2992916356     2.7433292729
   50      H     -11.3047836828    -6.7007863337     2.0073357503
   51      C     -10.4201273758    -7.4036414342     3.7929031464
   52      H      -9.7039722137    -6.0067324315     2.1775703566
   53      H     -10.1348548596    -6.9239327106     4.7367580780
   54      H      -9.5668219037    -8.0280383009     3.5009642415
   55      H     -11.3189341723    -8.0214981031     3.9069578669
   56      C       6.8674094480    -4.8001834839     2.0135506610
   57      C       6.0897555293    -4.4586219628     3.1132283911
   58      N       7.1551874298    -3.8561171314     1.1126102882
   59      C       5.4381185757    -3.2380294887     3.2073628311
   60      C       6.4868519973    -2.6801793807     1.2064034444
   61      C       5.5940868643    -2.3239682697     2.1947627220
   62      C       4.8418419603    -1.0234028810     2.1829189886
   63      C       4.7020164001    -0.1496172863     3.2237535323
   64      C       4.1868134908    -0.6096219157     0.9836375301
   65      N       4.0342532712     1.0178187733     3.2035186493
   66      N       4.1352976039    -1.3034169590    -0.1284490454
   67      C       3.4767882468     0.5867045928     0.9066113133
   68      C       3.3664380987     1.4147150569     2.0672324901
   69      S       3.1554281020    -0.5512659567    -1.1972505372
   70      N       2.8442464602     0.7314358334    -0.2638154277
   71      C       2.8502034193     2.8298224839     2.1261368688
   72      S       3.5887675413     4.1384335803     3.0357488939
   73      C       1.7188972206     3.3104688582     1.4374487335
   74      C       2.3640495597     5.3127220382     2.4157404397
   75      S       0.4868348508     2.3724447519     0.5694751779
   76      C       1.4563914782     4.6819185694     1.5978402068
   77      C       2.1623390031     6.6112869456     3.0756093907
   78      C      -0.4469172856     3.8819173692     0.4351533060
   79      C       0.1687911376     4.9915309256     1.0449663045
   80      N       2.6801091511     6.7234130622     4.2800768282
   81      S       1.0420763565     7.8564251539     2.5200012150
   82      C       2.2123328578     7.8904632536     4.8363557062
   83      C       1.2398052122     8.5271732278     4.1144482417
   84      C       7.5531150783    -6.1244151062     1.9723997300
   85      H       5.9666923100    -5.1125742197     3.9718266031
   86      H       4.7258084635    -2.9234496938     3.9633951431
   87      H       6.5650636146    -2.0633523569     0.3119715768
   88      H       5.1591622387    -0.4069311701     4.1779155978
   89      H      -1.4177252105     3.8261066936    -0.0388626657
   90      H      -0.2813573755     5.9765223773     1.0340504394
   91      H       2.7104722236     8.1738753256     5.7538984953
   92      H       0.6457622679     9.3816038743     4.4111201996
   93      H       8.4784987245    -6.0504687969     1.3876920675
   94      C       6.7230523336    -7.1525101739     1.2254737820
   95      H       7.9046391089    -6.4274995707     2.9664000636
   96      H       6.3323416087    -6.7133540082     0.2992000690
   97      H       5.9163740201    -7.3869428816     1.9311283746
   98      C       7.5270981450    -8.4350562426     0.9717201319
   99      H       8.3091270831    -8.3148529162     0.2118248100
  100      C       6.6528362999    -9.5812949690     0.3587886444
  101      H       8.0069587359    -8.8180447847     1.8809498004
  102      H       5.7534676263    -9.7485440936     0.9640098595
  103      H       7.1220756097   -10.5723261241     0.3694525840
  104      C       6.2552886364    -9.2791187103    -1.0803532401
  105      H       5.5240364877   -10.0618677596    -1.3169863336
  106      C       7.3430886031    -9.3046748967    -2.1627376976
  107      H       5.8065174933    -8.2797701494    -1.1326209646
  108      H       7.9165647734   -10.2239449740    -1.9911171656
  109      H       7.9342204916    -8.3820977668    -2.2020890612
  110      H       6.8423425352    -9.3659889847    -3.1365271810
 ----------------------------------------------------------------

   10   -5663.5231127699      3.86E-06 Convergence criterion met
 Total energy in the final basis set = -5663.5231127699

                    Orbital Energies (a.u.)
 --------------------------------------------------------------

 Alpha MOs
 -- Occupied --
-88.999 -88.985 -88.933 -88.927 -88.926 -88.919 -88.916 -88.905
-14.402 -14.389 -14.374 -14.367 -14.358 -14.352 -14.346 -14.337
-14.331 -14.325 -10.274 -10.267 -10.266 -10.265 -10.261 -10.260
-10.250 -10.247 -10.247 -10.246 -10.245 -10.238 -10.236 -10.236
-10.235 -10.235 -10.234 -10.233 -10.232 -10.231 -10.227 -10.225
-10.225 -10.224 -10.224 -10.221 -10.220 -10.219 -10.216 -10.213
-10.212 -10.207 -10.204 -10.204 -10.203 -10.202 -10.196 -10.192
-10.186 -10.183 -10.182 -10.179 -10.178 -10.177 -10.177 -10.175
-10.173 -10.172 -10.172 -10.171  -8.054  -8.040  -7.993  -7.988
 -7.988  -7.977  -7.975  -7.964  -6.019  -6.014  -6.012  -6.006
 -6.000  -5.998  -5.957  -5.953  -5.952  -5.952  -5.949  -5.949
 -5.948  -5.945  -5.945  -5.941  -5.939  -5.937  -5.935  -5.933
 -5.931  -5.929  -5.926  -5.921  -1.045  -1.039  -0.968  -0.967
 -0.960  -0.952  -0.948  -0.939  -0.918  -0.909  -0.903  -0.896
 -0.848  -0.837  -0.835  -0.829  -0.819  -0.810  -0.810  -0.806
 -0.806  -0.804  -0.800  -0.791  -0.784  -0.784  -0.770  -0.766
 -0.750  -0.746  -0.744  -0.738  -0.730  -0.715  -0.711  -0.708
 -0.697  -0.693  -0.683  -0.671  -0.659  -0.655  -0.652  -0.642
 -0.640  -0.635  -0.630  -0.625  -0.613  -0.608  -0.601  -0.598
 -0.595  -0.590  -0.589  -0.583  -0.582  -0.571  -0.562  -0.555
 -0.550  -0.546  -0.541  -0.535  -0.524  -0.521  -0.517  -0.516
 -0.515  -0.509  -0.505  -0.501  -0.494  -0.489  -0.483  -0.478
 -0.476  -0.470  -0.467  -0.464  -0.458  -0.458  -0.456  -0.452
 -0.448  -0.443  -0.441  -0.439  -0.434  -0.432  -0.431  -0.430
 -0.428  -0.426  -0.422  -0.421  -0.421  -0.418  -0.416  -0.415
 -0.410  -0.407  -0.406  -0.404  -0.403  -0.400  -0.398  -0.396
 -0.395  -0.393  -0.391  -0.388  -0.386  -0.384  -0.381  -0.380
 -0.376  -0.376  -0.375  -0.370  -0.369  -0.363  -0.361  -0.357
 -0.356  -0.355  -0.352  -0.350  -0.348  -0.344  -0.343  -0.341
 -0.339  -0.337  -0.332  -0.331  -0.329  -0.323  -0.320  -0.319
 -0.318  -0.315  -0.309  -0.307  -0.305  -0.301  -0.298  -0.297
 -0.294  -0.292  -0.292  -0.290  -0.289  -0.287  -0.286  -0.284
 -0.281  -0.271  -0.269  -0.265  -0.259  -0.255  -0.254  -0.245
 -0.243  -0.239  -0.237  -0.234  -0.201  -0.191

          Ground-State Mulliken Net Atomic Charges

     Atom                 Charge (a.u.)
  ----------------------------------------
      1 C                     0.278098
      2 C                    -0.109706
      3 N                    -0.480509
      4 C                    -0.089388
      5 C                     0.084326
      6 C                     0.060256
      7 C                     0.029884
      8 C                     0.050203
      9 C                     0.240972
     10 N                    -0.525662
     11 N                    -0.549470
     12 C                     0.238775
     13 C                     0.306751
     14 S                     0.609049
     15 N                    -0.599254
     16 C                    -0.239878
     17 S                     0.353042
     18 C                    -0.098687
     19 C                    -0.219824
     20 S                     0.286588
     21 C                     0.148878
     22 C                     0.056076
     23 C                    -0.316266
     24 C                    -0.075913
     25 N                    -0.434038
     26 S                     0.280545
     27 C                     0.106154
     28 C                    -0.298370
     29 C                    -0.221051
     30 H                     0.091343
     31 H                     0.093010
     32 H                     0.103369
     33 H                     0.114871
     34 H                     0.139910
     35 H                     0.126538
     36 H                     0.116955
     37 H                     0.141676
     38 H                     0.111923
     39 C                    -0.169912
     40 H                     0.083583
     41 H                     0.114869
     42 H                     0.090479
     43 C                    -0.180518
     44 H                     0.089106
     45 C                    -0.180904
     46 H                     0.087505
     47 H                     0.087251
     48 H                     0.089416
     49 C                    -0.173987
     50 H                     0.093004
     51 C                    -0.320905
     52 H                     0.096783
     53 H                     0.105556
     54 H                     0.101253
     55 H                     0.108362
     56 C                     0.283129
     57 C                    -0.130899
     58 N                    -0.485906
     59 C                    -0.067097
     60 C                     0.074322
     61 C                     0.066473
     62 C                     0.050745
     63 C                     0.050265
     64 C                     0.238909
     65 N                    -0.508992
     66 N                    -0.573285
     67 C                     0.226304
     68 C                     0.247255
     69 S                     0.614927
     70 N                    -0.555962
     71 C                    -0.211332
     72 S                     0.353937
     73 C                    -0.134770
     74 C                    -0.256358
     75 S                     0.282472
     76 C                     0.163276
     77 C                     0.062420
     78 C                    -0.302159
     79 C                    -0.092509
     80 N                    -0.413957
     81 S                     0.264904
     82 C                     0.124218
     83 C                    -0.314824
     84 C                    -0.236033
     85 H                     0.084197
     86 H                     0.097595
     87 H                     0.107405
     88 H                     0.107301
     89 H                     0.143831
     90 H                     0.105112
     91 H                     0.114179
     92 H                     0.130893
     93 H                     0.116600
     94 C                    -0.168065
     95 H                     0.102385
     96 H                     0.116342
     97 H                     0.095896
     98 C                    -0.182973
     99 H                     0.100629
    100 C                    -0.179085
    101 H                     0.087625
    102 H                     0.086222
    103 H                     0.080792
    104 C                    -0.175512
    105 H                     0.087644
    106 C                    -0.314387
    107 H                     0.093177
    108 H                     0.100275
    109 H                     0.107863
    110 H                     0.102466
  ----------------------------------------
  Sum of atomic charges =     0.000000

                    Cartesian Multipole Moments
 -----------------------------------------------------------------
    Charge (ESU x 10^10)
                 0.0000
    Dipole Moment (Debye)
         X      -2.1018      Y       0.4936      Z      -1.9965
       Tot       2.9406
    Quadrupole Moments (Debye-Ang)
        XX    -451.2334     XY       3.2851     YY    -397.3119
        XZ      -1.2138     YZ      -8.6156     ZZ    -441.9231

 Total job time:  90.60s(wall), 1063.73s(cpu)
        *  Thank you very much for using Q-Chem.  Have a nice day.  *
