 Q-Chem 4.4, Q-Chem, Inc., Pleasanton, CA (2016)
 Q-Chem 4.4.2 for Intel X86 Linux

User input:
--------------------------------------------------------------
$comment
SP
$end

$rem
MEM_STATIC 5000
MEM_TOTAL 20000
JOBTYPE SP
EXCHANGE B3LYP
BASIS 6-31g(d,p)
$end

$molecule
0 1
C          10.014000     -2.424000      3.961000
C          11.357000     -2.762000      3.922000
N           9.590000     -1.145000      3.974000
C          12.308000     -1.664000      3.709000
C          10.458000     -0.125000      3.806000
C          11.827000     -0.323000      3.582000
C          12.757000      0.823000      3.378000
C          14.006000      0.843000      4.018000
C          12.479000      1.961000      2.613000
N          14.887000      1.755000      3.917000
N          11.377000      2.096000      1.889000
C          13.393000      2.913000      2.392000
C          14.576000      2.850000      3.180000
S          11.555000      3.414000      1.012000
N          13.036000      3.789000      1.461000
C          15.691000      3.783000      3.146000
S          15.926000      5.070000      1.927000
C          16.609000      4.048000      4.220000
C          17.011000      5.989000      2.942000
S          16.545000      3.425000      5.774000
C          17.307000      5.270000      4.081000
C          17.491000      7.296000      2.723000
C          17.758000      4.586000      6.253000
C          17.954000      5.560000      5.281000
N          16.979000      7.875000      1.621000
S          18.828000      8.089000      3.519000
C          17.656000      9.068000      1.390000
C          18.788000      9.283000      2.211000
C           8.934000     -3.457000      3.934000
H          11.761000     -3.767000      3.855000
H          13.385000     -1.781000      3.777000
H          10.100000      0.904000      3.806000
H          14.357000     -0.047000      4.540000
H          18.185000      4.643000      7.246000
H          18.380000      6.525000      5.533000
H          17.404000      9.777000      0.613000
H          19.560000     10.034000      2.114000
H           7.996000     -3.149000      3.455000
C           8.694000     -4.064000      5.330000
H           9.331000     -4.286000      3.336000
H           8.142000     -3.339000      5.940000
H           9.723000     -4.118000      5.707000
C           7.982000     -5.447000      5.340000
H           8.613000     -6.095000      4.718000
C           6.576000     -5.388000      4.830000
H           8.010000     -5.889000      6.344000
H           6.560000     -5.063000      3.783000
H           6.077000     -4.543000      5.320000
C           5.761000     -6.644000      4.991000
H           6.328000     -7.541000      4.711000
C           4.483000     -6.749000      4.148000
H           5.566000     -6.816000      6.057000
H           4.111000     -7.779000      4.206000
H           4.553000     -6.512000      3.079000
H           3.765000     -6.100000      4.664000
C          13.978000      8.633000      3.324000
C          15.110000      8.839000      4.103000
N          13.617000      9.580000      2.453000
C          15.758000     10.064000      4.156000
C          14.244000     10.779000      2.540000
C          15.284000     11.098000      3.387000
C          15.875000     12.477000      3.468000
C          17.202000     12.801000      3.446000
C          15.003000     13.602000      3.580000
N          17.724000     14.039000      3.510000
N          13.696000     13.540000      3.673000
C          15.488000     14.906000      3.655000
C          16.900000     15.132000      3.655000
S          13.096000     15.034000      3.949000
N          14.517000     15.801000      3.872000
C          17.607000     16.454000      3.497000
S          19.020000     16.731000      2.491000
C          17.218000     17.661000      4.111000
C          19.013000     18.491000      2.898000
S          16.013000     17.897000      5.393000
C          17.995000     18.783000      3.775000
C          20.199000     19.326000      2.656000
C          16.592000     19.576000      5.512000
C          17.647000     19.881000      4.631000
N          21.319000     18.672000      2.434000
S          20.282000     21.063000      2.956000
C          22.352000     19.579000      2.457000
C          22.006000     20.841000      2.857000
C          13.329000      7.290000      3.299000
H          15.568000      8.051000      4.694000
H          16.573000     10.355000      4.811000
H          13.737000     11.575000      1.996000
H          17.929000     11.993000      3.381000
H          16.145000     20.204000      6.271000
H          18.093000     20.867000      4.588000
H          23.297000     19.182000      2.111000
H          22.664000     21.674000      3.067000
H          12.846000      7.124000      2.328000
C          12.190000      7.209000      4.299000
H          14.070000      6.483000      3.355000
H          11.572000      8.113000      4.233000
H          12.706000      7.144000      5.265000
C          11.372000      5.925000      4.104000
H          10.755000      5.936000      3.197000
C          10.297000      5.721000      5.225000
H          12.001000      5.027000      4.064000
H          10.755000      5.794000      6.219000
H           9.848000      4.721000      5.254000
C           9.161000      6.729000      5.107000
H           8.588000      6.583000      6.031000
C           8.191000      6.606000      3.924000
H           9.577000      7.742000      5.047000
H           7.918000      5.545000      3.868000
H           8.584000      7.040000      2.997000
H           7.299000      7.198000      4.162000
$end

--------------------------------------------------------------

             Standard Nuclear Orientation (Angstroms)
    I     Atom           X                Y                Z
 ----------------------------------------------------------------
    1      C      11.4305577565    -0.0650719862     0.0407205312
    2      C      11.2054998970     1.2951858293     0.1765941317
    3      N      10.4264548993    -0.9608880615    -0.0305326191
    4      C       9.8146284582     1.7493385788     0.0557805531
    5      C       9.1413264593    -0.5567215131    -0.1150447113
    6      C       8.7725887323     0.7943074616    -0.1629425019
    7      C       7.3462842320     1.2091655011    -0.2786156600
    8      C       6.8483901118     2.2578161265     0.5103294020
    9      C       6.3926744387     0.5981314739    -1.1000892017
   10      N       5.6589344005     2.7084952435     0.4965655250
   11      N       6.6877148697    -0.3681631604    -1.9580115896
   12      C       5.1502067023     1.0777039919    -1.2298008970
   13      C       4.7586317380     2.0811086347    -0.3001503335
   14      S       5.3847074647    -0.6223999127    -2.8386206836
   15      N       4.4638727818     0.5195325189    -2.2192332374
   16      C       3.4586593833     2.7279152005    -0.2190137607
   17      S       2.1522877301     2.5800144535    -1.4310671724
   18      C       2.8792645041     3.3246521160     0.9534330943
   19      C       0.9050923825     3.0757278412    -0.3126830693
   20      S       3.5175932553     3.3225913002     2.5025209415
   21      C       1.4772414459     3.4903376235     0.8716488849
   22      C      -0.4903419085     3.0192740584    -0.5029095391
   23      C       1.9832382128     3.9045330245     3.0990353447
   24      C       0.9860392641     3.8152061563     2.1349342260
   25      N      -0.8472131239     2.4594068150    -1.6737983491
   26      S      -1.7280251407     3.8212257703     0.4325302872
   27      C      -2.2167447653     2.6288823105    -1.8487273051
   28      C      -2.8421293959     3.4712737000    -0.8995377505
   29      C      12.8067001839    -0.6327585110    -0.0941202235
   30      H      11.9648123476     2.0704945789     0.1850170240
   31      H       9.4955049496     2.7666575751     0.2594082675
   32      H       8.3399224097    -1.2914908529    -0.1848341543
   33      H       7.5390298601     2.8665484685     1.0936360743
   34      H       1.7876853477     4.1475942549     4.1355233163
   35      H      -0.0616795927     3.7875948271     2.4137313054
   36      H      -2.7875526608     2.2136030893    -2.6682610230
   37      H      -3.8404743490     3.8863990049    -0.9188337615
   38      H      12.8844025755    -1.5489807986    -0.6929925455
   39      C      13.4961185888    -0.7817079722     1.2760554298
   40      H      13.3931987733     0.1316765448    -0.6176777182
   41      H      13.0669573047    -1.6471770805     1.7949126499
   42      H      13.1465505321     0.1287996841     1.7787123521
   43      C      15.0479265886    -0.8801721359     1.2321266241
   44      H      15.3747336363     0.0279739537     0.7092338687
   45      C      15.5392639727    -2.1190185874     0.5507573815
   46      H      15.4689831166    -0.8027447094     2.2425128838
   47      H      15.2195952609    -2.1336950913    -0.4979020078
   48      H      14.9757654662    -2.9692313390     0.9541600466
   49      C      17.0195803886    -2.3802661394     0.6407297405
   50      H      17.6093392419    -1.4734490978     0.4553508094
   51      C      17.6015441286    -3.3964347893    -0.3510754218
   52      H      17.2833310055    -2.6206230077     1.6783371749
   53      H      18.6956831541    -3.3321109604    -0.3140586949
   54      H      17.3278017995    -3.2952073378    -1.4087370597
   55      H      17.3055834922    -4.3710014990     0.0558742434
   56      C      -0.3036642494    -0.7805435543    -0.3745484787
   57      C      -0.9219158459     0.0706080275     0.5331998060
   58      N      -1.0519238710    -1.3779927920    -1.3067142081
   59      C      -2.3016825908     0.1659602374     0.6356189727
   60      C      -2.3985865170    -1.2955850763    -1.1725214878
   61      C      -3.0820794803    -0.5814100584    -0.2115004615
   62      C      -4.5796760614    -0.6025878797    -0.0921732639
   63      C      -5.4050763537     0.4777133828     0.0421864757
   64      C      -5.2617555350    -1.8566660649    -0.1168409970
   65      N      -6.7463711867     0.4519834148     0.1396038244
   66      N      -4.6827074652    -3.0317529425    -0.1847833471
   67      C      -6.6485768031    -1.9436436161    -0.0147250042
   68      C      -7.4173067224    -0.7497971151     0.1544046598
   69      S      -5.8069944992    -4.2055381077    -0.0222439639
   70      N      -7.0775412645    -3.2091966017     0.0582142274
   71      C      -8.9151315049    -0.6133610121     0.0524090191
   72      S      -9.7578939376     0.6851922793    -0.7775577461
   73      C      -9.8510695405    -1.5228472356     0.5834653276
   74      C     -11.3584413172    -0.0714194008    -0.4182739433
   75      S      -9.5541467538    -2.8703849572     1.7002571380
   76      C     -11.1980493578    -1.2212638416     0.3185090514
   77      C     -12.6023174098     0.7045730086    -0.5322609907
   78      C     -11.3211045070    -3.0264859562     1.8483644522
   79      C     -12.0438586838    -2.0799681926     1.0974040517
   80      N     -12.4537681854     2.0103493753    -0.5976919322
   81      S     -14.2204136429     0.0521320888    -0.2674149474
   82      C     -13.6957669747     2.5859155826    -0.4695141323
   83      C     -14.7049604582     1.7200423301    -0.1467882059
   84      C       1.1854723223    -0.8333235680    -0.4463923436
   85      H      -0.3655302199     0.7275392963     1.1956689321
   86      H      -2.8751549241     0.7103924333     1.3790260395
   87      H      -2.9415706957    -2.0060445111    -1.7946280489
   88      H      -4.9548247667     1.4680777381     0.0876832017
   89      H     -11.6990743029    -3.7762888730     2.5304263404
   90      H     -13.1266668291    -2.0613628932     1.0855144182
   91      H     -13.7166529416     3.6456601062    -0.6859750316
   92      H     -15.7249858346     1.9610408639     0.1223231805
   93      H       1.5038499973    -1.0866563229    -1.4652859451
   94      C       1.7393612776    -1.9599857681     0.4066734874
   95      H       1.6324706013     0.1544468173    -0.2791553724
   96      H       1.1542233274    -2.8732777420     0.2423343571
   97      H       1.6195917712    -1.5841527428     1.4304126155
   98      C       3.2370459229    -2.1689135855     0.1438144560
   99      H       3.4480777622    -2.6223706520    -0.8325570161
  100      C       3.8815276692    -3.2033900917     1.1278793100
  101      H       3.8094768446    -1.2349329765     0.2042136431
  102      H       3.6590004788    -2.9386321982     2.1687990510
  103      H       4.9779951145    -3.2174275243     1.1258564269
  104      C       3.4055888083    -4.6225813413     0.8452799507
  105      H       3.7920057734    -5.1994289138     1.6946030972
  106      C       3.8725137469    -5.3096314296    -0.4452475686
  107      H       2.3094923843    -4.6398934724     0.8121450864
  108      H       4.9526756210    -5.1289089358    -0.5083007676
  109      H       3.2934485044    -5.0106163951    -1.3269546935
  110      H       3.6905960603    -6.3854312580    -0.3341949483
 ----------------------------------------------------------------

    9   -5663.4862724141      7.29E-06 Convergence criterion met
 Total energy in the final basis set = -5663.4862724141

                    Orbital Energies (a.u.)
 --------------------------------------------------------------

 Alpha MOs
 -- Occupied --
-88.993 -88.990 -88.934 -88.929 -88.925 -88.923 -88.916 -88.910
-14.379 -14.379 -14.372 -14.371 -14.350 -14.347 -14.345 -14.340
-14.325 -14.321 -10.269 -10.268 -10.268 -10.262 -10.255 -10.250
-10.249 -10.244 -10.244 -10.242 -10.240 -10.238 -10.237 -10.236
-10.234 -10.233 -10.233 -10.231 -10.230 -10.230 -10.228 -10.227
-10.226 -10.224 -10.222 -10.219 -10.218 -10.218 -10.214 -10.213
-10.211 -10.209 -10.208 -10.205 -10.205 -10.202 -10.199 -10.188
-10.180 -10.180 -10.178 -10.178 -10.177 -10.176 -10.172 -10.172
-10.172 -10.171 -10.170 -10.170  -8.049  -8.046  -7.994  -7.990
 -7.983  -7.981  -7.978  -7.970  -6.014  -6.011  -6.008  -6.007
 -6.005  -6.004  -5.958  -5.955  -5.954  -5.951  -5.951  -5.947
 -5.947  -5.945  -5.943  -5.942  -5.941  -5.940  -5.939  -5.937
 -5.934  -5.934  -5.931  -5.926  -1.063  -1.044  -0.978  -0.970
 -0.963  -0.951  -0.935  -0.934  -0.920  -0.911  -0.907  -0.901
 -0.854  -0.840  -0.838  -0.831  -0.819  -0.811  -0.810  -0.809
 -0.807  -0.806  -0.797  -0.793  -0.787  -0.782  -0.767  -0.765
 -0.752  -0.748  -0.746  -0.741  -0.725  -0.720  -0.717  -0.708
 -0.698  -0.694  -0.682  -0.675  -0.658  -0.654  -0.648  -0.641
 -0.641  -0.631  -0.626  -0.625  -0.610  -0.608  -0.600  -0.600
 -0.595  -0.594  -0.586  -0.582  -0.580  -0.573  -0.566  -0.550
 -0.549  -0.546  -0.544  -0.538  -0.532  -0.525  -0.520  -0.518
 -0.508  -0.508  -0.503  -0.502  -0.490  -0.488  -0.484  -0.478
 -0.475  -0.474  -0.473  -0.467  -0.465  -0.457  -0.455  -0.452
 -0.448  -0.445  -0.443  -0.438  -0.436  -0.434  -0.433  -0.432
 -0.429  -0.425  -0.421  -0.420  -0.420  -0.418  -0.413  -0.412
 -0.411  -0.407  -0.406  -0.404  -0.402  -0.401  -0.399  -0.398
 -0.397  -0.395  -0.391  -0.389  -0.386  -0.384  -0.383  -0.379
 -0.379  -0.377  -0.374  -0.369  -0.368  -0.362  -0.361  -0.361
 -0.358  -0.356  -0.349  -0.349  -0.347  -0.344  -0.343  -0.339
 -0.338  -0.334  -0.333  -0.329  -0.327  -0.326  -0.319  -0.318
 -0.309  -0.308  -0.308  -0.306  -0.305  -0.304  -0.302  -0.298
 -0.297  -0.295  -0.294  -0.292  -0.288  -0.287  -0.280  -0.279
 -0.277  -0.274  -0.266  -0.264  -0.254  -0.251  -0.250  -0.245
 -0.242  -0.239  -0.235  -0.232  -0.194  -0.190

          Ground-State Mulliken Net Atomic Charges

     Atom                 Charge (a.u.)
  ----------------------------------------
      1 C                     0.277153
      2 C                    -0.121868
      3 N                    -0.490337
      4 C                    -0.102384
      5 C                     0.096669
      6 C                     0.057661
      7 C                     0.023425
      8 C                     0.066383
      9 C                     0.213669
     10 N                    -0.466605
     11 N                    -0.543979
     12 C                     0.234359
     13 C                     0.231022
     14 S                     0.619585
     15 N                    -0.562608
     16 C                    -0.209649
     17 S                     0.359336
     18 C                    -0.137010
     19 C                    -0.206208
     20 S                     0.305139
     21 C                     0.139127
     22 C                     0.057661
     23 C                    -0.308962
     24 C                    -0.096929
     25 N                    -0.431815
     26 S                     0.272227
     27 C                     0.130264
     28 C                    -0.323091
     29 C                    -0.211841
     30 H                     0.097740
     31 H                     0.098050
     32 H                     0.112903
     33 H                     0.094937
     34 H                     0.128960
     35 H                     0.111903
     36 H                     0.125332
     37 H                     0.142860
     38 H                     0.117165
     39 C                    -0.186848
     40 H                     0.093397
     41 H                     0.106212
     42 H                     0.087043
     43 C                    -0.174776
     44 H                     0.087225
     45 C                    -0.158626
     46 H                     0.090000
     47 H                     0.092334
     48 H                     0.091646
     49 C                    -0.182092
     50 H                     0.089278
     51 C                    -0.319780
     52 H                     0.093091
     53 H                     0.099971
     54 H                     0.105501
     55 H                     0.104148
     56 C                     0.297786
     57 C                    -0.130279
     58 N                    -0.487185
     59 C                    -0.060487
     60 C                     0.071690
     61 C                     0.064093
     62 C                     0.048296
     63 C                     0.048228
     64 C                     0.241877
     65 N                    -0.509883
     66 N                    -0.565871
     67 C                     0.227944
     68 C                     0.246747
     69 S                     0.605414
     70 N                    -0.552993
     71 C                    -0.209015
     72 S                     0.354478
     73 C                    -0.134999
     74 C                    -0.255470
     75 S                     0.279304
     76 C                     0.165651
     77 C                     0.061937
     78 C                    -0.296617
     79 C                    -0.087220
     80 N                    -0.414512
     81 S                     0.269145
     82 C                     0.124292
     83 C                    -0.314191
     84 C                    -0.238021
     85 H                     0.082524
     86 H                     0.093991
     87 H                     0.104017
     88 H                     0.103112
     89 H                     0.131902
     90 H                     0.109787
     91 H                     0.114754
     92 H                     0.132268
     93 H                     0.118863
     94 C                    -0.172010
     95 H                     0.117354
     96 H                     0.114498
     97 H                     0.094627
     98 C                    -0.185854
     99 H                     0.097922
    100 C                    -0.181066
    101 H                     0.084410
    102 H                     0.087580
    103 H                     0.080571
    104 C                    -0.175552
    105 H                     0.088492
    106 C                    -0.315591
    107 H                     0.094339
    108 H                     0.100846
    109 H                     0.106611
    110 H                     0.103493
  ----------------------------------------
  Sum of atomic charges =     0.000000

                    Cartesian Multipole Moments
 -----------------------------------------------------------------
    Charge (ESU x 10^10)
                 0.0000
    Dipole Moment (Debye)
         X      -2.2258      Y       0.4394      Z       2.8836
       Tot       3.6691
    Quadrupole Moments (Debye-Ang)
        XX    -371.3361     XY      18.6526     YY    -435.7093
        XZ      -7.9044     YZ       1.4460     ZZ    -441.9363

 Total job time:  89.15s(wall), 1077.88s(cpu)
        *  Thank you very much for using Q-Chem.  Have a nice day.  *
