 Q-Chem 4.4, Q-Chem, Inc., Pleasanton, CA (2016)
 Q-Chem 4.4.2 for Intel X86 Linux

User input:
--------------------------------------------------------------
$comment
SP
$end

$rem
MEM_STATIC 5000
MEM_TOTAL 20000
JOBTYPE SP
EXCHANGE B3LYP
BASIS 6-31g(d,p)
$end

$molecule
0 1
C          10.156000     11.611000      8.023000
C          11.127000     11.146000      7.113000
N           9.064000     12.256000      7.586000
C          10.941000     11.285000      5.727000
C           8.947000     12.501000      6.252000
C           9.822000     12.070000      5.275000
C           9.529000     12.269000      3.921000
C           9.104000     13.501000      3.441000
C           9.681000     11.285000      2.873000
N           8.797000     13.836000      2.215000
N          10.109000     10.057000      3.107000
C           9.437000     11.653000      1.516000
C           8.951000     12.928000      1.217000
S          10.260000      9.422000      1.627000
N           9.683000     10.605000      0.668000
C           8.784000     13.394000     -0.202000
S           8.895000     12.355000     -1.706000
C           8.471000     14.722000     -0.470000
C           8.581000     13.863000     -2.689000
S           8.393000     16.068000      0.548000
C           8.285000     14.959000     -1.836000
C           8.891000     14.029000     -4.086000
C           8.138000     17.086000     -0.876000
C           8.169000     16.384000     -2.081000
N          10.058000     13.600000     -4.481000
S           7.843000     14.835000     -5.205000
C          10.160000     13.828000     -5.825000
C           9.128000     14.550000     -6.359000
C          10.300000     11.297000      9.486000
H          11.912000     10.529000      7.539000
H          11.698000     10.808000      5.112000
H           8.002000     12.976000      5.993000
H           9.084000     14.377000      4.089000
H           8.165000     18.149000     -0.679000
H           8.283000     16.872000     -3.043000
H          11.019000     13.678000     -6.466000
H           9.032000     14.979000     -7.347000
H           9.623000     10.474000      9.746000
C          10.036000     12.571000     10.385000
H          11.247000     10.794000      9.718000
H           9.987000     12.105000     11.376000
H           9.036000     13.002000     10.253000
C          11.213000     13.583000     10.199000
H          12.168000     13.134000     10.501000
C          11.053000     14.924000     10.977000
H          11.330000     13.747000      9.120000
H          10.171000     15.485000     10.642000
H          11.927000     15.527000     10.701000
C          10.984000     14.601000     12.547000
H          10.067000     14.045000     12.777000
C          11.154000     15.946000     13.310000
H          11.806000     13.939000     12.846000
H          11.213000     15.679000     14.372000
H          10.349000     16.687000     13.225000
H          12.059000     16.420000     12.910000
C          13.978000      8.633000      3.324000
C          15.110000      8.839000      4.103000
N          13.617000      9.580000      2.453000
C          15.758000     10.064000      4.156000
C          14.244000     10.779000      2.540000
C          15.284000     11.098000      3.387000
C          15.875000     12.477000      3.468000
C          17.202000     12.801000      3.446000
C          15.003000     13.602000      3.580000
N          17.724000     14.039000      3.510000
N          13.696000     13.540000      3.673000
C          15.488000     14.906000      3.655000
C          16.900000     15.132000      3.655000
S          13.096000     15.034000      3.949000
N          14.517000     15.801000      3.872000
C          17.607000     16.454000      3.497000
S          19.020000     16.731000      2.491000
C          17.218000     17.661000      4.111000
C          19.013000     18.491000      2.898000
S          16.013000     17.897000      5.393000
C          17.995000     18.783000      3.775000
C          20.199000     19.326000      2.656000
C          16.592000     19.576000      5.512000
C          17.647000     19.881000      4.631000
N          21.319000     18.672000      2.434000
S          20.282000     21.063000      2.956000
C          22.352000     19.579000      2.457000
C          22.006000     20.841000      2.857000
C          13.329000      7.290000      3.299000
H          15.568000      8.051000      4.694000
H          16.573000     10.355000      4.811000
H          13.737000     11.575000      1.996000
H          17.929000     11.993000      3.381000
H          16.145000     20.204000      6.271000
H          18.093000     20.867000      4.588000
H          23.297000     19.182000      2.111000
H          22.664000     21.674000      3.067000
H          12.846000      7.124000      2.328000
C          12.190000      7.209000      4.299000
H          14.070000      6.483000      3.355000
H          11.572000      8.113000      4.233000
H          12.706000      7.144000      5.265000
C          11.372000      5.925000      4.104000
H          10.755000      5.936000      3.197000
C          10.297000      5.721000      5.225000
H          12.001000      5.027000      4.064000
H          10.755000      5.794000      6.219000
H           9.848000      4.721000      5.254000
C           9.161000      6.729000      5.107000
H           8.588000      6.583000      6.031000
C           8.191000      6.606000      3.924000
H           9.577000      7.742000      5.047000
H           7.918000      5.545000      3.868000
H           8.584000      7.040000      2.997000
H           7.299000      7.198000      4.162000
$end

--------------------------------------------------------------

             Standard Nuclear Orientation (Angstroms)
    I     Atom           X                Y                Z
 ----------------------------------------------------------------
    1      C      -2.1557274962     5.2796872178    -1.5823176150
    2      C      -1.8817612409     4.6234127841    -0.3651847715
    3      N      -2.6952810084     4.6108529725    -2.6123665263
    4      C      -2.2302422518     3.2747567335    -0.1791717550
    5      C      -2.9157293131     3.2747485220    -2.4727332843
    6      C      -2.7089161209     2.5411124250    -1.3216809916
    7      C      -3.0965599482     1.1979071188    -1.2561236233
    8      C      -2.7774999400     0.2975334807    -2.2642788808
    9      C      -3.7946201675     0.5756843433    -0.1537558318
   10      N      -3.0668037024    -0.9752041571    -2.3416884295
   11      N      -4.1603875878     1.2450758168     0.9251571626
   12      C      -4.0429521568    -0.8293917361    -0.1761485586
   13      C      -3.7068660623    -1.5778727810    -1.3066547560
   14      S      -4.7382632009     0.0947728566     1.9045900982
   15      N      -4.6657491660    -1.2394289936     0.9735980800
   16      C      -3.8496990861    -3.0737311839    -1.3314007793
   17      S      -4.7078813458    -4.1030894632    -0.0832810967
   18      C      -3.3421840262    -3.8074292791    -2.3979337460
   19      C      -4.2416577299    -5.5686125994    -1.0701075644
   20      S      -2.3744209850    -3.3405984543    -3.7016314400
   21      C      -3.6271573524    -5.1724573763    -2.2874371521
   22      C      -4.1951683871    -6.9234401029    -0.5827204732
   23      C      -2.2517192794    -5.0409409211    -4.1737593752
   24      C      -2.9048178438    -5.9139079009    -3.3035979435
   25      N      -3.6412074375    -7.1064129671     0.5841570685
   26      S      -4.7460560713    -8.2852533335    -1.5003742666
   27      C      -3.7058470000    -8.4397019878     0.8789215749
   28      C      -4.1729878835    -9.2249526136    -0.1392261794
   29      C      -1.9293428990     6.7616307270    -1.6931979546
   30      H      -1.5633315340     5.2634556595     0.4517225912
   31      H      -2.0662136015     2.8922155605     0.8236043181
   32      H      -3.4080846995     2.8369347959    -3.3397029002
   33      H      -2.1270749793     0.5886426994    -3.0888289359
   34      H      -1.5462881963    -5.2363913271    -4.9697952574
   35      H      -2.7229782603    -6.9832438603    -3.2973552075
   36      H      -3.2709632879    -8.9606100922     1.7220069227
   37      H      -4.1935798889   -10.3032845283    -0.2178216693
   38      H      -2.8931337736     7.2798429558    -1.6169009305
   39      C      -1.1728935100     7.1379660850    -3.0300334045
   40      H      -1.4580469237     7.1843079276    -0.7971700042
   41      H      -1.2854321156     8.2283084298    -3.0187802490
   42      H      -1.7075720786     6.8329119255    -3.9379132358
   43      C       0.3047809753     6.6351128984    -2.9423647782
   44      H       0.8295461954     7.1040465858    -2.1000152899
   45      C       1.1563632181     6.8774239792    -4.2250408963
   46      H       0.2683230493     5.5724951345    -2.6697105877
   47      H       0.7485633748     6.3396619353    -5.0907090035
   48      H       2.1349226142     6.4284024951    -4.0141802430
   49      C       1.2360878897     8.4565623051    -4.4969896493
   50      H       0.2433395418     8.8446461194    -4.7553821239
   51      C       2.3403936196     8.6925898906    -5.5669867680
   52      H       1.5291390485     8.9951700440    -3.5874008840
   53      H       2.4461112665     9.7810473828    -5.6488284864
   54      H       2.1529649238     8.3259695077    -6.5842335319
   55      H       3.2387427451     8.1748029804    -5.2084249683
   56      C      -2.0056927766     2.0640795183     4.3501460980
   57      C      -0.8487463335     2.7489819735     4.7009801821
   58      N      -1.8917602502     0.9023977325     3.6995419112
   59      C       0.4015720037     2.3784017752     4.2290560650
   60      C      -0.6662007788     0.5722702525     3.2227622671
   61      C       0.5027140767     1.2776933935     3.4145596933
   62      C       1.8083376871     0.8766049382     2.7884941703
   63      C       3.0190061269     0.7770064776     3.4135950226
   64      C       1.8431031272     0.5547160775     1.3979072706
   65      N       4.1827268051     0.4085529228     2.8485993048
   66      N       0.8212456696     0.6274632561     0.5786044058
   67      C       3.0206622015     0.1719055496     0.7590984367
   68      C       4.2418837051     0.1302416605     1.5018649946
   69      S       1.3225752930     0.3342631447    -0.9481288072
   70      N       2.8621144048     0.0275273900    -0.5618756521
   71      C       5.5521193093    -0.4703502332     1.0601987871
   72      S       6.5946514491    -1.4692990580     2.0604797391
   73      C       6.1124228167    -0.3395640120    -0.2259275457
   74      C       7.7398189417    -1.7188863299     0.6858541145
   75      S       5.5978929271     0.7393588818    -1.5383411170
   76      C       7.3181286001    -1.0328605390    -0.4287143536
   77      C       9.1055467890    -2.2104752945     0.9214655254
   78      C       7.0838561839     0.2661397276    -2.3964901900
   79      C       7.8945312351    -0.6360616688    -1.6816128567
   80      N       9.5233742729    -2.1528072854     2.1678581580
   81      S      10.2835390879    -2.5492252883    -0.3480385452
   82      C      10.8705908601    -2.4270117303     2.1771527472
   83      C      11.4524710004    -2.5144634024     0.9417873327
   84      C      -3.3223584884     2.5029622215     4.8971820897
   85      H      -0.8504712270     3.5951265856     5.3821742221
   86      H       1.3405950551     2.9083715274     4.3527442645
   87      H      -0.6874380559    -0.2342200034     2.4908309553
   88      H       3.0746100353     1.0253999954     4.4722861322
   89      H       7.2794235548     0.7377032455    -3.3502486773
   90      H       8.8249601702    -1.0163972858    -2.0848594501
   91      H      11.2836736091    -2.5818411412     3.1649485236
   92      H      12.5059897239    -2.5980443890     0.7092674021
   93      H      -3.9968045192     1.6425225746     4.9891177498
   94      C      -4.0370623136     3.4338234307     3.9345929502
   95      H      -3.2300990071     2.8643368904     5.9288615636
   96      H      -3.9782284655     3.0318400542     2.9155522526
   97      H      -3.4781580619     4.3731085624     4.0294954201
   98      C      -5.4833453610     3.6882334295     4.3810746399
   99      H      -6.1401714440     2.8205318711     4.2427543509
  100      C      -6.1980596331     4.7778002944     3.5116440467
  101      H      -5.5522611885     3.9894279237     5.4337747327
  102      H      -5.5943040048     5.6922705168     3.4631429800
  103      H      -7.1421947899     5.1499900148     3.9270060789
  104      C      -6.4849605254     4.2757281877     2.1023550495
  105      H      -6.8202183102     5.1745788517     1.5702923637
  106      C      -7.5517132448     3.1885146976     1.9138783594
  107      H      -5.5647807675     3.8690374529     1.6656665343
  108      H      -8.4153804040     3.5080499726     2.5100010365
  109      H      -7.1809754498     2.1788939997     2.1268420504
  110      H      -7.8286256418     3.1742725214     0.8527993403
 ----------------------------------------------------------------

    9   -5663.5182847247      6.28E-06 Convergence criterion met
 Total energy in the final basis set = -5663.5182847247

                    Orbital Energies (a.u.)
 --------------------------------------------------------------

 Alpha MOs
 -- Occupied --
-88.992 -88.982 -88.930 -88.926 -88.925 -88.923 -88.911 -88.907
-14.384 -14.380 -14.377 -14.373 -14.351 -14.343 -14.341 -14.340
-14.335 -14.324 -10.271 -10.269 -10.263 -10.256 -10.256 -10.252
-10.250 -10.248 -10.243 -10.240 -10.240 -10.239 -10.236 -10.234
-10.232 -10.231 -10.227 -10.227 -10.226 -10.225 -10.225 -10.224
-10.224 -10.224 -10.223 -10.222 -10.221 -10.212 -10.212 -10.211
-10.211 -10.210 -10.210 -10.209 -10.207 -10.205 -10.200 -10.192
-10.186 -10.185 -10.183 -10.181 -10.180 -10.179 -10.178 -10.176
-10.173 -10.171 -10.169 -10.169  -8.047  -8.037  -7.991  -7.988
 -7.981  -7.981  -7.970  -7.967  -6.012  -6.006  -6.005  -6.002
 -5.996  -5.995  -5.954  -5.951  -5.951  -5.948  -5.948  -5.946
 -5.945  -5.945  -5.942  -5.942  -5.938  -5.937  -5.935  -5.932
 -5.932  -5.928  -5.926  -5.924  -1.045  -1.038  -0.976  -0.971
 -0.960  -0.953  -0.948  -0.933  -0.908  -0.908  -0.902  -0.902
 -0.841  -0.836  -0.835  -0.833  -0.814  -0.811  -0.809  -0.809
 -0.802  -0.796  -0.796  -0.787  -0.787  -0.777  -0.770  -0.762
 -0.750  -0.745  -0.742  -0.735  -0.720  -0.719  -0.711  -0.708
 -0.697  -0.688  -0.675  -0.670  -0.658  -0.647  -0.646  -0.645
 -0.635  -0.631  -0.627  -0.620  -0.611  -0.610  -0.601  -0.595
 -0.595  -0.592  -0.588  -0.586  -0.577  -0.575  -0.561  -0.550
 -0.546  -0.541  -0.539  -0.539  -0.526  -0.521  -0.518  -0.515
 -0.513  -0.507  -0.506  -0.495  -0.495  -0.488  -0.480  -0.475
 -0.471  -0.469  -0.468  -0.462  -0.462  -0.456  -0.449  -0.445
 -0.444  -0.439  -0.437  -0.437  -0.434  -0.431  -0.429  -0.429
 -0.426  -0.426  -0.425  -0.421  -0.418  -0.413  -0.412  -0.410
 -0.409  -0.406  -0.405  -0.402  -0.401  -0.399  -0.398  -0.393
 -0.392  -0.391  -0.388  -0.387  -0.385  -0.384  -0.382  -0.380
 -0.378  -0.376  -0.374  -0.373  -0.371  -0.362  -0.359  -0.357
 -0.354  -0.354  -0.349  -0.348  -0.346  -0.344  -0.341  -0.339
 -0.336  -0.335  -0.332  -0.329  -0.325  -0.324  -0.322  -0.320
 -0.314  -0.313  -0.310  -0.304  -0.299  -0.298  -0.296  -0.295
 -0.293  -0.292  -0.291  -0.290  -0.288  -0.287  -0.285  -0.277
 -0.275  -0.271  -0.268  -0.266  -0.252  -0.250  -0.250  -0.248
 -0.244  -0.243  -0.239  -0.229  -0.195  -0.190

          Ground-State Mulliken Net Atomic Charges

     Atom                 Charge (a.u.)
  ----------------------------------------
      1 C                     0.301859
      2 C                    -0.132233
      3 N                    -0.491535
      4 C                    -0.053874
      5 C                     0.061257
      6 C                     0.019189
      7 C                     0.065120
      8 C                     0.038724
      9 C                     0.221465
     10 N                    -0.523023
     11 N                    -0.573177
     12 C                     0.205565
     13 C                     0.303420
     14 S                     0.633270
     15 N                    -0.559320
     16 C                    -0.219219
     17 S                     0.345469
     18 C                    -0.100253
     19 C                    -0.215277
     20 S                     0.299896
     21 C                     0.118713
     22 C                     0.025949
     23 C                    -0.311292
     24 C                    -0.077942
     25 N                    -0.399248
     26 S                     0.269954
     27 C                     0.121786
     28 C                    -0.297456
     29 C                    -0.245621
     30 H                     0.083519
     31 H                     0.126637
     32 H                     0.104820
     33 H                     0.102185
     34 H                     0.128606
     35 H                     0.114666
     36 H                     0.115060
     37 H                     0.127755
     38 H                     0.115111
     39 C                    -0.170321
     40 H                     0.094408
     41 H                     0.086699
     42 H                     0.120833
     43 C                    -0.177267
     44 H                     0.086908
     45 C                    -0.179650
     46 H                     0.092542
     47 H                     0.097017
     48 H                     0.086418
     49 C                    -0.175907
     50 H                     0.101269
     51 C                    -0.316165
     52 H                     0.094482
     53 H                     0.095232
     54 H                     0.103037
     55 H                     0.103846
     56 C                     0.286232
     57 C                    -0.134115
     58 N                    -0.490940
     59 C                    -0.065813
     60 C                     0.076180
     61 C                     0.064392
     62 C                     0.050977
     63 C                     0.052204
     64 C                     0.244126
     65 N                    -0.508352
     66 N                    -0.573639
     67 C                     0.228549
     68 C                     0.247536
     69 S                     0.614126
     70 N                    -0.552019
     71 C                    -0.210164
     72 S                     0.359691
     73 C                    -0.134427
     74 C                    -0.254588
     75 S                     0.279233
     76 C                     0.165844
     77 C                     0.061951
     78 C                    -0.296512
     79 C                    -0.086953
     80 N                    -0.413223
     81 S                     0.269405
     82 C                     0.124500
     83 C                    -0.314086
     84 C                    -0.238037
     85 H                     0.088070
     86 H                     0.100064
     87 H                     0.112182
     88 H                     0.108756
     89 H                     0.132460
     90 H                     0.110023
     91 H                     0.115372
     92 H                     0.132538
     93 H                     0.115172
     94 C                    -0.189338
     95 H                     0.104995
     96 H                     0.138219
     97 H                     0.093183
     98 C                    -0.183707
     99 H                     0.098051
    100 C                    -0.178530
    101 H                     0.087621
    102 H                     0.084549
    103 H                     0.080667
    104 C                    -0.185000
    105 H                     0.087144
    106 C                    -0.315411
    107 H                     0.110037
    108 H                     0.098505
    109 H                     0.102549
    110 H                     0.105844
  ----------------------------------------
  Sum of atomic charges =     0.000000

                    Cartesian Multipole Moments
 -----------------------------------------------------------------
    Charge (ESU x 10^10)
                 0.0000
    Dipole Moment (Debye)
         X       2.7171      Y      -0.3670      Z      -0.3169
       Tot       2.7600
    Quadrupole Moments (Debye-Ang)
        XX    -421.7372     XY      -1.8836     YY    -400.8700
        XZ     -22.1369     YZ      22.0729     ZZ    -435.6787

 Total job time:  88.97s(wall), 1042.63s(cpu)
        *  Thank you very much for using Q-Chem.  Have a nice day.  *
