 Q-Chem 4.4, Q-Chem, Inc., Pleasanton, CA (2016)
 Q-Chem 4.4.2 for Intel X86 Linux

User input:
--------------------------------------------------------------
$comment
SP
$end

$rem
MEM_STATIC 5000
MEM_TOTAL 20000
JOBTYPE SP
EXCHANGE B3LYP
BASIS 6-31g(d,p)
$end

$molecule
0 1
C          13.860000     19.931000     15.414000
C          12.597000     19.817000     14.952000
N          14.906000     19.745000     14.682000
C          12.385000     19.620000     13.568000
C          14.699000     19.581000     13.329000
C          13.426000     19.576000     12.686000
C          13.187000     19.459000     11.158000
C          12.071000     18.781000     10.642000
C          13.919000     20.181000     10.163000
N          11.875000     18.528000      9.309000
N          14.840000     21.064000     10.479000
C          13.742000     19.948000      8.838000
C          12.688000     19.150000      8.405000
S          15.585000     21.498000      9.069000
N          14.620000     20.641000      8.020000
C          12.286000     19.006000      7.021000
S          12.880000     19.921000      5.674000
C          11.366000     18.060000      6.609000
C          11.935000     19.003000      4.509000
S          10.430000     16.760000      7.412000
C          11.186000     18.068000      5.219000
C          11.724000     19.355000      3.128000
C           9.879000     16.201000      5.824000
C          10.237000     17.106000      4.799000
N          10.576000     19.159000      2.489000
S          12.940000     20.238000      2.246000
C          10.688000     19.676000      1.182000
C          11.862000     20.347000      0.896000
C          14.160000     19.880000     16.904000
H          11.761000     19.898000     15.640000
H          11.370000     19.472000     13.211000
H          15.492000     19.378000     12.610000
H          11.416000     18.208000     11.296000
H           9.311000     15.280000      5.794000
H           9.828000     17.032000      3.798000
H           9.883000     19.582000      0.465000
H          12.217000     20.717000     -0.057000
H          14.982000     20.532000     17.223000
C          14.584000     18.396000     17.390000
H          13.252000     20.216000     17.419000
H          15.489000     18.088000     16.852000
H          13.818000     17.692000     17.042000
C          14.743000     18.270000     18.907000
H          15.490000     18.965000     19.311000
C          15.058000     16.841000     19.440000
H          13.792000     18.527000     19.391000
H          15.351000     16.915000     20.495000
H          15.998000     16.518000     18.977000
C          13.912000     15.828000     19.324000
H          13.073000     16.165000     19.946000
C          14.331000     14.468000     19.896000
H          13.547000     15.839000     18.290000
H          15.390000     14.317000     19.655000
H          13.784000     13.682000     19.361000
H          14.145000     14.391000     20.974000
C          25.986000     25.435000     -2.987000
C          25.345000     24.180000     -3.075000
N          25.314000     26.510000     -2.500000
C          24.087000     23.983000     -2.629000
C          24.060000     26.349000     -2.048000
C          23.382000     25.083000     -2.151000
C          21.895000     24.858000     -1.886000
C          21.459000     23.763000     -1.188000
C          20.958000     25.835000     -2.239000
N          20.174000     23.541000     -0.923000
N          21.222000     27.002000     -2.757000
C          19.620000     25.628000     -1.901000
C          19.193000     24.387000     -1.304000
S          19.783000     27.680000     -2.922000
N          18.781000     26.543000     -2.286000
C          17.758000     23.973000     -1.316000
S          16.516000     24.544000     -2.436000
C          17.287000     22.892000     -0.591000
C          15.379000     23.355000     -1.885000
S          18.097000     21.719000      0.404000
C          15.981000     22.542000     -0.903000
C          14.164000     23.136000     -2.646000
C          16.568000     20.731000      0.484000
C          15.594000     21.330000     -0.273000
N          13.259000     22.442000     -2.009000
S          14.127000     23.214000     -4.423000
C          12.223000     22.237000     -2.896000
C          12.560000     22.608000     -4.176000
C          27.419000     25.644000     -3.518000
H          25.951000     23.386000     -3.503000
H          23.649000     22.991000     -2.581000
H          23.494000     27.234000     -1.759000
H          22.020000     22.917000     -0.795000
H          16.498000     19.849000      1.108000
H          14.570000     20.977000     -0.312000
H          11.266000     21.781000     -2.681000
H          11.797000     22.540000     -4.940000
H          27.669000     24.814000     -4.190000
C          28.287000     25.683000     -2.245000
H          27.523000     26.486000     -4.214000
H          28.087000     24.710000     -1.780000
H          28.068000     26.474000     -1.517000
C          29.774000     25.778000     -2.534000
H          30.307000     25.580000     -1.596000
C          30.184000     27.177000     -3.096000
H          30.042000     25.032000     -3.292000
H          29.877000     27.976000     -2.410000
H          29.531000     27.343000     -3.962000
C          31.691000     27.314000     -3.388000
H          31.891000     28.388000     -3.299000
C          32.114000     26.799000     -4.767000
H          32.289000     26.858000     -2.589000
H          31.760000     25.766000     -4.872000
H          33.183000     26.570000     -4.858000
H          31.886000     27.464000     -5.609000
$end

--------------------------------------------------------------

             Standard Nuclear Orientation (Angstroms)
    I     Atom           X                Y                Z
 ----------------------------------------------------------------
    1      C      11.3130970100    -4.1534300003    -1.7694912732
    2      C      11.6360875995    -2.8542526854    -1.9410266441
    3      N      10.2696006190    -4.5487458503    -1.1218982986
    4      C      10.7277888320    -1.8569416423    -1.5172660604
    5      C       9.3714784701    -3.5774919086    -0.7340885689
    6      C       9.5192951906    -2.1787380340    -0.9699716233
    7      C       8.4837229349    -1.0860397290    -0.5968838084
    8      C       8.8873012176     0.1954013366    -0.1889262551
    9      C       7.0754653816    -1.1876432026    -0.8284445943
   10      N       8.0305051542     1.1571467741     0.2803926336
   11      N       6.5426307210    -2.2212850530    -1.4411906670
   12      C       6.2082124875    -0.2482994930    -0.3737481977
   13      C       6.6873686570     0.9498441507     0.1459345655
   14      S       4.9032846441    -2.0573592029    -1.3102183199
   15      N       4.8743964390    -0.5665461102    -0.5735251718
   16      C       5.8575503054     2.0936793384     0.4634854538
   17      S       4.1758706760     2.2835541179     0.0888240171
   18      C       6.3366821623     3.1899162077     1.1561306660
   19      C       4.0671768684     3.8330061949     0.9136621328
   20      S       7.9015437577     3.6382313188     1.9052146054
   21      C       5.3353287096     4.1397170870     1.4005351517
   22      C       2.9679152834     4.7602514275     0.8274864611
   23      C       7.1335641475     5.0713855891     2.6081386097
   24      C       5.8286228159     5.2659185994     2.1010892738
   25      N       3.1220708187     6.0794915307     0.8055178279
   26      S       1.3444364898     4.1834835664     0.5668632828
   27      C       1.8578598156     6.6833725660     0.6468350156
   28      C       0.7978899898     5.8210016898     0.4392454199
   29      C      12.3466846770    -5.2525718217    -1.9599769455
   30      H      12.5746249772    -2.5896680299    -2.4184609858
   31      H      11.0183651631    -0.8142130973    -1.6059259570
   32      H       8.4734394700    -3.7744648873    -0.1494976008
   33      H       9.9363501209     0.4143380204     0.0024715685
   34      H       7.7237362122     5.6595669285     3.2991557196
   35      H       5.2782814760     6.1847539580     2.2672939471
   36      H       1.7397188431     7.7590030001     0.6502817498
   37      H      -0.2611417936     6.0420113735     0.4120350986
   38      H      11.9479203892    -6.1797990048    -2.3886793991
   39      C      13.0324765064    -5.6933212514    -0.5622439571
   40      H      13.0967334971    -4.8610645317    -2.6576400513
   41      H      12.2560826172    -6.0725224504     0.1135903270
   42      H      13.3981337784    -4.7879943125    -0.0620900877
   43      C      14.1856403631    -6.6853173326    -0.7313678598
   44      H      13.8767881224    -7.6066968757    -1.2411913890
   45      C      14.9446915944    -7.0722794428     0.5722642024
   46      H      14.9610862230    -6.2314869109    -1.3617865039
   47      H      15.5966770015    -7.9289826235     0.3593682444
   48      H      14.2145213399    -7.5213061153     1.2560217961
   49      C      15.7950712531    -5.9573563550     1.1941499992
   50      H      16.5934556115    -5.6835796611     0.4927209307
   51      C      16.5073416148    -6.4591841080     2.4563642592
   52      H      15.1665033571    -5.0652861035     1.3019232171
   53      H      15.8301252588    -7.1539135973     2.9673358278
   54      H      16.6431722904    -5.6117679570     3.1394937451
   55      H      17.4751803098    -6.9248208099     2.2348248217
   56      C     -11.2530388731    -3.9304564495     0.8093625610
   57      C     -10.5537676460    -3.2087728836     1.8012509528
   58      N     -10.9050903949    -3.8037014580    -0.4972525424
   59      C      -9.4918097652    -2.4297916829     1.5084664787
   60      C      -9.8531122599    -3.0358480864    -0.8235717163
   61      C      -9.1428384620    -2.2743129554     0.1707242035
   62      C      -8.0960276285    -1.2025039288    -0.1249639592
   63      C      -6.9410484710    -1.1212757275     0.6069855780
   64      C      -8.2372657493    -0.3632853328    -1.2353111757
   65      N      -5.9985171453    -0.2125441007     0.3691294648
   66      N      -9.1884161495    -0.4191727834    -2.1253103382
   67      C      -7.2156459999     0.5439734392    -1.5190568510
   68      C      -6.0932314677     0.6944594339    -0.6266675955
   69      S      -8.8206197432     0.7521887618    -3.1501361448
   70      N      -7.4102956700     1.3304303498    -2.5354072008
   71      C      -5.2239389246     1.9082078291    -0.6703746633
   72      S      -5.6684828417     3.4876714235    -1.3266371561
   73      C      -4.0348078951     2.0002540598     0.0321364656
   74      C      -4.2375959889     4.2303246061    -0.6854507052
   75      S      -3.2561538609     0.9152643709     1.1450377505
   76      C      -3.4892788952     3.2761363119     0.0337455312
   77      C      -4.1368400461     5.6770857502    -0.6793325504
   78      C      -2.0650613968     2.2219911671     1.5856609706
   79      C      -2.3715995449     3.3717056876     0.9039595074
   80      N      -2.9308792065     6.1221310474    -0.4469037723
   81      S      -5.5394745089     6.7274405093    -0.3718371138
   82      C      -3.0253660203     7.4960315924    -0.3723414865
   83      C      -4.3320991799     7.9209822709    -0.3339309361
   84      C     -12.4753264095    -4.8025984368     1.1622258949
   85      H     -10.9203857560    -3.3511286399     2.8142573694
   86      H      -8.8819403972    -1.9828088317     2.2872332505
   87      H      -9.6479463128    -2.8563241506    -1.8784556391
   88      H      -6.6222913603    -1.6969311244     1.4741076965
   89      H      -1.2299765093     2.0251128252     2.2460185625
   90      H      -1.7549417247     4.2625486278     0.9329075422
   91      H      -2.2074973001     8.1983284215    -0.2835725713
   92      H      -4.5177079584     8.9868308902    -0.3316721679
   93      H     -12.8388093286    -4.5123238285     2.1555057242
   94      C     -11.9338530367    -6.2445289849     1.1063968615
   95      H     -13.3702259518    -4.5864479561     0.5650410166
   96      H     -11.1251207587    -6.2333280314     1.8471941626
   97      H     -11.5285802409    -6.5874408789     0.1462971823
   98      C     -12.9538379124    -7.2864363433     1.5280304816
   99      H     -12.4207650216    -8.2351772639     1.6653656872
  100      C     -14.0955944283    -7.4629512376     0.4761846989
  101      H     -13.4234909489    -6.9711365463     2.4676666151
  102      H     -13.6811126610    -7.7116163404    -0.5085063852
  103      H     -14.4996190315    -6.4553553109     0.3166993752
  104      C     -15.1429034931    -8.5243947670     0.8654960866
  105      H     -15.5524644997    -8.8691770653    -0.0909462529
  106      C     -16.2600971801    -8.0023560636     1.7738731327
  107      H     -14.6614915779    -9.4131813818     1.2923941088
  108      H     -15.7987909638    -7.5292959278     2.6495675330
  109      H     -16.7973477929    -8.7825037706     2.3272394982
  110      H     -17.0377215528    -7.4123769976     1.2734752543
 ----------------------------------------------------------------

    9   -5663.5089421406      8.82E-06 Convergence criterion met
 Total energy in the final basis set = -5663.5089421406

                    Orbital Energies (a.u.)
 --------------------------------------------------------------

 Alpha MOs
 -- Occupied --
-88.990 -88.984 -88.942 -88.931 -88.927 -88.922 -88.910 -88.909
-14.391 -14.389 -14.384 -14.380 -14.356 -14.351 -14.346 -14.344
-14.328 -14.327 -10.276 -10.269 -10.265 -10.260 -10.252 -10.251
-10.251 -10.249 -10.246 -10.244 -10.241 -10.240 -10.239 -10.236
-10.235 -10.232 -10.231 -10.230 -10.230 -10.230 -10.230 -10.229
-10.228 -10.227 -10.227 -10.225 -10.220 -10.217 -10.216 -10.213
-10.213 -10.207 -10.206 -10.203 -10.201 -10.196 -10.193 -10.192
-10.190 -10.183 -10.181 -10.180 -10.178 -10.176 -10.175 -10.174
-10.174 -10.173 -10.172 -10.171  -8.045  -8.041  -8.003  -7.991
 -7.986  -7.983  -7.969  -7.968  -6.010  -6.006  -6.004  -6.003
 -6.000  -5.998  -5.967  -5.964  -5.960  -5.955  -5.951  -5.951
 -5.948  -5.947  -5.947  -5.944  -5.943  -5.941  -5.934  -5.932
 -5.930  -5.928  -5.925  -5.924  -1.063  -1.036  -0.987  -0.962
 -0.960  -0.953  -0.948  -0.935  -0.930  -0.916  -0.911  -0.900
 -0.848  -0.841  -0.834  -0.831  -0.826  -0.812  -0.808  -0.807
 -0.805  -0.800  -0.799  -0.797  -0.781  -0.780  -0.769  -0.765
 -0.749  -0.747  -0.740  -0.738  -0.731  -0.723  -0.709  -0.706
 -0.693  -0.693  -0.678  -0.675  -0.658  -0.653  -0.646  -0.646
 -0.640  -0.638  -0.629  -0.626  -0.616  -0.607  -0.598  -0.597
 -0.594  -0.590  -0.589  -0.584  -0.583  -0.578  -0.560  -0.559
 -0.558  -0.549  -0.544  -0.539  -0.529  -0.518  -0.517  -0.511
 -0.510  -0.509  -0.505  -0.498  -0.490  -0.489  -0.485  -0.479
 -0.475  -0.471  -0.467  -0.462  -0.460  -0.456  -0.451  -0.446
 -0.445  -0.445  -0.443  -0.441  -0.436  -0.436  -0.434  -0.432
 -0.429  -0.425  -0.422  -0.419  -0.418  -0.417  -0.416  -0.414
 -0.413  -0.411  -0.409  -0.407  -0.404  -0.400  -0.400  -0.398
 -0.398  -0.395  -0.393  -0.391  -0.386  -0.383  -0.383  -0.382
 -0.381  -0.372  -0.372  -0.371  -0.368  -0.361  -0.357  -0.356
 -0.355  -0.355  -0.351  -0.348  -0.347  -0.344  -0.344  -0.341
 -0.341  -0.338  -0.337  -0.333  -0.332  -0.330  -0.326  -0.317
 -0.316  -0.315  -0.313  -0.312  -0.310  -0.304  -0.300  -0.298
 -0.298  -0.298  -0.297  -0.293  -0.288  -0.288  -0.285  -0.283
 -0.278  -0.271  -0.264  -0.264  -0.255  -0.252  -0.251  -0.250
 -0.247  -0.244  -0.233  -0.231  -0.198  -0.195

          Ground-State Mulliken Net Atomic Charges

     Atom                 Charge (a.u.)
  ----------------------------------------
      1 C                     0.278398
      2 C                    -0.110063
      3 N                    -0.481370
      4 C                    -0.089700
      5 C                     0.083913
      6 C                     0.060974
      7 C                     0.027648
      8 C                     0.049825
      9 C                     0.243802
     10 N                    -0.526744
     11 N                    -0.554425
     12 C                     0.222985
     13 C                     0.303248
     14 S                     0.602154
     15 N                    -0.567641
     16 C                    -0.239451
     17 S                     0.345890
     18 C                    -0.098677
     19 C                    -0.234125
     20 S                     0.282590
     21 C                     0.156269
     22 C                     0.055975
     23 C                    -0.316087
     24 C                    -0.067463
     25 N                    -0.434958
     26 S                     0.269120
     27 C                     0.102276
     28 C                    -0.310195
     29 C                    -0.220592
     30 H                     0.089913
     31 H                     0.092597
     32 H                     0.102637
     33 H                     0.112185
     34 H                     0.135340
     35 H                     0.122388
     36 H                     0.110987
     37 H                     0.156417
     38 H                     0.111204
     39 C                    -0.169995
     40 H                     0.082964
     41 H                     0.114472
     42 H                     0.090326
     43 C                    -0.180344
     44 H                     0.088783
     45 C                    -0.181016
     46 H                     0.087320
     47 H                     0.086837
     48 H                     0.089257
     49 C                    -0.173929
     50 H                     0.092914
     51 C                    -0.320792
     52 H                     0.097102
     53 H                     0.105318
     54 H                     0.101055
     55 H                     0.108065
     56 C                     0.255353
     57 C                    -0.116633
     58 N                    -0.480776
     59 C                    -0.053388
     60 C                     0.092368
     61 C                     0.010624
     62 C                     0.018599
     63 C                     0.048514
     64 C                     0.257697
     65 N                    -0.514773
     66 N                    -0.531181
     67 C                     0.171513
     68 C                     0.300849
     69 S                     0.578674
     70 N                    -0.551316
     71 C                    -0.213870
     72 S                     0.324540
     73 C                    -0.113927
     74 C                    -0.239371
     75 S                     0.272227
     76 C                     0.161299
     77 C                     0.061423
     78 C                    -0.318240
     79 C                    -0.043277
     80 N                    -0.435098
     81 S                     0.302292
     82 C                     0.115626
     83 C                    -0.291667
     84 C                    -0.215197
     85 H                     0.081022
     86 H                     0.100055
     87 H                     0.117350
     88 H                     0.118824
     89 H                     0.141245
     90 H                     0.109649
     91 H                     0.116467
     92 H                     0.123472
     93 H                     0.095610
     94 C                    -0.169773
     95 H                     0.118553
     96 H                     0.090901
     97 H                     0.117936
     98 C                    -0.178387
     99 H                     0.086363
    100 C                    -0.174727
    101 H                     0.086895
    102 H                     0.089044
    103 H                     0.092080
    104 C                    -0.173563
    105 H                     0.091283
    106 C                    -0.319955
    107 H                     0.094314
    108 H                     0.101484
    109 H                     0.096973
    110 H                     0.108415
  ----------------------------------------
  Sum of atomic charges =     0.000000

                    Cartesian Multipole Moments
 -----------------------------------------------------------------
    Charge (ESU x 10^10)
                 0.0000
    Dipole Moment (Debye)
         X      -2.1475      Y       3.6408      Z       1.9517
       Tot       4.6558
    Quadrupole Moments (Debye-Ang)
        XX    -420.6310     XY     -13.4249     YY    -415.5896
        XZ     -15.4147     YZ      -1.2884     ZZ    -442.3756

 Total job time:  79.38s(wall), 927.35s(cpu)
        *  Thank you very much for using Q-Chem.  Have a nice day.  *
