 Q-Chem 4.4, Q-Chem, Inc., Pleasanton, CA (2016)
 Q-Chem 4.4.2 for Intel X86 Linux

User input:
--------------------------------------------------------------
$comment
SP
$end

$rem
MEM_STATIC 5000
MEM_TOTAL 20000
JOBTYPE SP
EXCHANGE B3LYP
BASIS 6-31g(d,p)
$end

$molecule
0 1
C          -0.533000    -19.287000     -5.875000
C           0.167000    -18.790000     -4.747000
N          -1.568000    -20.211000     -5.719000
C          -0.136000    -19.269000     -3.480000
C          -1.837000    -20.729000     -4.460000
C          -1.157000    -20.236000     -3.281000
C          -1.661000    -20.540000     -1.968000
C          -3.075000    -20.354000     -1.720000
C          -0.857000    -20.918000     -0.848000
N          -3.564000    -20.535000     -0.502000
N           0.507000    -21.106000     -0.947000
C          -1.433000    -21.048000      0.417000
C          -2.843000    -20.885000      0.567000
S           1.010000    -21.174000      0.646000
N          -0.479000    -21.155000      1.363000
C          -3.671000    -21.112000      1.744000
S          -5.292000    -20.487000      1.800000
C          -3.375000    -21.923000      2.839000
C          -5.547000    -21.260000      3.445000
S          -2.073000    -22.958000      3.152000
C          -4.450000    -21.998000      3.733000
C          -6.788000    -21.202000      4.148000
C          -2.858000    -23.363000      4.688000
C          -4.152000    -22.936000      4.708000
N          -7.973000    -21.083000      3.489000
S          -6.947000    -21.523000      5.841000
C          -9.003000    -21.173000      4.291000
C          -8.695000    -21.417000      5.614000
C          -0.228000    -18.718000     -7.249000
H           0.985000    -18.090000     -4.890000
H           0.273000    -18.833000     -2.574000
H          -2.561000    -21.541000     -4.418000
H          -3.830000    -20.103000     -2.462000
H          -2.215000    -23.861000      5.402000
H          -4.738000    -23.128000      5.600000
H         -10.018000    -21.266000      3.929000
H          -9.315000    -21.409000      6.500000
H           0.658000    -18.071000     -7.276000
C          -1.429000    -17.777000     -7.568000
H          -0.116000    -19.487000     -8.024000
H          -1.837000    -17.303000     -6.667000
H          -2.256000    -18.445000     -7.839000
C          -1.337000    -16.705000     -8.744000
H          -1.860000    -15.764000     -8.534000
C          -1.980000    -17.172000    -10.066000
H          -0.272000    -16.528000     -8.941000
H          -3.062000    -16.992000    -10.035000
H          -1.827000    -18.243000    -10.247000
C          -1.595000    -16.333000    -11.271000
H          -1.896000    -15.308000    -11.021000
C          -2.309000    -16.775000    -12.486000
H          -0.504000    -16.329000    -11.382000
H          -3.348000    -17.047000    -12.260000
H          -1.880000    -17.671000    -12.949000
H          -2.106000    -16.045000    -13.280000
C           6.244000    -14.591000    -17.982000
C           6.727000    -13.534000    -17.212000
N           5.097000    -15.270000    -17.651000
C           6.130000    -13.274000    -15.925000
C           4.477000    -14.993000    -16.493000
C           4.980000    -14.021000    -15.570000
C           4.429000    -13.975000    -14.218000
C           5.409000    -13.968000    -13.144000
C           3.041000    -13.959000    -13.903000
N           4.962000    -13.928000    -11.861000
N           2.100000    -14.171000    -14.798000
C           2.626000    -14.011000    -12.557000
C           3.623000    -14.061000    -11.544000
S           0.679000    -14.040000    -13.962000
N           1.270000    -14.067000    -12.397000
C           3.276000    -14.137000    -10.078000
S           1.634000    -14.416000     -9.497000
C           4.176000    -13.978000     -9.006000
C           2.231000    -14.334000     -7.822000
S           5.844000    -13.713000     -8.972000
C           3.539000    -13.938000     -7.749000
C           1.530000    -14.545000     -6.582000
C           5.742000    -13.307000     -7.207000
C           4.442000    -13.553000     -6.701000
N           0.233000    -14.638000     -6.825000
S           1.983000    -14.944000     -4.958000
C          -0.487000    -14.820000     -5.709000
C           0.309000    -15.065000     -4.607000
C           6.967000    -14.951000    -19.212000
H           7.657000    -13.030000    -17.458000
H           6.528000    -12.587000    -15.185000
H           3.744000    -15.716000    -16.138000
H           6.483000    -14.056000    -13.304000
H           6.655000    -13.050000     -6.687000
H           4.143000    -13.393000     -5.671000
H          -1.554000    -14.992000     -5.748000
H          -0.161000    -15.422000     -3.700000
H           7.514000    -14.045000    -19.503000
C           6.165000    -15.287000    -20.428000
H           7.770000    -15.663000    -18.986000
H           5.362000    -14.572000    -20.645000
H           5.605000    -16.231000    -20.423000
C           7.140000    -15.358000    -21.635000
H           7.812000    -14.490000    -21.637000
C           6.554000    -15.292000    -23.000000
H           7.817000    -16.207000    -21.476000
H           5.965000    -14.423000    -23.317000
H           5.787000    -16.072000    -22.917000
C           7.653000    -15.367000    -24.021000
H           8.363000    -14.537000    -23.923000
C           7.018000    -15.370000    -25.426000
H           8.264000    -16.247000    -23.785000
H           7.836000    -15.262000    -26.149000
H           6.409000    -14.494000    -25.679000
H           6.360000    -16.198000    -25.717000
$end

--------------------------------------------------------------

             Standard Nuclear Orientation (Angstroms)
    I     Atom           X                Y                Z
 ----------------------------------------------------------------
    1      C       1.9143492295    -1.0507470100    -1.0215698303
    2      C       2.4541949521     0.2524835281    -0.8817493728
    3      N       2.7466947472    -2.1407455477    -1.2831823816
    4      C       3.8142319756     0.4600391997    -1.0654854275
    5      C       4.0976434511    -1.9274627397    -1.5181590682
    6      C       4.6908428795    -0.6154994849    -1.3686369753
    7      C       6.1201024986    -0.4653915085    -1.2973240258
    8      C       6.8542966302    -1.3389887803    -0.4066597885
    9      C       6.8723101592     0.5515800979    -1.9633963844
   10      N       8.1586862568    -1.1743525512    -0.2427433031
   11      N       6.2876632205     1.4610991144    -2.8216528239
   12      C       8.2374393507     0.6947238122    -1.7087728042
   13      C       8.8923058974    -0.2344969986    -0.8457157430
   14      S       7.4779575068     2.6145812937    -3.0406513945
   15      N       8.6973768005     1.8503174474    -2.2279470453
   16      C      10.3131054933    -0.3671082366    -0.5521433195
   17      S      10.8346348340    -1.3131107224     0.8096527165
   18      C      11.3800562750     0.0723842093    -1.3349743480
   19      C      12.5892487430    -1.0008208579     0.3710366306
   20      S      11.4294610050     0.7917404776    -2.8661450543
   21      C      12.6117542002    -0.3271984751    -0.8023019351
   22      C      13.6839401564    -1.5674930849     1.0908889048
   23      C      13.1957935523     0.7984282809    -2.7262500740
   24      C      13.6123002230     0.0011697444    -1.7024991184
   25      N      13.5621630592    -2.7497322221     1.7543253833
   26      S      15.3057451347    -0.9715124836     0.9953549574
   27      C      14.7006244657    -3.1674596436     2.2458672709
   28      C      15.7899301078    -2.3703354495     1.9582299347
   29      C       0.4342462124    -1.2733026778    -0.7677469915
   30      H       1.7884039731     1.0915638669    -0.7021955996
   31      H       4.2992211733     1.4055062019    -0.8439213828
   32      H       4.6714799197    -2.7920093952    -1.8476356041
   33      H       6.4463276299    -2.1815096340     0.1476956083
   34      H      13.6990543849     1.4397775505    -3.4380426343
   35      H      14.6781338737    -0.0760242681    -1.5182066513
   36      H      14.8293247998    -4.1590081349     2.6584031039
   37      H      16.8046327629    -2.3938015094     2.3314428306
   38      H      -0.1432780618    -0.3462202279    -0.6613616355
   39      C       0.3666412727    -1.9577099874     0.6310593592
   40      H      -0.0502750860    -1.8945193260    -1.5318536511
   41      H       1.1686346731    -1.6200858717     1.2987101228
   42      H       0.6692409870    -2.9981240170     0.4591115185
   43      C      -1.0062425378    -2.0351403945     1.4371726111
   44      H      -0.8933925655    -1.9387787470     2.5239519432
   45      C      -1.7456932075    -3.3799869308     1.2828272168
   46      H      -1.6628434595    -1.2513537246     1.0385290538
   47      H      -1.3321692772    -4.1125689094     1.9873885014
   48      H      -1.6439839759    -3.7967253750     0.2732751867
   49      C      -3.1932492582    -3.3454577741     1.7384149881
   50      H      -3.1613916465    -3.0255947228     2.7874139018
   51      C      -3.8189209082    -4.6802682185     1.6478552624
   52      H      -3.7344930390    -2.5701950655     1.1828603982
   53      H      -3.1194758089    -5.4689688217     1.9533203367
   54      H      -4.1252916559    -4.9564321648     0.6324260725
   55      H      -4.8050778172    -4.6228893259     2.1261305110
   56      C     -12.6978095843    -0.0344560037    -1.1290937361
   57      C     -12.5459948187     1.1554475002    -0.4187980733
   58      N     -11.7420822711    -1.0206269946    -1.1128740123
   59      C     -11.2699335186     1.4547019944     0.1832752660
   60      C     -10.5730672164    -0.7965558458    -0.4921575536
   61      C     -10.2719410420     0.4502134626     0.1439330994
   62      C      -8.8945313729     0.7286813453     0.5424544186
   63      C      -8.3687997398     2.0153285788     0.1157576332
   64      C      -8.0622743599    -0.1617335387     1.2776649997
   65      N      -7.0914928129     2.3357547334     0.4523762510
   66      N      -8.3881143619    -1.4135777340     1.5188379743
   67      C      -6.7161208807     0.1766361519     1.5226583930
   68      C      -6.2329132350     1.4220655576     1.0347096594
   69      S      -7.1271723675    -2.0202037496     2.4005001341
   70      N      -6.0091344625    -0.7969485635     2.1705588532
   71      C      -4.8037116463     1.8624186481     1.2317197467
   72      S      -3.5502626777     0.7905752885     1.8574860734
   73      C      -4.2925764021     3.1500149257     0.9761779927
   74      C      -2.3723259662     2.1185862530     1.7247834673
   75      S      -5.0216721411     4.5443892345     0.3615686125
   76      C      -2.9603402435     3.3129723286     1.4074664141
   77      C      -0.9536543596     2.1207253441     1.9715390084
   78      C      -3.5783047470     5.5200074801     0.8668651635
   79      C      -2.5387102959     4.6841263634     1.3434133101
   80      N      -0.6074253200     0.9745234522     2.5339033698
   81      S       0.3827184013     3.1150798159     1.4949332718
   82      C       0.7032984682     0.9119831887     2.8078958271
   83      C       1.4034640054     1.9687604793     2.2592292812
   84      C     -13.9460871394    -0.2506284059    -1.8776267268
   85      H     -13.2876808968     1.9470557552    -0.4706645568
   86      H     -10.9987717530     2.4121657067     0.6165275442
   87      H      -9.7520520557    -1.4741608545    -0.7220021925
   88      H      -8.9179020007     2.7150975977    -0.5132336444
   89      H      -3.5781484872     6.5810098905     0.6564088478
   90      H      -1.5758901938     5.0396697921     1.6933666230
   91      H       1.1555471822     0.0103385184     3.1978983773
   92      H       2.4843409623     1.9191363465     2.2437228477
   93      H     -14.6908453019     0.3932648229    -1.3923816452
   94      C     -14.5684811215    -1.6090631171    -1.8324950713
   95      H     -13.8651461017     0.1791462160    -2.8833957474
   96      H     -14.6425519840    -2.0330836585    -0.8236129732
   97      H     -14.0538902717    -2.4220162440    -2.3607606019
   98      C     -15.9859308214    -1.5028121218    -2.4586436753
   99      H     -16.5208157075    -0.6346008501    -2.0522948765
  100      C     -16.9450621520    -2.6058221291    -2.1858561858
  101      H     -15.8705434841    -1.2589969634    -3.5224345057
  102      H     -17.2386191363    -2.8537570587    -1.1587614640
  103      H     -16.3279001515    -3.4692712128    -2.4636056144
  104      C     -18.2512875743    -2.3136497687    -2.8672352712
  105      H     -18.7039828844    -1.3820738269    -2.5069059485
  106      C     -19.2043566350    -3.5024652445    -2.6313621484
  107      H     -18.0333043349    -2.0941721308    -3.9197227409
  108      H     -20.1936956098    -3.1988179812    -2.9954002405
  109      H     -19.4366295817    -3.7306032561    -1.5843338174
  110      H     -18.9399955969    -4.4905176801    -3.0277137927
 ----------------------------------------------------------------

   10   -5663.4633861921      5.06E-06 Convergence criterion met
 Total energy in the final basis set = -5663.4633861921

                    Orbital Energies (a.u.)
 --------------------------------------------------------------

 Alpha MOs
 -- Occupied --
-88.991 -88.986 -88.942 -88.929 -88.928 -88.920 -88.913 -88.910
-14.392 -14.387 -14.386 -14.383 -14.349 -14.343 -14.338 -14.337
-14.334 -14.327 -10.268 -10.267 -10.266 -10.262 -10.259 -10.258
-10.257 -10.255 -10.245 -10.242 -10.241 -10.239 -10.239 -10.238
-10.236 -10.236 -10.233 -10.231 -10.229 -10.228 -10.227 -10.227
-10.227 -10.227 -10.226 -10.225 -10.225 -10.222 -10.216 -10.214
-10.213 -10.210 -10.209 -10.208 -10.207 -10.202 -10.201 -10.198
-10.189 -10.182 -10.178 -10.175 -10.174 -10.170 -10.169 -10.168
-10.166 -10.163 -10.162 -10.161  -8.046  -8.041  -8.003  -7.990
 -7.985  -7.978  -7.973  -7.972  -6.011  -6.006  -6.006  -6.004
 -6.000  -5.998  -5.967  -5.963  -5.960  -5.954  -5.951  -5.950
 -5.948  -5.946  -5.942  -5.942  -5.939  -5.937  -5.936  -5.934
 -5.934  -5.932  -5.929  -5.928  -1.033  -1.027  -0.982  -0.972
 -0.961  -0.942  -0.929  -0.922  -0.916  -0.912  -0.905  -0.894
 -0.851  -0.843  -0.830  -0.827  -0.818  -0.815  -0.814  -0.806
 -0.804  -0.798  -0.794  -0.793  -0.792  -0.785  -0.767  -0.765
 -0.753  -0.751  -0.740  -0.740  -0.726  -0.725  -0.711  -0.711
 -0.691  -0.690  -0.676  -0.674  -0.656  -0.648  -0.643  -0.641
 -0.634  -0.634  -0.622  -0.621  -0.610  -0.609  -0.602  -0.601
 -0.596  -0.594  -0.584  -0.579  -0.578  -0.574  -0.572  -0.559
 -0.551  -0.544  -0.540  -0.538  -0.525  -0.523  -0.519  -0.519
 -0.504  -0.503  -0.502  -0.499  -0.483  -0.481  -0.477  -0.476
 -0.474  -0.474  -0.471  -0.466  -0.462  -0.461  -0.454  -0.451
 -0.448  -0.445  -0.444  -0.443  -0.441  -0.437  -0.433  -0.432
 -0.431  -0.428  -0.423  -0.421  -0.421  -0.418  -0.415  -0.413
 -0.412  -0.410  -0.407  -0.405  -0.403  -0.401  -0.398  -0.396
 -0.394  -0.392  -0.391  -0.389  -0.387  -0.383  -0.381  -0.378
 -0.376  -0.375  -0.371  -0.370  -0.369  -0.360  -0.359  -0.357
 -0.354  -0.351  -0.350  -0.349  -0.348  -0.347  -0.341  -0.341
 -0.338  -0.334  -0.333  -0.329  -0.328  -0.326  -0.321  -0.315
 -0.312  -0.311  -0.307  -0.305  -0.303  -0.301  -0.299  -0.297
 -0.294  -0.294  -0.292  -0.285  -0.281  -0.281  -0.278  -0.277
 -0.269  -0.267  -0.263  -0.262  -0.256  -0.255  -0.245  -0.245
 -0.243  -0.242  -0.232  -0.230  -0.191  -0.190

          Ground-State Mulliken Net Atomic Charges

     Atom                 Charge (a.u.)
  ----------------------------------------
      1 C                     0.266856
      2 C                    -0.120053
      3 N                    -0.488666
      4 C                    -0.049135
      5 C                     0.062933
      6 C                     0.029481
      7 C                    -0.028035
      8 C                     0.077692
      9 C                     0.221948
     10 N                    -0.507134
     11 N                    -0.556897
     12 C                     0.224306
     13 C                     0.306649
     14 S                     0.600885
     15 N                    -0.560136
     16 C                    -0.213915
     17 S                     0.341088
     18 C                    -0.114091
     19 C                    -0.202799
     20 S                     0.275255
     21 C                     0.172890
     22 C                     0.004908
     23 C                    -0.291722
     24 C                    -0.100962
     25 N                    -0.412495
     26 S                     0.268138
     27 C                     0.144659
     28 C                    -0.316793
     29 C                    -0.225728
     30 H                     0.098821
     31 H                     0.094872
     32 H                     0.114548
     33 H                     0.126827
     34 H                     0.137477
     35 H                     0.107811
     36 H                     0.116814
     37 H                     0.130977
     38 H                     0.108500
     39 C                    -0.195430
     40 H                     0.120928
     41 H                     0.086196
     42 H                     0.116985
     43 C                    -0.170136
     44 H                     0.095513
     45 C                    -0.186189
     46 H                     0.105471
     47 H                     0.084512
     48 H                     0.085813
     49 C                    -0.171469
     50 H                     0.091813
     51 C                    -0.315401
     52 H                     0.101132
     53 H                     0.100930
     54 H                     0.099475
     55 H                     0.092517
     56 C                     0.283061
     57 C                    -0.128425
     58 N                    -0.490389
     59 C                    -0.087845
     60 C                     0.103425
     61 C                     0.034657
     62 C                    -0.034055
     63 C                     0.075518
     64 C                     0.245679
     65 N                    -0.532335
     66 N                    -0.536272
     67 C                     0.217926
     68 C                     0.309629
     69 S                     0.596112
     70 N                    -0.572392
     71 C                    -0.230478
     72 S                     0.388503
     73 C                    -0.113938
     74 C                    -0.223631
     75 S                     0.285517
     76 C                     0.133300
     77 C                     0.043748
     78 C                    -0.316805
     79 C                    -0.079674
     80 N                    -0.418648
     81 S                     0.286114
     82 C                     0.126744
     83 C                    -0.318844
     84 C                    -0.230715
     85 H                     0.090294
     86 H                     0.101593
     87 H                     0.113799
     88 H                     0.127418
     89 H                     0.134590
     90 H                     0.114454
     91 H                     0.121083
     92 H                     0.134722
     93 H                     0.107021
     94 C                    -0.173819
     95 H                     0.118768
     96 H                     0.099003
     97 H                     0.110552
     98 C                    -0.185746
     99 H                     0.078191
    100 C                    -0.157163
    101 H                     0.091101
    102 H                     0.089366
    103 H                     0.088103
    104 C                    -0.172591
    105 H                     0.097247
    106 C                    -0.328144
    107 H                     0.093733
    108 H                     0.092896
    109 H                     0.100923
    110 H                     0.108684
  ----------------------------------------
  Sum of atomic charges =     0.000000

                    Cartesian Multipole Moments
 -----------------------------------------------------------------
    Charge (ESU x 10^10)
                 0.0000
    Dipole Moment (Debye)
         X       3.0625      Y       5.3381      Z      -0.0093
       Tot       6.1542
    Quadrupole Moments (Debye-Ang)
        XX    -354.9608     XY      -6.4200     YY    -433.7190
        XZ      -4.6746     YZ     -11.0188     ZZ    -446.5058

 Total job time:  91.62s(wall), 1086.44s(cpu)
        *  Thank you very much for using Q-Chem.  Have a nice day.  *
