 Q-Chem 4.4, Q-Chem, Inc., Pleasanton, CA (2016)
 Q-Chem 4.4.2 for Intel X86 Linux

User input:
--------------------------------------------------------------
$comment
SP
$end

$rem
MEM_STATIC 5000
MEM_TOTAL 20000
JOBTYPE SP
EXCHANGE B3LYP
BASIS 6-31g(d,p)
$end

$molecule
0 1
C         -23.348000      0.962000    -12.701000
C         -22.755000     -0.352000    -12.780000
N         -22.582000      2.060000    -12.366000
C         -21.366000     -0.409000    -12.738000
C         -21.275000      1.967000    -12.278000
C         -20.592000      0.743000    -12.503000
C         -19.058000      0.598000    -12.405000
C         -18.325000     -0.308000    -13.177000
C         -18.290000      1.338000    -11.492000
N         -17.069000     -0.599000    -12.918000
N         -18.767000      2.245000    -10.699000
C         -16.984000      1.047000    -11.200000
C         -16.359000      0.081000    -12.003000
S         -17.601000      2.746000     -9.666000
N         -16.424000      1.747000    -10.175000
C         -14.985000     -0.326000    -11.765000
S         -14.024000     -0.097000    -10.313000
C         -14.271000     -1.139000    -12.643000
C         -12.562000     -0.921000    -11.018000
S         -14.691000     -1.729000    -14.208000
C         -12.973000     -1.415000    -12.274000
C         -11.279000     -1.022000    -10.302000
C         -13.158000     -2.476000    -14.301000
C         -12.313000     -2.194000    -13.274000
N         -10.426000     -1.877000    -10.826000
S         -11.086000     -0.778000     -8.615000
C          -9.476000     -2.229000     -9.935000
C          -9.589000     -1.700000     -8.674000
C         -24.767000      1.224000    -13.065000
H         -23.332000     -1.246000    -13.001000
H         -20.828000     -1.351000    -12.683000
H         -20.706000      2.860000    -12.027000
H         -18.837000     -0.945000    -13.897000
H         -12.893000     -2.988000    -15.217000
H         -11.282000     -2.513000    -13.179000
H          -8.750000     -2.973000    -10.235000
H          -8.962000     -1.875000     -7.809000
H         -24.614000      2.144000    -13.643000
C         -25.690000      1.389000    -11.822000
H         -25.135000      0.437000    -13.735000
H         -25.401000      2.113000    -11.051000
H         -25.634000      0.401000    -11.349000
C         -27.144000      1.564000    -12.254000
H         -27.555000      0.781000    -12.904000
C         -27.405000      2.948000    -12.834000
H         -27.728000      1.489000    -11.329000
H         -26.809000      3.167000    -13.729000
H         -27.086000      3.747000    -12.153000
C         -28.929000      2.965000    -13.079000
H         -29.199000      2.230000    -13.846000
C         -29.244000      4.442000    -13.504000
H         -29.541000      2.755000    -12.193000
H         -28.840000      5.163000    -12.784000
H         -30.335000      4.517000    -13.587000
H         -28.799000      4.574000    -14.498000
C         -16.083000      6.184000     -9.364000
C         -15.573000      5.266000     -8.423000
N         -15.698000      6.154000    -10.675000
C         -14.737000      4.229000     -8.851000
C         -14.898000      5.187000    -11.085000
C         -14.302000      4.261000    -10.230000
C         -13.264000      3.342000    -10.766000
C         -12.176000      3.085000     -9.943000
C         -13.203000      2.780000    -12.076000
N         -11.014000      2.552000    -10.380000
N         -14.263000      2.723000    -12.927000
C         -12.056000      2.110000    -12.517000
C         -10.928000      2.015000    -11.624000
S         -13.752000      1.815000    -14.163000
N         -12.192000      1.565000    -13.743000
C          -9.574000      1.531000    -12.006000
S          -9.279000      0.273000    -13.288000
C          -8.377000      1.776000    -11.379000
C          -7.489000      0.331000    -13.052000
S          -8.037000      2.821000     -9.965000
C          -7.246000      1.146000    -11.960000
C          -6.640000     -0.678000    -13.515000
C          -6.279000      2.450000    -10.260000
C          -6.086000      1.654000    -11.364000
N          -7.250000     -1.625000    -14.207000
S          -4.863000     -0.737000    -13.359000
C          -6.240000     -2.413000    -14.728000
C          -4.963000     -2.109000    -14.282000
C         -16.922000      7.428000     -9.005000
H         -15.846000      5.410000     -7.382000
H         -14.465000      3.441000     -8.155000
H         -14.551000      5.237000    -12.117000
H         -12.086000      3.561000     -8.967000
H          -5.481000      2.998000     -9.777000
H          -5.109000      1.451000    -11.787000
H          -6.436000     -3.235000    -15.403000
H          -4.023000     -2.636000    -14.380000
H         -16.984000      7.547000     -7.916000
C         -18.299000      7.288000     -9.689000
H         -16.441000      8.351000     -9.351000
H         -18.234000      7.482000    -10.767000
H         -18.811000      8.219000     -9.416000
C         -19.174000      6.084000     -9.226000
H         -18.696000      5.098000     -9.279000
C         -20.497000      6.062000     -9.905000
H         -19.401000      6.133000     -8.154000
H         -20.294000      5.836000    -10.960000
H         -20.992000      7.033000     -9.785000
C         -21.346000      4.830000     -9.537000
H         -20.820000      3.884000     -9.718000
C         -22.728000      4.845000    -10.324000
H         -21.613000      4.809000     -8.473000
H         -23.466000      4.051000    -10.156000
H         -22.531000      4.716000    -11.395000
H         -23.300000      5.767000    -10.162000
$end

--------------------------------------------------------------

             Standard Nuclear Orientation (Angstroms)
    I     Atom           X                Y                Z
 ----------------------------------------------------------------
    1      C       8.1206907679     2.3879258136     0.0709780726
    2      C       7.2927821687     3.4308489887     0.6289786122
    3      N       7.5769680033     1.1668982726    -0.2725947716
    4      C       5.9181332445     3.2261139117     0.5764630560
    5      C       6.2768567582     0.9819554330    -0.2603924651
    6      C       5.3751418074     2.0106376345     0.1190980827
    7      C       3.8424897814     1.8263417059     0.1473430428
    8      C       2.9428476192     2.8654137449    -0.1077692417
    9      C       3.2386200356     0.6036350187     0.4809935895
   10      N       1.6585188910     2.7656425736     0.1565098370
   11      N       3.8872363308    -0.4897113926     0.7318272523
   12      C       1.9056434608     0.4783727265     0.7692015162
   13      C       1.1005129918     1.6017602777     0.5276330212
   14      S       2.8496618163    -1.6408860419     1.2570720084
   15      N       1.5003127327    -0.7346574900     1.2366303286
   16      C      -0.3216055980     1.5904667307     0.8236400688
   17      S      -1.2022679528     0.4827969869     1.8637206213
   18      C      -1.1868293424     2.6100431375     0.4318482582
   19      C      -2.8019340677     1.2972897815     1.5618683256
   20      S      -0.9063971239     3.9890343045    -0.5648794539
   21      C      -2.5080479606     2.4334374528     0.7787384352
   22      C      -4.0708917983     0.7958826163     2.1161995736
   23      C      -2.5526819523     4.4084567838    -0.3900136553
   24      C      -3.3156603439     3.4970640103     0.2699145124
   25      N      -5.0753769379     1.6431399832     2.0363587403
   26      S      -4.1908324930    -0.3192738645     3.4141958189
   27      C      -6.0612834296     1.3160111847     2.8973233963
   28      C      -5.8337748641     0.2349403476     3.7111149530
   29      C       9.5582601135     2.5937356951    -0.2541952185
   30      H       7.6903670359     4.3903059606     0.9489389102
   31      H       5.2153168457     3.8968870003     1.0622053469
   32      H       5.8873787382     0.0090357708    -0.5535565881
   33      H       3.3171259998     3.8588408452    -0.3513493930
   34      H      -2.9213910048     5.2703382845    -0.9309747567
   35      H      -4.3865001620     3.5435217355     0.4276825818
   36      H      -6.9171366626     1.9747217734     2.9623434232
   37      H      -6.4698267550    -0.1732262247     4.4862388408
   38      H       9.5705499091     2.0991220015    -1.2335313482
   39      C      10.5136810398     1.9612830516     0.8000236902
   40      H       9.7639108806     3.6628060860    -0.3901704417
   41      H      10.3753970719     0.9054625541     1.0612871998
   42      H      10.2819029029     2.5328360049     1.7070050113
   43      C      11.9684903216     2.2811716771     0.4645147919
   44      H      12.2174194965     3.3436124264     0.3471950575
   45      C      12.4737150018     1.4678195230    -0.7200455890
   46      H      12.5416676539     1.9590520059     1.3420184461
   47      H      11.9159378641     1.6517480553    -1.6470067315
   48      H      12.3185941757     0.3911055439    -0.5767014698
   49      C      13.9706372780     1.8342070180    -0.8087806013
   50      H      14.0882679062     2.8939999575    -1.0625835973
   51      C      14.5484327450     0.8712055311    -1.9042985311
   52      H      14.5456765535     1.6500872968     0.1072269096
   53      H      14.2958704295    -0.1746260625    -1.6947620074
   54      H      15.6330559945     1.0327578549    -1.9212765564
   55      H      14.1214158685     1.2046184329    -2.8582258994
   56      C       2.0014417773    -4.9288383471    -0.3816056304
   57      C       1.3433771517    -4.7350602206     0.8503464734
   58      N       1.5986983492    -4.2846864597    -1.5177007308
   59      C       0.3231611827    -3.7826020740     0.9474642143
   60      C       0.6271182575    -3.3942398504    -1.4381648181
   61      C      -0.1181668526    -3.1632394548    -0.2827835296
   62      C      -1.3164758158    -2.2868547943    -0.3556296382
   63      C      -2.4212932396    -2.6810122217     0.3867586580
   64      C      -1.4997342569    -1.1439950108    -1.1898675293
   65      N      -3.6682773473    -2.1999821385     0.1894196239
   66      N      -0.4811756010    -0.4769877329    -1.7970656483
   67      C      -2.7574953114    -0.5436811603    -1.3189039993
   68      C      -3.8705002136    -1.1165866438    -0.6034619021
   69      S      -1.1697734191     0.8423257587    -2.4283547703
   70      N      -2.7428346190     0.5738891617    -2.0735023293
   71      C      -5.2962219467    -0.7371086884    -0.7953212811
   72      S      -5.8383025986     0.9350796150    -1.2676006952
   73      C      -6.4176791206    -1.4675816054    -0.4875776791
   74      C      -7.5827581756     0.4664256094    -1.2476466817
   75      S      -6.5371465163    -3.1356021969     0.1530906031
   76      C      -7.6543078379    -0.8251727919    -0.7553132421
   77      C      -8.6110485661     1.4115140209    -1.1958995340
   78      C      -8.3375377176    -2.9631266002    -0.0568467467
   79      C      -8.6909916379    -1.7535641322    -0.6061280609
   80      N      -8.1976853840     2.6661861588    -1.2478774708
   81      S     -10.3656262783     1.0846568143    -1.1829605149
   82      C      -9.3439269738     3.4297188094    -1.3729099040
   83      C     -10.5356308858     2.7308539470    -1.2567604737
   84      C       3.0620730360    -6.0181748628    -0.6437988584
   85      H       1.6533701866    -5.3526045035     1.6878961000
   86      H      -0.0804524350    -3.5305345053     1.9236312022
   87      H       0.2805993970    -2.9561043766    -2.3740574326
   88      H      -2.4071879057    -3.6029390420     0.9673652181
   89      H      -9.0127618536    -3.8060502494     0.0059950204
   90      H      -9.6946967260    -1.5254247097    -0.9455326868
   91      H      -9.3138382224     4.5021463591    -1.5097266341
   92      H     -11.5584987944     3.0671167057    -1.1490497560
   93      H       3.1608101637    -6.6748187236     0.2296974608
   94      C       4.3790644803    -5.3160440422    -1.0389328182
   95      H       2.7560143130    -6.6906071090    -1.4544584246
   96      H       4.3356981850    -4.9277030223    -2.0642403900
   97      H       5.0590247221    -6.1527894993    -1.2412817978
   98      C       5.0216944707    -4.4038739180     0.0494523894
   99      H       4.3680928556    -3.6300384160     0.4707272932
  100      C       6.3076301502    -3.8121133417    -0.4066647539
  101      H       5.2692884556    -4.9656600381     0.9584120001
  102      H       6.0509719774    -3.1069970728    -1.2080682913
  103      H       6.9761133590    -4.6054698745    -0.7616036380
  104      C       6.9181422899    -2.8313262211     0.6128353938
  105      H       6.2229674781    -2.0322713322     0.9002310542
  106      C       8.2673611522    -2.2044904450     0.0505157593
  107      H       7.1919130880    -3.3236937182     1.5543500235
  108      H       8.8473188214    -1.5046799601     0.6646968297
  109      H       8.0343909042    -1.5712611804    -0.8139127004
  110      H       9.0029963609    -2.9659161456    -0.2368581126
 ----------------------------------------------------------------

   10   -5663.5070478172      3.49E-06 Convergence criterion met
 Total energy in the final basis set = -5663.5070478172

                    Orbital Energies (a.u.)
 --------------------------------------------------------------

 Alpha MOs
 -- Occupied --
-88.984 -88.982 -88.927 -88.922 -88.920 -88.911 -88.909 -88.904
-14.380 -14.378 -14.376 -14.367 -14.346 -14.344 -14.341 -14.335
-14.327 -14.325 -10.264 -10.262 -10.262 -10.253 -10.251 -10.251
-10.245 -10.242 -10.240 -10.237 -10.234 -10.232 -10.232 -10.232
-10.231 -10.231 -10.228 -10.227 -10.227 -10.226 -10.223 -10.221
-10.221 -10.221 -10.219 -10.219 -10.218 -10.218 -10.216 -10.211
-10.209 -10.206 -10.204 -10.204 -10.203 -10.200 -10.199 -10.188
-10.185 -10.184 -10.180 -10.180 -10.176 -10.174 -10.172 -10.171
-10.171 -10.168 -10.167 -10.156  -8.039  -8.037  -7.990  -7.983
 -7.978  -7.968  -7.967  -7.965  -6.004  -6.002  -5.998  -5.997
 -5.996  -5.995  -5.954  -5.950  -5.947  -5.947  -5.944  -5.942
 -5.940  -5.939  -5.935  -5.933  -5.932  -5.930  -5.929  -5.928
 -5.926  -5.925  -5.923  -5.922  -1.041  -1.033  -0.973  -0.972
 -0.962  -0.950  -0.939  -0.933  -0.912  -0.902  -0.901  -0.896
 -0.845  -0.832  -0.829  -0.823  -0.821  -0.810  -0.808  -0.804
 -0.802  -0.801  -0.795  -0.792  -0.783  -0.782  -0.765  -0.762
 -0.747  -0.740  -0.738  -0.734  -0.720  -0.711  -0.707  -0.705
 -0.689  -0.689  -0.674  -0.668  -0.654  -0.648  -0.640  -0.639
 -0.634  -0.629  -0.620  -0.620  -0.611  -0.603  -0.597  -0.592
 -0.590  -0.586  -0.583  -0.578  -0.575  -0.573  -0.569  -0.567
 -0.547  -0.544  -0.539  -0.536  -0.524  -0.520  -0.517  -0.509
 -0.509  -0.503  -0.494  -0.492  -0.484  -0.480  -0.475  -0.473
 -0.471  -0.469  -0.466  -0.465  -0.463  -0.461  -0.446  -0.445
 -0.442  -0.438  -0.435  -0.434  -0.431  -0.430  -0.427  -0.426
 -0.425  -0.423  -0.419  -0.418  -0.417  -0.415  -0.413  -0.413
 -0.410  -0.403  -0.401  -0.398  -0.397  -0.396  -0.394  -0.393
 -0.390  -0.388  -0.387  -0.386  -0.385  -0.382  -0.381  -0.376
 -0.374  -0.373  -0.372  -0.368  -0.367  -0.357  -0.353  -0.352
 -0.350  -0.350  -0.346  -0.344  -0.342  -0.339  -0.338  -0.336
 -0.334  -0.333  -0.331  -0.328  -0.328  -0.324  -0.323  -0.316
 -0.311  -0.309  -0.305  -0.303  -0.301  -0.298  -0.297  -0.296
 -0.292  -0.290  -0.288  -0.285  -0.284  -0.282  -0.279  -0.277
 -0.272  -0.269  -0.267  -0.263  -0.250  -0.248  -0.246  -0.244
 -0.240  -0.235  -0.227  -0.226  -0.189  -0.187

          Ground-State Mulliken Net Atomic Charges

     Atom                 Charge (a.u.)
  ----------------------------------------
      1 C                     0.246568
      2 C                    -0.124377
      3 N                    -0.488581
      4 C                    -0.085820
      5 C                     0.109799
      6 C                     0.038410
      7 C                     0.029766
      8 C                     0.046504
      9 C                     0.269549
     10 N                    -0.509078
     11 N                    -0.588552
     12 C                     0.201701
     13 C                     0.302513
     14 S                     0.624955
     15 N                    -0.581325
     16 C                    -0.226145
     17 S                     0.300370
     18 C                    -0.136538
     19 C                    -0.258644
     20 S                     0.278761
     21 C                     0.176848
     22 C                     0.059597
     23 C                    -0.313796
     24 C                    -0.046364
     25 N                    -0.408062
     26 S                     0.281988
     27 C                     0.131255
     28 C                    -0.314556
     29 C                    -0.212927
     30 H                     0.091705
     31 H                     0.100443
     32 H                     0.125241
     33 H                     0.105445
     34 H                     0.125605
     35 H                     0.137746
     36 H                     0.114106
     37 H                     0.139096
     38 H                     0.124775
     39 C                    -0.180460
     40 H                     0.097730
     41 H                     0.116517
     42 H                     0.087139
     43 C                    -0.178034
     44 H                     0.087867
     45 C                    -0.160352
     46 H                     0.088940
     47 H                     0.096812
     48 H                     0.093573
     49 C                    -0.181180
     50 H                     0.094657
     51 C                    -0.318769
     52 H                     0.095765
     53 H                     0.105579
     54 H                     0.091024
     55 H                     0.103202
     56 C                     0.266480
     57 C                    -0.126363
     58 N                    -0.471852
     59 C                    -0.102578
     60 C                     0.091324
     61 C                     0.041787
     62 C                     0.073455
     63 C                     0.049584
     64 C                     0.193484
     65 N                    -0.519652
     66 N                    -0.546903
     67 C                     0.230291
     68 C                     0.288586
     69 S                     0.631202
     70 N                    -0.561742
     71 C                    -0.231093
     72 S                     0.354248
     73 C                    -0.103371
     74 C                    -0.246147
     75 S                     0.270644
     76 C                     0.143047
     77 C                     0.084064
     78 C                    -0.307667
     79 C                    -0.079967
     80 N                    -0.431046
     81 S                     0.287799
     82 C                     0.109285
     83 C                    -0.310394
     84 C                    -0.219650
     85 H                     0.093523
     86 H                     0.115389
     87 H                     0.108925
     88 H                     0.111612
     89 H                     0.124640
     90 H                     0.105120
     91 H                     0.109881
     92 H                     0.134035
     93 H                     0.089739
     94 C                    -0.181809
     95 H                     0.118165
     96 H                     0.120622
     97 H                     0.087296
     98 C                    -0.176489
     99 H                     0.084352
    100 C                    -0.155734
    101 H                     0.085785
    102 H                     0.098883
    103 H                     0.091622
    104 C                    -0.209123
    105 H                     0.117572
    106 C                    -0.324368
    107 H                     0.081480
    108 H                     0.099950
    109 H                     0.116902
    110 H                     0.087185
  ----------------------------------------
  Sum of atomic charges =     0.000000

                    Cartesian Multipole Moments
 -----------------------------------------------------------------
    Charge (ESU x 10^10)
                 0.0000
    Dipole Moment (Debye)
         X      -2.8976      Y       0.3950      Z       2.7763
       Tot       4.0323
    Quadrupole Moments (Debye-Ang)
        XX    -384.7016     XY       8.4012     YY    -421.2365
        XZ      -1.0501     YZ     -11.6583     ZZ    -443.3389

 Total job time:  112.19s(wall), 1330.55s(cpu)
        *  Thank you very much for using Q-Chem.  Have a nice day.  *
