 Q-Chem 4.4, Q-Chem, Inc., Pleasanton, CA (2016)
 Q-Chem 4.4.2 for Intel X86 Linux

User input:
--------------------------------------------------------------
$comment
SP
$end

$rem
MEM_STATIC 5000
MEM_TOTAL 20000
JOBTYPE SP
EXCHANGE B3LYP
BASIS 6-31g(d,p)
$end

$molecule
0 1
C          -3.745000     -9.838000      0.610000
C          -3.261000     -9.584000     -0.726000
N          -4.481000     -9.027000      1.297000
C          -3.666000     -8.386000     -1.355000
C          -4.939000     -7.907000      0.639000
C          -4.529000     -7.501000     -0.654000
C          -4.987000     -6.291000     -1.260000
C          -6.412000     -6.150000     -1.222000
C          -4.279000     -5.357000     -1.981000
N          -7.037000     -5.188000     -1.875000
N          -2.910000     -5.522000     -2.149000
C          -4.867000     -4.365000     -2.723000
C          -6.297000     -4.289000     -2.629000
S          -2.503000     -4.154000     -2.885000
N          -4.012000     -3.546000     -3.330000
C          -7.077000     -3.226000     -3.369000
S          -6.369000     -1.869000     -4.311000
C          -8.468000     -3.089000     -3.404000
C          -7.929000     -1.172000     -4.763000
S          -9.725000     -3.986000     -2.502000
C          -8.886000     -1.942000     -4.153000
C          -8.072000      0.057000     -5.464000
C         -10.758000     -2.723000     -3.099000
C         -10.219000     -1.684000     -3.788000
N          -9.296000      0.519000     -5.764000
S          -6.753000      1.181000     -5.793000
C          -9.203000      1.678000     -6.449000
C          -7.945000      2.250000     -6.462000
C          -3.312000    -11.071000      1.443000
H          -2.605000    -10.272000     -1.250000
H          -3.406000     -8.192000     -2.391000
H          -5.619000     -7.276000      1.208000
H          -7.078000     -6.867000     -0.743000
H         -11.797000     -2.666000     -2.802000
H         -10.642000     -0.730000     -4.081000
H         -10.094000      2.154000     -6.836000
H          -7.625000      3.242000     -6.752000
H          -2.371000    -11.533000      1.119000
C          -4.316000    -12.230000      1.238000
H          -3.247000    -10.860000      2.518000
H          -3.833000    -13.185000      1.479000
H          -4.560000    -12.398000      0.182000
C          -5.622000    -12.055000      2.128000
H          -5.302000    -12.076000      3.177000
C          -6.579000    -13.219000      1.730000
H          -6.125000    -11.134000      1.806000
H          -6.124000    -14.192000      1.504000
H          -7.114000    -12.912000      0.823000
C          -7.598000    -13.338000      2.847000
H          -8.136000    -14.288000      2.747000
C          -8.607000    -12.206000      3.086000
H          -7.048000    -13.474000      3.787000
H          -9.367000    -12.252000      2.296000
H          -8.086000    -11.243000      3.011000
H          -9.162000    -12.277000      4.030000
C         -16.083000      6.184000     -9.364000
C         -15.573000      5.266000     -8.423000
N         -15.698000      6.154000    -10.675000
C         -14.737000      4.229000     -8.851000
C         -14.898000      5.187000    -11.085000
C         -14.302000      4.261000    -10.230000
C         -13.264000      3.342000    -10.766000
C         -12.176000      3.085000     -9.943000
C         -13.203000      2.780000    -12.076000
N         -11.014000      2.552000    -10.380000
N         -14.263000      2.723000    -12.927000
C         -12.056000      2.110000    -12.517000
C         -10.928000      2.015000    -11.624000
S         -13.752000      1.815000    -14.163000
N         -12.192000      1.565000    -13.743000
C          -9.574000      1.531000    -12.006000
S          -9.279000      0.273000    -13.288000
C          -8.377000      1.776000    -11.379000
C          -7.489000      0.331000    -13.052000
S          -8.037000      2.821000     -9.965000
C          -7.246000      1.146000    -11.960000
C          -6.640000     -0.678000    -13.515000
C          -6.279000      2.450000    -10.260000
C          -6.086000      1.654000    -11.364000
N          -7.250000     -1.625000    -14.207000
S          -4.863000     -0.737000    -13.359000
C          -6.240000     -2.413000    -14.728000
C          -4.963000     -2.109000    -14.282000
C         -16.922000      7.428000     -9.005000
H         -15.846000      5.410000     -7.382000
H         -14.465000      3.441000     -8.155000
H         -14.551000      5.237000    -12.117000
H         -12.086000      3.561000     -8.967000
H          -5.481000      2.998000     -9.777000
H          -5.109000      1.451000    -11.787000
H          -6.436000     -3.235000    -15.403000
H          -4.023000     -2.636000    -14.380000
H         -16.984000      7.547000     -7.916000
C         -18.299000      7.288000     -9.689000
H         -16.441000      8.351000     -9.351000
H         -18.234000      7.482000    -10.767000
H         -18.811000      8.219000     -9.416000
C         -19.174000      6.084000     -9.226000
H         -18.696000      5.098000     -9.279000
C         -20.497000      6.062000     -9.905000
H         -19.401000      6.133000     -8.154000
H         -20.294000      5.836000    -10.960000
H         -20.992000      7.033000     -9.785000
C         -21.346000      4.830000     -9.537000
H         -20.820000      3.884000     -9.718000
C         -22.728000      4.845000    -10.324000
H         -21.613000      4.809000     -8.473000
H         -23.466000      4.051000    -10.156000
H         -22.531000      4.716000    -11.395000
H         -23.300000      5.767000    -10.162000
$end

--------------------------------------------------------------

             Standard Nuclear Orientation (Angstroms)
    I     Atom           X                Y                Z
 ----------------------------------------------------------------
    1      C      12.5283881514    -0.5855492927    -0.4461256680
    2      C      11.8220477825     0.6412231526    -0.7285803563
    3      N      12.0390647667    -1.5871592462     0.2086461442
    4      C      10.4767260254     0.7364544624    -0.3091636572
    5      C      10.7022650141    -1.5145239142     0.5324030439
    6      C       9.8854901061    -0.3715019095     0.3558684967
    7      C       8.5199468527    -0.3316904013     0.7739673688
    8      C       7.7585121118    -1.4518530900     0.3077027593
    9      C       7.8339062150     0.6775873060     1.4097092607
   10      N       6.4470167609    -1.5115920456     0.4451407516
   11      N       8.5084870800     1.8375827679     1.7688209214
   12      C       6.4691042270     0.7032889241     1.5401966560
   13      C       5.7802646998    -0.4567656606     1.0510285188
   14      S       7.3837040406     2.6266939422     2.6000463234
   15      N       5.9957493315     1.7523772601     2.2077172971
   16      C       4.2770256297    -0.5797751348     1.1564323482
   17      S       3.1859633374     0.5724651222     2.0002347329
   18      C       3.4923611745    -1.6271704044     0.6643552789
   19      C       1.7109627783    -0.3362416009     1.6504656064
   20      S       3.9928730699    -3.1743282098    -0.0799917957
   21      C       2.1045133809    -1.4655216410     0.9791284972
   22      C       0.4306754742     0.0067087527     2.1657718008
   23      C       2.3189599684    -3.5824840325     0.1438178401
   24      C       1.5007858063    -2.7232333723     0.8049096214
   25      N      -0.6393884246    -0.7415418113     1.8547985767
   26      S       0.1440042635     1.2365944977     3.3972662877
   27      C      -1.7501112088    -0.2275152105     2.4233287434
   28      C      -1.5218220745     0.7512426552     3.3719246065
   29      C      14.0285158500    -0.7896733364    -0.7772106458
   30      H      12.2866049483     1.4777014547    -1.2411685826
   31      H       9.8750005107     1.5990076934    -0.5783482198
   32      H      10.2894714493    -2.3984544156     1.0146792527
   33      H       8.1825456580    -2.2733236140    -0.2688973880
   34      H       1.9499470867    -4.5714051587    -0.0946009077
   35      H       0.5013022066    -2.8574923857     1.2022772737
   36      H      -2.7182759943    -0.6639072139     2.2173069790
   37      H      -2.1840453706     1.1869495303     4.1082559348
   38      H      14.5993976718     0.1393430430    -0.8993724747
   39      C      14.1811693161    -1.4362785029    -2.1743221939
   40      H      14.5454381391    -1.4253153779    -0.0470589205
   41      H      15.1802507943    -1.2226448331    -2.5738116870
   42      H      13.5603007570    -0.9503220192    -2.9367292559
   43      C      13.9493542394    -3.0088700494    -2.1345906177
   44      H      14.7267227250    -3.4326880652    -1.4870425292
   45      C      14.0161393268    -3.4960691858    -3.6135516563
   46      H      12.9158448727    -3.1863074486    -1.8100781243
   47      H      14.7425648771    -3.0058017281    -4.2744402549
   48      H      13.0296635794    -3.3271493230    -4.0623886865
   49      C      14.2476069632    -4.9940621359    -3.5620652033
   50      H      14.5504058227    -5.3482544847    -4.5544384349
   51      C      13.1559429236    -5.9182371552    -3.0045742543
   52      H      15.1485824538    -5.1717810329    -2.9610201475
   53      H      12.3592207435    -5.9986893960    -3.7546257223
   54      H      12.7348918512    -5.4653036775    -2.0979308518
   55      H      13.4807195837    -6.9484992949    -2.8114886658
   56      C      -9.7269847334    -3.6404208186     1.4974642378
   57      C      -8.3330298482    -3.8529176256     1.4911487636
   58      N     -10.2809735097    -2.5070132078     0.9717935962
   59      C      -7.4970724710    -2.9407456323     0.8380281636
   60      C      -9.4978514538    -1.6337374178     0.3657422450
   61      C      -8.1068257566    -1.7251687468     0.3456220648
   62      C      -7.3127559523    -0.5880803293    -0.1889656986
   63      C      -6.1394918044    -0.2776188249     0.4849681954
   64      C      -7.6751382400     0.2930932506    -1.2509813292
   65      N      -5.4804853711     0.8933151445     0.3438081439
   66      N      -8.6455548635     0.0207103225    -2.1648462630
   67      C      -6.9360640799     1.4544510804    -1.5039781219
   68      C      -5.8088240804     1.7516811157    -0.6555429213
   69      S      -8.5202972536     1.1993988729    -3.2640663649
   70      N      -7.3564077553     2.1304636594    -2.5925162185
   71      C      -5.0568584389     3.0354379429    -0.6520669180
   72      S      -4.8339835831     4.0757948755    -2.1289207535
   73      C      -4.2729497125     3.5571074303     0.3475885500
   74      C      -3.8668302402     5.3026762938    -1.2219828301
   75      S      -3.9718569281     2.9201469744     1.9939923622
   76      C      -3.6490139680     4.7957386211     0.0473903489
   77      C      -3.0631922481     6.2473250193    -1.8662310455
   78      C      -3.0474288390     4.4596927243     2.2947606984
   79      C      -3.0731592406     5.3098663357     1.2148422862
   80      N      -3.1406341534     6.2158329555    -3.1856187828
   81      S      -2.0721698469     7.5147936983    -1.0936096971
   82      C      -2.4371823781     7.3223590713    -3.6252101329
   83      C      -1.7580621311     8.0214382422    -2.6392359938
   84      C     -10.7398933608    -4.5099438759     2.2709522889
   85      H      -7.9559233618    -4.7272149182     2.0130117170
   86      H      -6.4457384828    -3.1793456064     0.7072195342
   87      H      -9.9608131125    -0.7074134559     0.0258548808
   88      H      -5.8412988076    -0.8296575109     1.3758027624
   89      H      -2.7388793257     4.7676121249     3.2849020219
   90      H      -2.7117443216     6.3309244934     1.2533973751
   91      H      -2.3857643650     7.5991087518    -4.6694758090
   92      H      -1.0140466577     8.8050676302    -2.6966725459
   93      H     -10.2162403604    -5.2526456512     2.8858568410
   94      C     -11.7128902191    -5.1332634629     1.2470700660
   95      H     -11.3113444529    -3.9148830933     2.9936917402
   96      H     -12.4335596110    -4.3939335927     0.8756242819
   97      H     -12.4122159254    -5.6975886088     1.8762875850
   98      C     -11.0807810004    -6.1074279314     0.2073337899
   99      H     -10.2343529301    -5.7100074340    -0.3663433580
  100      C     -12.1019136633    -6.6918822329    -0.7023668501
  101      H     -10.6012072858    -6.9665362828     0.6921594213
  102      H     -12.4674262020    -5.8628591206    -1.3223920619
  103      H     -12.9079110754    -7.1452387617    -0.1132131949
  104      C     -11.4939668567    -7.5854875758    -1.8005103614
  105      H     -10.7246742700    -7.0692114077    -2.3887287173
  106      C     -12.6305718861    -8.1462060238    -2.7613651003
  107      H     -10.9926215525    -8.4705663341    -1.3892750544
  108      H     -12.3714438116    -8.8247847920    -3.5833672270
  109      H     -13.0717588526    -7.3111642997    -3.3186355730
  110      H     -13.4174890160    -8.6858464612    -2.2200134319
 ----------------------------------------------------------------

   10   -5663.4963552956      6.37E-06 Convergence criterion met
 Total energy in the final basis set = -5663.4963552956

                    Orbital Energies (a.u.)
 --------------------------------------------------------------

 Alpha MOs
 -- Occupied --
-88.991 -88.990 -88.930 -88.926 -88.918 -88.917 -88.914 -88.913
-14.391 -14.390 -14.388 -14.385 -14.354 -14.353 -14.347 -14.342
-14.330 -14.328 -10.271 -10.269 -10.269 -10.265 -10.260 -10.259
-10.257 -10.255 -10.247 -10.243 -10.241 -10.238 -10.238 -10.236
-10.233 -10.232 -10.232 -10.231 -10.231 -10.230 -10.229 -10.228
-10.227 -10.227 -10.224 -10.223 -10.220 -10.219 -10.218 -10.214
-10.213 -10.213 -10.209 -10.205 -10.204 -10.203 -10.203 -10.190
-10.185 -10.182 -10.182 -10.181 -10.177 -10.175 -10.173 -10.173
-10.172 -10.172 -10.167 -10.167  -8.047  -8.046  -7.993  -7.987
 -7.978  -7.975  -7.973  -7.972  -6.011  -6.011  -6.006  -6.005
 -6.005  -6.004  -5.956  -5.953  -5.951  -5.949  -5.948  -5.944
 -5.942  -5.939  -5.938  -5.937  -5.936  -5.935  -5.934  -5.934
 -5.933  -5.931  -5.929  -5.928  -1.042  -1.041  -0.975  -0.968
 -0.956  -0.956  -0.945  -0.940  -0.912  -0.908  -0.905  -0.903
 -0.844  -0.843  -0.837  -0.834  -0.825  -0.810  -0.808  -0.807
 -0.806  -0.798  -0.798  -0.794  -0.785  -0.778  -0.767  -0.764
 -0.747  -0.744  -0.738  -0.736  -0.716  -0.715  -0.711  -0.705
 -0.694  -0.690  -0.677  -0.674  -0.654  -0.653  -0.647  -0.645
 -0.635  -0.633  -0.627  -0.624  -0.615  -0.610  -0.601  -0.596
 -0.596  -0.589  -0.582  -0.577  -0.576  -0.573  -0.573  -0.559
 -0.556  -0.549  -0.542  -0.540  -0.529  -0.524  -0.521  -0.514
 -0.512  -0.504  -0.498  -0.494  -0.491  -0.482  -0.480  -0.476
 -0.474  -0.471  -0.470  -0.468  -0.466  -0.456  -0.450  -0.448
 -0.443  -0.440  -0.437  -0.437  -0.435  -0.430  -0.429  -0.428
 -0.426  -0.422  -0.420  -0.418  -0.417  -0.414  -0.413  -0.413
 -0.412  -0.409  -0.405  -0.405  -0.402  -0.399  -0.395  -0.394
 -0.393  -0.391  -0.389  -0.389  -0.387  -0.383  -0.382  -0.381
 -0.378  -0.376  -0.374  -0.369  -0.367  -0.364  -0.363  -0.357
 -0.356  -0.352  -0.352  -0.347  -0.346  -0.346  -0.340  -0.338
 -0.337  -0.335  -0.334  -0.333  -0.330  -0.328  -0.318  -0.316
 -0.315  -0.314  -0.311  -0.309  -0.307  -0.306  -0.304  -0.301
 -0.299  -0.298  -0.295  -0.293  -0.288  -0.286  -0.282  -0.280
 -0.278  -0.275  -0.273  -0.266  -0.255  -0.251  -0.249  -0.248
 -0.242  -0.241  -0.232  -0.226  -0.194  -0.189

          Ground-State Mulliken Net Atomic Charges

     Atom                 Charge (a.u.)
  ----------------------------------------
      1 C                     0.288205
      2 C                    -0.128268
      3 N                    -0.465930
      4 C                    -0.051769
      5 C                     0.051539
      6 C                     0.036151
      7 C                    -0.008607
      8 C                     0.078330
      9 C                     0.177224
     10 N                    -0.508194
     11 N                    -0.515235
     12 C                     0.268777
     13 C                     0.287882
     14 S                     0.608126
     15 N                    -0.580381
     16 C                    -0.233093
     17 S                     0.304619
     18 C                    -0.122115
     19 C                    -0.223357
     20 S                     0.303270
     21 C                     0.149526
     22 C                     0.056160
     23 C                    -0.306137
     24 C                    -0.054843
     25 N                    -0.436784
     26 S                     0.273145
     27 C                     0.146077
     28 C                    -0.305636
     29 C                    -0.221921
     30 H                     0.096076
     31 H                     0.106860
     32 H                     0.101977
     33 H                     0.123473
     34 H                     0.114571
     35 H                     0.123533
     36 H                     0.115246
     37 H                     0.134215
     38 H                     0.088480
     39 C                    -0.198022
     40 H                     0.116069
     41 H                     0.088018
     42 H                     0.090141
     43 C                    -0.160907
     44 H                     0.094936
     45 C                    -0.176380
     46 H                     0.120018
     47 H                     0.089467
     48 H                     0.090456
     49 C                    -0.175122
     50 H                     0.076880
     51 C                    -0.321259
     52 H                     0.087468
     53 H                     0.099066
     54 H                     0.108273
     55 H                     0.103117
     56 C                     0.269025
     57 C                    -0.123341
     58 N                    -0.474481
     59 C                    -0.083541
     60 C                     0.099748
     61 C                     0.027758
     62 C                     0.044753
     63 C                     0.052679
     64 C                     0.195046
     65 N                    -0.520142
     66 N                    -0.532754
     67 C                     0.222077
     68 C                     0.291664
     69 S                     0.612543
     70 N                    -0.553911
     71 C                    -0.232257
     72 S                     0.339228
     73 C                    -0.101641
     74 C                    -0.241389
     75 S                     0.270840
     76 C                     0.143695
     77 C                     0.086376
     78 C                    -0.306342
     79 C                    -0.078034
     80 N                    -0.429312
     81 S                     0.292953
     82 C                     0.111094
     83 C                    -0.308925
     84 C                    -0.220056
     85 H                     0.092977
     86 H                     0.108528
     87 H                     0.105982
     88 H                     0.110501
     89 H                     0.124185
     90 H                     0.107120
     91 H                     0.112379
     92 H                     0.136382
     93 H                     0.090119
     94 C                    -0.182301
     95 H                     0.117593
     96 H                     0.120069
     97 H                     0.086009
     98 C                    -0.173995
     99 H                     0.095909
    100 C                    -0.157348
    101 H                     0.085184
    102 H                     0.099414
    103 H                     0.092491
    104 C                    -0.188500
    105 H                     0.097803
    106 C                    -0.326821
    107 H                     0.090023
    108 H                     0.095882
    109 H                     0.101135
    110 H                     0.102514
  ----------------------------------------
  Sum of atomic charges =     0.000000

                    Cartesian Multipole Moments
 -----------------------------------------------------------------
    Charge (ESU x 10^10)
                 0.0000
    Dipole Moment (Debye)
         X       0.3870      Y       2.5895      Z       1.5603
       Tot       3.0479
    Quadrupole Moments (Debye-Ang)
        XX    -463.5270     XY      32.7613     YY    -408.8690
        XZ     -17.9816     YZ      -1.1149     ZZ    -433.4361

 Total job time:  87.24s(wall), 1021.99s(cpu)
        *  Thank you very much for using Q-Chem.  Have a nice day.  *
