 Q-Chem 4.4, Q-Chem, Inc., Pleasanton, CA (2016)
 Q-Chem 4.4.2 for Intel X86 Linux

User input:
--------------------------------------------------------------
$comment
SP
$end

$rem
MEM_STATIC 5000
MEM_TOTAL 20000
JOBTYPE SP
EXCHANGE B3LYP
BASIS 6-31g(d,p)
$end

$molecule
0 1
C         -28.122000     -0.960000     -4.819000
C         -27.409000     -2.167000     -4.640000
N         -27.455000      0.247000     -4.897000
C         -26.003000     -2.221000     -4.853000
C         -26.106000      0.184000     -5.071000
C         -25.314000     -0.998000     -5.134000
C         -23.806000     -0.874000     -5.392000
C         -23.195000      0.325000     -5.184000
C         -22.930000     -1.922000     -5.845000
N         -21.936000      0.573000     -5.604000
N         -23.406000     -3.157000     -6.103000
C         -21.562000     -1.682000     -6.083000
C         -21.058000     -0.351000     -5.994000
S         -22.043000     -3.893000     -6.534000
N         -20.886000     -2.755000     -6.522000
C         -19.658000      0.025000     -6.223000
S         -18.273000     -1.092000     -6.412000
C         -19.244000      1.379000     -6.317000
C         -17.168000      0.283000     -6.370000
S         -20.131000      2.862000     -6.091000
C         -17.871000      1.487000     -6.421000
C         -15.727000      0.193000     -6.386000
C         -18.569000      3.657000     -6.336000
C         -17.503000      2.840000     -6.443000
N         -15.045000      1.117000     -6.991000
S         -14.816000     -1.067000     -5.698000
C         -13.679000      0.940000     -6.865000
C         -13.335000     -0.295000     -6.234000
C         -29.629000     -0.883000     -4.833000
H         -27.917000     -3.084000     -4.356000
H         -25.492000     -3.166000     -4.697000
H         -25.752000      1.213000     -5.100000
H         -23.828000      1.168000     -4.913000
H         -18.536000      4.730000     -6.466000
H         -16.472000      3.145000     -6.582000
H         -12.967000      1.696000     -7.168000
H         -12.368000     -0.642000     -5.895000
H         -29.908000      0.163000     -5.011000
C         -30.268000     -1.394000     -3.510000
H         -29.938000     -1.552000     -5.646000
H         -29.651000     -1.207000     -2.623000
H         -30.474000     -2.468000     -3.593000
C         -31.637000     -0.725000     -3.257000
H         -31.591000      0.360000     -3.103000
C         -32.231000     -1.452000     -1.976000
H         -32.378000     -0.768000     -4.065000
H         -31.359000     -1.734000     -1.373000
H         -32.781000     -2.385000     -2.151000
C         -33.025000     -0.543000     -1.026000
H         -32.386000      0.284000     -0.692000
C         -33.610000     -1.259000      0.144000
H         -33.807000     -0.074000     -1.636000
H         -34.275000     -0.577000      0.688000
H         -32.888000     -1.573000      0.907000
H         -34.335000     -2.047000     -0.092000
C         -16.083000      6.184000     -9.364000
C         -15.573000      5.266000     -8.423000
N         -15.698000      6.154000    -10.675000
C         -14.737000      4.229000     -8.851000
C         -14.898000      5.187000    -11.085000
C         -14.302000      4.261000    -10.230000
C         -13.264000      3.342000    -10.766000
C         -12.176000      3.085000     -9.943000
C         -13.203000      2.780000    -12.076000
N         -11.014000      2.552000    -10.380000
N         -14.263000      2.723000    -12.927000
C         -12.056000      2.110000    -12.517000
C         -10.928000      2.015000    -11.624000
S         -13.752000      1.815000    -14.163000
N         -12.192000      1.565000    -13.743000
C          -9.574000      1.531000    -12.006000
S          -9.279000      0.273000    -13.288000
C          -8.377000      1.776000    -11.379000
C          -7.489000      0.331000    -13.052000
S          -8.037000      2.821000     -9.965000
C          -7.246000      1.146000    -11.960000
C          -6.640000     -0.678000    -13.515000
C          -6.279000      2.450000    -10.260000
C          -6.086000      1.654000    -11.364000
N          -7.250000     -1.625000    -14.207000
S          -4.863000     -0.737000    -13.359000
C          -6.240000     -2.413000    -14.728000
C          -4.963000     -2.109000    -14.282000
C         -16.922000      7.428000     -9.005000
H         -15.846000      5.410000     -7.382000
H         -14.465000      3.441000     -8.155000
H         -14.551000      5.237000    -12.117000
H         -12.086000      3.561000     -8.967000
H          -5.481000      2.998000     -9.777000
H          -5.109000      1.451000    -11.787000
H          -6.436000     -3.235000    -15.403000
H          -4.023000     -2.636000    -14.380000
H         -16.984000      7.547000     -7.916000
C         -18.299000      7.288000     -9.689000
H         -16.441000      8.351000     -9.351000
H         -18.234000      7.482000    -10.767000
H         -18.811000      8.219000     -9.416000
C         -19.174000      6.084000     -9.226000
H         -18.696000      5.098000     -9.279000
C         -20.497000      6.062000     -9.905000
H         -19.401000      6.133000     -8.154000
H         -20.294000      5.836000    -10.960000
H         -20.992000      7.033000     -9.785000
C         -21.346000      4.830000     -9.537000
H         -20.820000      3.884000     -9.718000
C         -22.728000      4.845000    -10.324000
H         -21.613000      4.809000     -8.473000
H         -23.466000      4.051000    -10.156000
H         -22.531000      4.716000    -11.395000
H         -23.300000      5.767000    -10.162000
$end

--------------------------------------------------------------

             Standard Nuclear Orientation (Angstroms)
    I     Atom           X                Y                Z
 ----------------------------------------------------------------
    1      C      11.5187588735     0.7647833199    -1.2175584046
    2      C      11.0425752228     2.0898496849    -1.0962849159
    3      N      10.7719325439    -0.2977269024    -0.7472984115
    4      C       9.6768853222     2.3480707163    -0.7907787880
    5      C       9.4745435955    -0.0332755263    -0.4296612189
    6      C       8.8286051056     1.2345422182    -0.4909689177
    7      C       7.3362640772     1.3302017647    -0.1448887160
    8      C       6.7539792164     0.3211347233     0.5600325893
    9      C       6.4481758996     2.4077027693    -0.4929978570
   10      N       5.4148405377     0.2218174408     0.7008469239
   11      N       6.8903986412     3.4655578828    -1.2027489441
   12      C       5.0816504061     2.3706631025    -0.1510853847
   13      C       4.5388582285     1.1922526699     0.4407114589
   14      S       5.5379982559     4.3319801718    -1.2772581041
   15      N       4.3842755434     3.4398031659    -0.5653725144
   16      C       3.1346757192     1.0313538269     0.8359329700
   17      S       1.8908084596     2.3163477480     0.8926768078
   18      C       2.6001760985    -0.2206590495     1.2363351591
   19      C       0.7757095352     1.1921397824     1.6712170052
   20      S       3.3708386425    -1.7639907469     1.4840053329
   21      C       1.2933988046    -0.1033957736     1.6678342071
   22      C      -0.5412939597     1.5295472280     2.1575245315
   23      C       1.7753985928    -2.3038205280     2.0271893305
   24      C       0.8294254650    -1.3485488050     2.1159855973
   25      N      -1.4845233266     0.6403584949     2.0897989222
   26      S      -0.9936215264     3.0395326961     2.7948695391
   27      C      -2.6693684400     1.0761153790     2.6549705732
   28      C      -2.6274925073     2.4510865906     3.0415227347
   29      C      12.8854842397     0.4224725333    -1.7579833288
   30      H      11.6995950800     2.9405304644    -1.2520928701
   31      H       9.3535265693     3.3802756880    -0.6987243840
   32      H       9.0490194047    -0.9695902259    -0.0729513280
   33      H       7.3660221003    -0.5511325873     0.7821412274
   34      H       1.5999870443    -3.3587310676     2.1875406391
   35      H      -0.1954474670    -1.4883982104     2.4406155665
   36      H      -3.5064298882     0.4130198157     2.8279486232
   37      H      -3.3484756618     3.0220515832     3.6112606289
   38      H      12.9790380105    -0.6706338506    -1.7606526771
   39      C      14.0358469544     1.0602173179    -0.9274905748
   40      H      12.9067887965     0.8556715419    -2.7658998605
   41      H      13.8040804887     1.1607528526     0.1395632718
   42      H      14.2857928388     2.0442445915    -1.3422415598
   43      C      15.3295312163     0.2228020826    -1.0316431278
   44      H      15.2529823388    -0.7862077584    -0.6084452896
   45      C      16.4411107785     1.0687483053    -0.2759369250
   46      H      15.6932466732    -0.0231703667    -2.0371293886
   47      H      15.9052973511     1.6115699415     0.5125842493
   48      H      16.9572580453     1.8382740392    -0.8633346982
   49      C      17.4620135979     0.2364051554     0.5141132723
   50      H      16.9363139393    -0.3842624953     1.2504674916
   51      C      18.5206932897     1.0517489178     1.1760746452
   52      H      17.8963282990    -0.4723905766    -0.2018227240
   53      H      19.2836067146     0.3822697171     1.5920622723
   54      H      18.1879337646     1.6301399565     2.0460079213
   55      H      19.1602520166     1.6386874538     0.5061994406
   56      C      -1.9129966170    -4.8932376409     0.8333012321
   57      C      -1.9287542114    -3.7347076064     1.6369584086
   58      N      -2.7788000119    -5.0512928340    -0.2122842676
   59      C      -2.7713618352    -2.6700046149     1.2995136988
   60      C      -3.5875137392    -4.0569796734    -0.5293212464
   61      C      -3.7151227727    -2.8923037579     0.2262996549
   62      C      -4.7954315651    -1.9269015680    -0.1057131834
   63      C      -5.4444740156    -1.3274270356     0.9650324365
   64      C      -5.3177413164    -1.6284124190    -1.3994526284
   65      N      -6.6331011398    -0.6934507554     0.8623599684
   66      N      -4.6778259589    -1.9253863869    -2.5627947094
   67      C      -6.4822112064    -0.8656476665    -1.5450198213
   68      C      -7.1544941231    -0.4018595906    -0.3568303160
   69      S      -5.5524537602    -1.1994071086    -3.7122560165
   70      N      -6.7926747396    -0.6019180162    -2.8305765358
   71      C      -8.5014523109     0.2293185296    -0.3283027665
   72      S      -9.1658658566     1.2460881552    -1.6839749867
   73      C      -9.3713938219     0.3254553905     0.7299611285
   74      C     -10.7159814497     1.5510837570    -0.8080301649
   75      S      -9.2174044070    -0.3483323184     2.3820260132
   76      C     -10.5798459350     1.0195956895     0.4626883546
   77      C     -11.5867179938     2.5842530474    -1.1652836997
   78      C     -10.9096953711     0.2618252234     2.6632537979
   79      C     -11.4511835381     0.8493971566     1.5446695193
   80      N     -11.2179820706     3.2562534112    -2.2424198703
   81      S     -13.1461801792     2.9843192058    -0.3948482636
   82      C     -12.2782443211     4.0932254286    -2.5387419959
   83      C     -13.2978198430     4.1113340670    -1.5994875935
   84      C      -1.1129497328    -6.1716351891     1.1588203435
   85      H      -1.2817255967    -3.7194192669     2.5087761868
   86      H      -2.6771853518    -1.7264352500     1.8288072314
   87      H      -4.3157145309    -4.2447043036    -1.3182547481
   88      H      -5.1842954029    -1.5812534308     1.9922282555
   89      H     -11.4977769708    -0.0326586041     3.5222277832
   90      H     -12.4939341669     1.1350745178     1.4689954056
   91      H     -12.2926021498     4.7207816905    -3.4194757757
   92      H     -14.1503676319     4.7663216153    -1.4766601569
   93      H      -0.6379089581    -6.0857499966     2.1441558175
   94      C      -0.1099412397    -6.4118616699     0.0099730079
   95      H      -1.7701981999    -7.0449080020     1.2506083964
   96      H      -0.6108267858    -6.7971291101    -0.8870373986
   97      H       0.3844555753    -7.3473609715     0.2995362066
   98      C       0.9785266615    -5.3140410557    -0.1891187481
   99      H       0.6066750545    -4.2886967420    -0.3069509194
  100      C       1.9237496402    -5.6576611295    -1.2847157385
  101      H       1.6039929272    -5.1929546657     0.7037664834
  102      H       1.3424491957    -5.6088618396    -2.2147794044
  103      H       2.3388494134    -6.6585021509    -1.1165627486
  104      C       2.9534787523    -4.5467055726    -1.5666460600
  105      H       2.4838058846    -3.5763874204    -1.7721772763
  106      C       3.9069280151    -4.9574057038    -2.7715435269
  107      H       3.6185321356    -4.3666645948    -0.7127636069
  108      H       4.7179619191    -4.2884524756    -3.0846402933
  109      H       3.3163179766    -5.0063780069    -3.6941878223
  110      H       4.4133163630    -5.9163536622    -2.6057073002
 ----------------------------------------------------------------

    9   -5663.5156785004      6.63E-06 Convergence criterion met
 Total energy in the final basis set = -5663.5156785004

                    Orbital Energies (a.u.)
 --------------------------------------------------------------

 Alpha MOs
 -- Occupied --
-88.988 -88.985 -88.932 -88.930 -88.929 -88.916 -88.912 -88.912
-14.393 -14.391 -14.385 -14.383 -14.351 -14.345 -14.345 -14.343
-14.332 -14.324 -10.268 -10.266 -10.264 -10.261 -10.259 -10.257
-10.257 -10.255 -10.244 -10.243 -10.242 -10.242 -10.239 -10.235
-10.235 -10.232 -10.231 -10.231 -10.229 -10.229 -10.229 -10.229
-10.228 -10.225 -10.224 -10.223 -10.222 -10.219 -10.217 -10.215
-10.214 -10.214 -10.208 -10.205 -10.202 -10.201 -10.200 -10.190
-10.188 -10.187 -10.187 -10.183 -10.179 -10.176 -10.176 -10.175
-10.173 -10.170 -10.169 -10.167  -8.044  -8.042  -7.992  -7.992
 -7.990  -7.973  -7.971  -7.970  -6.009  -6.006  -6.003  -6.001
 -6.001  -5.999  -5.955  -5.955  -5.955  -5.952  -5.952  -5.951
 -5.949  -5.949  -5.947  -5.938  -5.936  -5.935  -5.934  -5.932
 -5.932  -5.930  -5.928  -5.926  -1.054  -1.039  -0.978  -0.974
 -0.957  -0.954  -0.936  -0.928  -0.923  -0.913  -0.906  -0.901
 -0.848  -0.835  -0.831  -0.827  -0.824  -0.810  -0.806  -0.805
 -0.804  -0.802  -0.795  -0.791  -0.785  -0.782  -0.771  -0.764
 -0.751  -0.744  -0.742  -0.736  -0.728  -0.715  -0.711  -0.708
 -0.693  -0.692  -0.672  -0.669  -0.652  -0.650  -0.648  -0.642
 -0.637  -0.632  -0.622  -0.620  -0.613  -0.609  -0.601  -0.599
 -0.597  -0.594  -0.584  -0.580  -0.579  -0.575  -0.573  -0.569
 -0.556  -0.547  -0.540  -0.539  -0.527  -0.526  -0.520  -0.513
 -0.507  -0.502  -0.499  -0.496  -0.486  -0.479  -0.479  -0.476
 -0.473  -0.470  -0.469  -0.467  -0.462  -0.461  -0.451  -0.449
 -0.448  -0.445  -0.439  -0.437  -0.435  -0.433  -0.431  -0.429
 -0.427  -0.424  -0.424  -0.420  -0.417  -0.416  -0.415  -0.411
 -0.409  -0.408  -0.403  -0.402  -0.401  -0.398  -0.398  -0.395
 -0.392  -0.391  -0.388  -0.388  -0.385  -0.383  -0.381  -0.378
 -0.377  -0.376  -0.373  -0.373  -0.367  -0.360  -0.359  -0.358
 -0.355  -0.354  -0.354  -0.349  -0.348  -0.344  -0.343  -0.343
 -0.337  -0.337  -0.334  -0.333  -0.332  -0.329  -0.328  -0.324
 -0.314  -0.312  -0.311  -0.308  -0.306  -0.306  -0.301  -0.300
 -0.298  -0.296  -0.294  -0.292  -0.290  -0.285  -0.281  -0.281
 -0.276  -0.270  -0.268  -0.261  -0.258  -0.254  -0.249  -0.249
 -0.245  -0.240  -0.233  -0.230  -0.195  -0.192

          Ground-State Mulliken Net Atomic Charges

     Atom                 Charge (a.u.)
  ----------------------------------------
      1 C                     0.257009
      2 C                    -0.119233
      3 N                    -0.486711
      4 C                    -0.073608
      5 C                     0.057215
      6 C                     0.049063
      7 C                     0.065826
      8 C                     0.046228
      9 C                     0.187876
     10 N                    -0.547160
     11 N                    -0.523188
     12 C                     0.176263
     13 C                     0.341333
     14 S                     0.589110
     15 N                    -0.542112
     16 C                    -0.215379
     17 S                     0.328373
     18 C                    -0.120708
     19 C                    -0.227594
     20 S                     0.297264
     21 C                     0.170628
     22 C                     0.057288
     23 C                    -0.324342
     24 C                    -0.035542
     25 N                    -0.435056
     26 S                     0.275427
     27 C                     0.112539
     28 C                    -0.313946
     29 C                    -0.237342
     30 H                     0.091001
     31 H                     0.120461
     32 H                     0.106133
     33 H                     0.109430
     34 H                     0.120560
     35 H                     0.112395
     36 H                     0.118666
     37 H                     0.142941
     38 H                     0.124161
     39 C                    -0.182134
     40 H                     0.114244
     41 H                     0.112818
     42 H                     0.102063
     43 C                    -0.187620
     44 H                     0.099936
     45 C                    -0.177952
     46 H                     0.095537
     47 H                     0.089950
     48 H                     0.091007
     49 C                    -0.174444
     50 H                     0.094000
     51 C                    -0.321616
     52 H                     0.089544
     53 H                     0.097731
     54 H                     0.104394
     55 H                     0.101867
     56 C                     0.268077
     57 C                    -0.128880
     58 N                    -0.477438
     59 C                    -0.073692
     60 C                     0.101271
     61 C                     0.020149
     62 C                     0.050549
     63 C                     0.047172
     64 C                     0.195461
     65 N                    -0.518447
     66 N                    -0.530994
     67 C                     0.222130
     68 C                     0.289728
     69 S                     0.612575
     70 N                    -0.554317
     71 C                    -0.231915
     72 S                     0.337129
     73 C                    -0.101616
     74 C                    -0.241148
     75 S                     0.270547
     76 C                     0.143595
     77 C                     0.085251
     78 C                    -0.305936
     79 C                    -0.078386
     80 N                    -0.429846
     81 S                     0.291296
     82 C                     0.110907
     83 C                    -0.309590
     84 C                    -0.220873
     85 H                     0.090129
     86 H                     0.121589
     87 H                     0.104241
     88 H                     0.110961
     89 H                     0.126574
     90 H                     0.106696
     91 H                     0.111768
     92 H                     0.135651
     93 H                     0.086756
     94 C                    -0.182123
     95 H                     0.117477
     96 H                     0.120783
     97 H                     0.085103
     98 C                    -0.180020
     99 H                     0.106084
    100 C                    -0.159642
    101 H                     0.080916
    102 H                     0.099581
    103 H                     0.090931
    104 C                    -0.190517
    105 H                     0.104398
    106 C                    -0.327932
    107 H                     0.095968
    108 H                     0.097057
    109 H                     0.099601
    110 H                     0.100623
  ----------------------------------------
  Sum of atomic charges =     0.000000

                    Cartesian Multipole Moments
 -----------------------------------------------------------------
    Charge (ESU x 10^10)
                 0.0000
    Dipole Moment (Debye)
         X      -1.0786      Y       3.3356      Z       2.3928
       Tot       4.2444
    Quadrupole Moments (Debye-Ang)
        XX    -371.1108     XY      -3.7532     YY    -434.0481
        XZ     -19.5312     YZ      -7.2796     ZZ    -436.0380

 Total job time:  82.90s(wall), 978.62s(cpu)
        *  Thank you very much for using Q-Chem.  Have a nice day.  *
