 Q-Chem 4.4, Q-Chem, Inc., Pleasanton, CA (2016)
 Q-Chem 4.4.2 for Intel X86 Linux

User input:
--------------------------------------------------------------
$comment
SP
$end

$rem
MEM_STATIC 5000
MEM_TOTAL 20000
JOBTYPE SP
EXCHANGE B3LYP
BASIS 6-31g(d,p)
$end

$molecule
0 1
C          -0.533000    -19.287000     -5.875000
C           0.167000    -18.790000     -4.747000
N          -1.568000    -20.211000     -5.719000
C          -0.136000    -19.269000     -3.480000
C          -1.837000    -20.729000     -4.460000
C          -1.157000    -20.236000     -3.281000
C          -1.661000    -20.540000     -1.968000
C          -3.075000    -20.354000     -1.720000
C          -0.857000    -20.918000     -0.848000
N          -3.564000    -20.535000     -0.502000
N           0.507000    -21.106000     -0.947000
C          -1.433000    -21.048000      0.417000
C          -2.843000    -20.885000      0.567000
S           1.010000    -21.174000      0.646000
N          -0.479000    -21.155000      1.363000
C          -3.671000    -21.112000      1.744000
S          -5.292000    -20.487000      1.800000
C          -3.375000    -21.923000      2.839000
C          -5.547000    -21.260000      3.445000
S          -2.073000    -22.958000      3.152000
C          -4.450000    -21.998000      3.733000
C          -6.788000    -21.202000      4.148000
C          -2.858000    -23.363000      4.688000
C          -4.152000    -22.936000      4.708000
N          -7.973000    -21.083000      3.489000
S          -6.947000    -21.523000      5.841000
C          -9.003000    -21.173000      4.291000
C          -8.695000    -21.417000      5.614000
C          -0.228000    -18.718000     -7.249000
H           0.985000    -18.090000     -4.890000
H           0.273000    -18.833000     -2.574000
H          -2.561000    -21.541000     -4.418000
H          -3.830000    -20.103000     -2.462000
H          -2.215000    -23.861000      5.402000
H          -4.738000    -23.128000      5.600000
H         -10.018000    -21.266000      3.929000
H          -9.315000    -21.409000      6.500000
H           0.658000    -18.071000     -7.276000
C          -1.429000    -17.777000     -7.568000
H          -0.116000    -19.487000     -8.024000
H          -1.837000    -17.303000     -6.667000
H          -2.256000    -18.445000     -7.839000
C          -1.337000    -16.705000     -8.744000
H          -1.860000    -15.764000     -8.534000
C          -1.980000    -17.172000    -10.066000
H          -0.272000    -16.528000     -8.941000
H          -3.062000    -16.992000    -10.035000
H          -1.827000    -18.243000    -10.247000
C          -1.595000    -16.333000    -11.271000
H          -1.896000    -15.308000    -11.021000
C          -2.309000    -16.775000    -12.486000
H          -0.504000    -16.329000    -11.382000
H          -3.348000    -17.047000    -12.260000
H          -1.880000    -17.671000    -12.949000
H          -2.106000    -16.045000    -13.280000
C          10.313000    -16.226000    -10.555000
C          10.917000    -17.277000     -9.808000
N           9.021000    -15.929000    -10.488000
C          10.159000    -18.043000     -8.929000
C           8.259000    -16.655000     -9.616000
C           8.749000    -17.764000     -8.829000
C           7.922000    -18.560000     -7.823000
C           8.229000    -19.900000     -7.589000
C           6.742000    -18.066000     -7.148000
N           7.641000    -20.686000     -6.677000
N           6.136000    -16.873000     -7.445000
C           6.044000    -18.918000     -6.255000
C           6.552000    -20.231000     -6.033000
S           4.865000    -16.838000     -6.429000
N           4.927000    -18.299000     -5.732000
C           5.975000    -21.204000     -5.100000
S           6.900000    -22.462000     -4.146000
C           4.636000    -21.394000     -4.891000
C           5.400000    -23.028000     -3.421000
S           3.363000    -20.785000     -5.860000
C           4.303000    -22.466000     -4.150000
C           5.284000    -24.072000     -2.454000
C           2.244000    -22.064000     -5.142000
C           2.938000    -22.864000     -4.143000
N           4.077000    -24.484000     -1.960000
S           6.704000    -24.774000     -1.699000
C           4.276000    -25.647000     -1.223000
C           5.619000    -26.025000     -1.110000
C          11.225000    -15.459000    -11.577000
H          11.978000    -17.498000     -9.880000
H          10.646000    -18.775000     -8.292000
H           7.218000    -16.346000     -9.536000
H           9.048000    -20.363000     -8.138000
H           1.211000    -22.079000     -5.465000
H           2.460000    -23.669000     -3.595000
H           3.441000    -26.221000     -0.842000
H           6.039000    -26.788000     -0.468000
H          11.849000    -16.150000    -12.157000
C          12.207000    -14.535000    -10.786000
H          10.518000    -14.937000    -12.235000
H          12.641000    -15.050000     -9.920000
H          11.722000    -13.621000    -10.422000
C          13.311000    -13.861000    -11.640000
H          13.581000    -14.607000    -12.398000
C          14.562000    -13.520000    -10.796000
H          12.883000    -12.960000    -12.097000
H          14.784000    -14.507000    -10.374000
H          14.360000    -12.876000     -9.932000
C          15.823000    -13.036000    -11.559000
H          16.773000    -13.195000    -11.034000
C          15.776000    -11.559000    -11.987000
H          15.925000    -13.647000    -12.464000
H          15.538000    -10.918000    -11.129000
H          14.903000    -11.418000    -12.637000
H          16.691000    -11.242000    -12.502000
$end

--------------------------------------------------------------

             Standard Nuclear Orientation (Angstroms)
    I     Atom           X                Y                Z
 ----------------------------------------------------------------
    1      C      -0.6807976597     3.3004170784    -1.2788029236
    2      C      -0.7286806686     2.5069013913    -0.1051619769
    3      N      -1.7907058731     3.3919479355    -2.1208616270
    4      C      -1.8664728013     1.7652953148     0.1811743467
    5      C      -2.9090716407     2.6115775873    -1.8638672116
    6      C      -3.0043580768     1.8014985100    -0.6679648813
    7      C      -4.2712654814     1.2598702322    -0.2532536123
    8      C      -5.4162765140     2.1451888939    -0.2276293591
    9      C      -4.4749412958    -0.0675320988     0.2368680199
   10      N      -6.5799345531     1.7110198970     0.2336766676
   11      N      -3.4595822262    -1.0015090146     0.2855925582
   12      C      -5.7179734636    -0.4430096520     0.7494971615
   13      C      -6.8055910167     0.4799984470     0.7014023884
   14      S      -4.0938502327    -2.2208035361     1.2375941158
   15      N      -5.6298547829    -1.6285963433     1.3843989615
   16      C      -8.2061298946     0.2633331919     1.0390249865
   17      S      -9.2656770294     1.6224072732     1.2663562665
   18      C      -8.8861104038    -0.9535317331     1.0740715484
   19      C     -10.6819334900     0.4883779955     1.5434379061
   20      S      -8.4013461456    -2.5241812476     0.6710061486
   21      C     -10.2521683030    -0.7759258703     1.3247266373
   22      C     -12.0159507854     0.9479833900     1.7598050405
   23      C     -10.0407983454    -3.0574207078     1.0801493541
   24      C     -10.8908198324    -1.9979181988     1.1900716225
   25      N     -12.4487477793     2.1358676683     1.2555385400
   26      S     -13.2685707538    -0.0310871437     2.4431315398
   27      C     -13.7287466911     2.3256082188     1.4499744147
   28      C     -14.3872510052     1.2834024247     2.0703840785
   29      C       0.5491431987     4.1466258817    -1.5541901890
   30      H       0.1525131037     2.4288680848     0.5249025744
   31      H      -2.0078545431     1.2472918634     1.1245176710
   32      H      -3.6888429549     2.6225787964    -2.6235511400
   33      H      -5.4450227768     3.1693409162    -0.5935204462
   34      H     -10.1442485245    -4.1266233725     1.2118790858
   35      H     -11.9270629641    -2.1998219293     1.4377792236
   36      H     -14.2777085137     3.1294464188     0.9783781196
   37      H     -15.3905734401     1.2143809611     2.4679266917
   38      H       1.3942319359     3.9335825993    -0.8872782113
   39      C       0.1170144922     5.6043309560    -1.2106735265
   40      H       0.9029608845     4.0766896761    -2.5907479406
   41      H      -0.6129643718     5.6401765665    -0.3928795730
   42      H      -0.5057632096     5.9278778929    -2.0539168566
   43      C       1.2038561497     6.7530560298    -1.0110991885
   44      H       0.9437290512     7.4860828633    -0.2377198804
   45      C       1.4220110654     7.6299227955    -2.2611932281
   46      H       2.1586051334     6.2622869396    -0.7831450744
   47      H       0.6543804524     8.4129480706    -2.3024201676
   48      H       1.3562798069     7.0517438610    -3.1910316664
   49      C       2.6794957988     8.4785763177    -2.2093246941
   50      H       2.5809669335     9.0910786715    -1.3044164505
   51      C       2.7858580185     9.3575166154    -3.3914989753
   52      H       3.5532147510     7.8316573511    -2.0653488516
   53      H       1.8065364352     9.7647168127    -3.6738077348
   54      H       3.1455980878     8.8457010783    -4.2914200488
   55      H       3.6251576987    10.0449270715    -3.2254028834
   56      C      11.0394962051     0.4159522823     0.5163047510
   57      C      10.7368507788    -0.9430840948     0.2182244401
   58      N      10.1265763287     1.3789792528     0.5497465441
   59      C       9.4262000860    -1.3350023894    -0.0318871587
   60      C       8.8281645479     1.0149350592     0.3268055824
   61      C       8.4010142817    -0.3227359846    -0.0160191960
   62      C       6.9527387906    -0.7542088603    -0.2302859906
   63      C       6.6705190455    -1.8001034952    -1.1083870260
   64      C       5.7992902063    -0.0846771627     0.3294859892
   65      N       5.4592711994    -2.3309430669    -1.3237286256
   66      N       5.8603259717     1.1102347228     0.9981819001
   67      C       4.5008498897    -0.5693500497     0.0299831734
   68      C       4.3814917219    -1.7248442276    -0.7957915130
   69      S       4.3041407539     1.4087722466     1.3697796865
   70      N       3.5218586330     0.2081637778     0.6143010383
   71      C       3.1146138750    -2.3746930709    -1.1463111296
   72      S       2.8641554874    -4.1648159902    -1.4309785319
   73      C       1.9470116882    -1.7193735594    -1.4290892607
   74      C       1.1563871369    -3.8844095073    -1.7485953850
   75      S       1.7742695439    -0.0442002641    -1.7362139619
   76      C       0.9519608831    -2.4778051569    -1.9228598626
   77      C       0.1888790009    -4.8901815766    -2.0499781174
   78      C       0.1581441617    -0.3910239462    -2.5555906045
   79      C      -0.1661405756    -1.8089295491    -2.4921862622
   80      N      -1.1181701122    -4.5931539182    -2.3220556542
   81      S       0.5772252984    -6.5958778867    -1.9120786941
   82      C      -1.7434297944    -5.7439689322    -2.7911122963
   83      C      -0.9263689545    -6.8804120174    -2.7765968554
   84      C      12.5524439939     0.7852085060     0.7141830707
   85      H      11.5032737061    -1.7124893448     0.1993178913
   86      H       9.1920019373    -2.3873517957    -0.1602380609
   87      H       8.0953980873     1.8143812477     0.4242791998
   88      H       7.4883520207    -2.2861596320    -1.6388864666
   89      H      -0.4070707198     0.4455041121    -2.9459698371
   90      H      -1.0760857067    -2.2258554252    -2.9104991502
   91      H      -2.7503471274    -5.7150073273    -3.1875220715
   92      H      -1.2214419151    -7.9085984787    -2.9393775321
   93      H      13.1839346287     0.3198499060    -0.0525750082
   94      C      13.0368767644     0.2192524383     2.0885191360
   95      H      12.5805694700     1.8788036054     0.6216859564
   96      H      12.6806891951    -0.8050018606     2.2545629454
   97      H      12.7020616023     0.8303230143     2.9356369308
   98      C      14.5620360910     0.3234925341     2.3443140362
   99      H      15.0279878277     0.1541555296     1.3654402149
  100      C      15.0536983225    -0.7592566831     3.3340313609
  101      H      14.7740924271     1.3316938305     2.7216683209
  102      H      14.6881944807    -1.6610894926     2.8294111814
  103      H      14.5445407729    -0.7459114307     4.3049157484
  104      C      16.5866461699    -0.9080944219     3.5196767880
  105      H      16.9184114957    -1.8928343336     3.8712803645
  106      C      17.2177453675     0.1468332943     4.4447515505
  107      H      17.0564607296    -0.8166996127     2.5329289639
  108      H      16.6849629842     0.1851745892     5.4030635442
  109      H      17.0152392018     1.1390390727     4.0216334275
  110      H      18.2968673028    -0.0003236101     4.5742880102
 ----------------------------------------------------------------

   10   -5663.4810274274      3.81E-06 Convergence criterion met
 Total energy in the final basis set = -5663.4810274274

                    Orbital Energies (a.u.)
 --------------------------------------------------------------

 Alpha MOs
 -- Occupied --
-88.995 -88.988 -88.928 -88.928 -88.923 -88.919 -88.909 -88.905
-14.394 -14.390 -14.384 -14.383 -14.351 -14.343 -14.342 -14.338
-14.337 -14.334 -10.270 -10.268 -10.266 -10.265 -10.265 -10.261
-10.257 -10.256 -10.243 -10.241 -10.240 -10.238 -10.238 -10.238
-10.235 -10.235 -10.235 -10.234 -10.233 -10.232 -10.230 -10.230
-10.227 -10.226 -10.226 -10.225 -10.225 -10.224 -10.223 -10.216
-10.214 -10.209 -10.208 -10.206 -10.204 -10.202 -10.201 -10.200
-10.194 -10.193 -10.184 -10.181 -10.181 -10.181 -10.180 -10.180
-10.171 -10.170 -10.170 -10.167  -8.050  -8.043  -7.989  -7.986
 -7.984  -7.977  -7.971  -7.965  -6.015  -6.009  -6.008  -6.008
 -6.003  -6.001  -5.953  -5.950  -5.950  -5.948  -5.947  -5.947
 -5.945  -5.943  -5.941  -5.941  -5.937  -5.935  -5.933  -5.931
 -5.930  -5.927  -5.926  -5.921  -1.040  -1.024  -0.971  -0.962
 -0.960  -0.953  -0.937  -0.921  -0.918  -0.914  -0.905  -0.892
 -0.849  -0.835  -0.830  -0.828  -0.814  -0.811  -0.805  -0.805
 -0.802  -0.799  -0.795  -0.793  -0.789  -0.779  -0.768  -0.765
 -0.753  -0.746  -0.743  -0.738  -0.725  -0.720  -0.714  -0.709
 -0.691  -0.691  -0.675  -0.670  -0.654  -0.649  -0.647  -0.642
 -0.636  -0.635  -0.626  -0.621  -0.609  -0.608  -0.601  -0.594
 -0.594  -0.586  -0.582  -0.581  -0.576  -0.574  -0.567  -0.567
 -0.549  -0.546  -0.544  -0.543  -0.526  -0.524  -0.518  -0.508
 -0.505  -0.504  -0.502  -0.500  -0.485  -0.484  -0.478  -0.476
 -0.474  -0.473  -0.469  -0.467  -0.466  -0.463  -0.453  -0.447
 -0.447  -0.443  -0.442  -0.442  -0.433  -0.432  -0.432  -0.431
 -0.429  -0.422  -0.422  -0.420  -0.418  -0.416  -0.415  -0.415
 -0.414  -0.412  -0.410  -0.405  -0.399  -0.398  -0.395  -0.395
 -0.394  -0.392  -0.391  -0.389  -0.387  -0.385  -0.382  -0.381
 -0.377  -0.375  -0.375  -0.372  -0.369  -0.363  -0.359  -0.358
 -0.355  -0.355  -0.350  -0.347  -0.346  -0.345  -0.341  -0.341
 -0.336  -0.335  -0.333  -0.331  -0.330  -0.327  -0.323  -0.317
 -0.312  -0.311  -0.310  -0.308  -0.306  -0.302  -0.302  -0.301
 -0.299  -0.297  -0.293  -0.293  -0.286  -0.281  -0.279  -0.277
 -0.276  -0.269  -0.267  -0.262  -0.254  -0.253  -0.248  -0.247
 -0.244  -0.241  -0.232  -0.232  -0.190  -0.187

          Ground-State Mulliken Net Atomic Charges

     Atom                 Charge (a.u.)
  ----------------------------------------
      1 C                     0.257021
      2 C                    -0.108675
      3 N                    -0.492233
      4 C                    -0.040149
      5 C                     0.055484
      6 C                     0.031288
      7 C                    -0.029118
      8 C                     0.079576
      9 C                     0.220822
     10 N                    -0.508425
     11 N                    -0.550875
     12 C                     0.224472
     13 C                     0.307437
     14 S                     0.608395
     15 N                    -0.561416
     16 C                    -0.213668
     17 S                     0.341228
     18 C                    -0.113996
     19 C                    -0.202785
     20 S                     0.274741
     21 C                     0.173054
     22 C                     0.004757
     23 C                    -0.291604
     24 C                    -0.101279
     25 N                    -0.412837
     26 S                     0.267995
     27 C                     0.144676
     28 C                    -0.317050
     29 C                    -0.223015
     30 H                     0.099209
     31 H                     0.103029
     32 H                     0.114701
     33 H                     0.126242
     34 H                     0.136947
     35 H                     0.107460
     36 H                     0.116445
     37 H                     0.130660
     38 H                     0.103466
     39 C                    -0.196912
     40 H                     0.120451
     41 H                     0.098279
     42 H                     0.121836
     43 C                    -0.181330
     44 H                     0.096248
     45 C                    -0.179385
     46 H                     0.086002
     47 H                     0.090222
     48 H                     0.090940
     49 C                    -0.166679
     50 H                     0.089949
     51 C                    -0.313112
     52 H                     0.088092
     53 H                     0.102112
     54 H                     0.101173
     55 H                     0.098282
     56 C                     0.268370
     57 C                    -0.106791
     58 N                    -0.480737
     59 C                    -0.081695
     60 C                     0.072369
     61 C                     0.022643
     62 C                     0.047370
     63 C                     0.052413
     64 C                     0.194585
     65 N                    -0.504738
     66 N                    -0.538554
     67 C                     0.229247
     68 C                     0.248599
     69 S                     0.617151
     70 N                    -0.543305
     71 C                    -0.189510
     72 S                     0.307443
     73 C                    -0.098926
     74 C                    -0.210541
     75 S                     0.253555
     76 C                     0.116441
     77 C                     0.059802
     78 C                    -0.314343
     79 C                    -0.034366
     80 N                    -0.451923
     81 S                     0.260526
     82 C                     0.119117
     83 C                    -0.304217
     84 C                    -0.228790
     85 H                     0.089799
     86 H                     0.105642
     87 H                     0.127512
     88 H                     0.110163
     89 H                     0.146638
     90 H                     0.140263
     91 H                     0.118154
     92 H                     0.125542
     93 H                     0.105909
     94 C                    -0.184757
     95 H                     0.120587
     96 H                     0.095297
     97 H                     0.108920
     98 C                    -0.182109
     99 H                     0.087710
    100 C                    -0.177939
    101 H                     0.098723
    102 H                     0.088016
    103 H                     0.091605
    104 C                    -0.177301
    105 H                     0.091916
    106 C                    -0.315145
    107 H                     0.091026
    108 H                     0.100308
    109 H                     0.102668
    110 H                     0.101510
  ----------------------------------------
  Sum of atomic charges =     0.000000

                    Cartesian Multipole Moments
 -----------------------------------------------------------------
    Charge (ESU x 10^10)
                 0.0000
    Dipole Moment (Debye)
         X      -1.2965      Y      -4.0690      Z       1.8053
       Tot       4.6364
    Quadrupole Moments (Debye-Ang)
        XX    -383.3931     XY      11.3633     YY    -427.5086
        XZ      -6.3839     YZ       3.1836     ZZ    -450.5139

 Total job time:  88.88s(wall), 1041.77s(cpu)
        *  Thank you very much for using Q-Chem.  Have a nice day.  *
