 Q-Chem 4.4, Q-Chem, Inc., Pleasanton, CA (2016)
 Q-Chem 4.4.2 for Intel X86 Linux

User input:
--------------------------------------------------------------
$comment
SP
$end

$rem
MEM_STATIC 5000
MEM_TOTAL 20000
JOBTYPE SP
EXCHANGE B3LYP
BASIS 6-31g(d,p)
$end

$molecule
0 1
C          15.735000    -25.005000    -11.389000
C          16.081000    -24.130000    -10.345000
N          15.000000    -26.137000    -11.161000
C          15.477000    -24.256000     -9.058000
C          14.419000    -26.257000     -9.939000
C          14.592000    -25.350000     -8.876000
C          13.787000    -25.529000     -7.614000
C          12.540000    -26.143000     -7.647000
C          14.233000    -25.148000     -6.320000
N          11.851000    -26.448000     -6.552000
N          15.482000    -24.784000     -5.979000
C          13.471000    -25.390000     -5.160000
C          12.238000    -25.993000     -5.304000
S          15.490000    -24.511000     -4.354000
N          14.075000    -25.087000     -4.011000
C          11.306000    -26.312000     -4.210000
S          11.653000    -26.041000     -2.513000
C          10.104000    -27.004000     -4.399000
C          10.151000    -26.786000     -2.027000
S           9.274000    -27.475000     -5.814000
C           9.492000    -27.238000     -3.163000
C           9.706000    -27.087000     -0.649000
C           7.892000    -27.844000     -4.779000
C           8.198000    -27.738000     -3.409000
N           8.672000    -27.871000     -0.493000
S          10.474000    -26.428000      0.791000
C           8.512000    -28.163000      0.876000
C           9.415000    -27.563000      1.706000
C          16.178000    -24.944000    -12.826000
H          16.724000    -23.260000    -10.441000
H          15.849000    -23.646000     -8.241000
H          13.881000    -27.175000     -9.708000
H          12.103000    -26.529000     -8.567000
H           6.986000    -28.224000     -5.232000
H           7.426000    -27.894000     -2.664000
H           7.796000    -28.921000      1.164000
H           9.604000    -27.690000      2.763000
H          17.274000    -24.910000    -12.787000
C          15.530000    -23.699000    -13.581000
H          15.928000    -25.816000    -13.442000
H          15.814000    -23.694000    -14.640000
H          15.842000    -22.738000    -13.154000
C          13.917000    -23.667000    -13.537000
H          13.686000    -23.592000    -12.468000
C          13.230000    -24.918000    -14.101000
H          13.553000    -22.724000    -13.963000
H          12.137000    -24.879000    -14.007000
H          13.652000    -25.799000    -13.601000
C          13.639000    -25.059000    -15.595000
H          13.486000    -24.101000    -16.107000
C          12.742000    -26.101000    -16.303000
H          14.659000    -25.451000    -15.685000
H          12.864000    -27.127000    -15.934000
H          12.987000    -26.067000    -17.372000
H          11.676000    -25.844000    -16.332000
C          10.313000    -16.226000    -10.555000
C          10.917000    -17.277000     -9.808000
N           9.021000    -15.929000    -10.488000
C          10.159000    -18.043000     -8.929000
C           8.259000    -16.655000     -9.616000
C           8.749000    -17.764000     -8.829000
C           7.922000    -18.560000     -7.823000
C           8.229000    -19.900000     -7.589000
C           6.742000    -18.066000     -7.148000
N           7.641000    -20.686000     -6.677000
N           6.136000    -16.873000     -7.445000
C           6.044000    -18.918000     -6.255000
C           6.552000    -20.231000     -6.033000
S           4.865000    -16.838000     -6.429000
N           4.927000    -18.299000     -5.732000
C           5.975000    -21.204000     -5.100000
S           6.900000    -22.462000     -4.146000
C           4.636000    -21.394000     -4.891000
C           5.400000    -23.028000     -3.421000
S           3.363000    -20.785000     -5.860000
C           4.303000    -22.466000     -4.150000
C           5.284000    -24.072000     -2.454000
C           2.244000    -22.064000     -5.142000
C           2.938000    -22.864000     -4.143000
N           4.077000    -24.484000     -1.960000
S           6.704000    -24.774000     -1.699000
C           4.276000    -25.647000     -1.223000
C           5.619000    -26.025000     -1.110000
C          11.225000    -15.459000    -11.577000
H          11.978000    -17.498000     -9.880000
H          10.646000    -18.775000     -8.292000
H           7.218000    -16.346000     -9.536000
H           9.048000    -20.363000     -8.138000
H           1.211000    -22.079000     -5.465000
H           2.460000    -23.669000     -3.595000
H           3.441000    -26.221000     -0.842000
H           6.039000    -26.788000     -0.468000
H          11.849000    -16.150000    -12.157000
C          12.207000    -14.535000    -10.786000
H          10.518000    -14.937000    -12.235000
H          12.641000    -15.050000     -9.920000
H          11.722000    -13.621000    -10.422000
C          13.311000    -13.861000    -11.640000
H          13.581000    -14.607000    -12.398000
C          14.562000    -13.520000    -10.796000
H          12.883000    -12.960000    -12.097000
H          14.784000    -14.507000    -10.374000
H          14.360000    -12.876000     -9.932000
C          15.823000    -13.036000    -11.559000
H          16.773000    -13.195000    -11.034000
C          15.776000    -11.559000    -11.987000
H          15.925000    -13.647000    -12.464000
H          15.538000    -10.918000    -11.129000
H          14.903000    -11.418000    -12.637000
H          16.691000    -11.242000    -12.502000
$end

--------------------------------------------------------------

             Standard Nuclear Orientation (Angstroms)
    I     Atom           X                Y                Z
 ----------------------------------------------------------------
    1      C      -4.4495363151     6.3888248572    -0.9911879101
    2      C      -4.3338103553     5.8684107630     0.3092172855
    3      N      -3.3480112678     6.6273280338    -1.7679708945
    4      C      -3.0919119881     5.3420603833     0.7758056730
    5      C      -2.1655688534     6.1225434053    -1.3294878099
    6      C      -1.9836621950     5.4555415085    -0.1028805226
    7      C      -0.6478680228     4.8286264846     0.2058936382
    8      C       0.1830887808     4.3853185888    -0.8168883033
    9      C      -0.1149488913     4.6855825179     1.5151104357
   10      N       1.4226092419     3.9522612934    -0.6099549677
   11      N      -0.5845805234     5.2589511185     2.6373726947
   12      C       1.1655372478     4.1477915686     1.7516355771
   13      C       1.9048470355     3.7230342128     0.6664460884
   14      S       0.4256349253     4.8346685022     3.8680907813
   15      N       1.5738045788     4.1914280431     3.0197994642
   16      C       3.2506569081     3.1292138878     0.7247059249
   17      S       4.1754452284     2.9337817822     2.2012667448
   18      C       3.9951519422     2.7948489666    -0.4125347021
   19      C       5.5570663595     2.3260340974     1.3243455388
   20      S       3.5826623028     2.7487390625    -2.0680383034
   21      C       5.2645407079     2.3456182982    -0.0332723022
   22      C       6.8981012680     2.0197952432     1.8678095564
   23      C       5.0978186724     1.8824075584    -2.3346483196
   24      C       5.8974140903     1.8213403826    -1.1776306155
   25      N       7.8737494660     1.8165807577     1.0222550244
   26      S       7.2478918082     1.8877473307     3.5876685410
   27      C       9.0869976391     1.7055594315     1.7298764880
   28      C       8.9767751655     1.7994209922     3.0875767545
   29      C      -5.6968864494     6.8695044206    -1.6825660990
   30      H      -5.1553362336     5.7282784987     1.0056533413
   31      H      -3.0005172456     5.0579514859     1.8193104097
   32      H      -1.2628433841     6.3499255278    -1.8942117225
   33      H      -0.0820186806     4.4829791114    -1.8688129471
   34      H       5.3561038870     1.5775989602    -3.3400464827
   35      H       6.8353963392     1.2778708336    -1.1908650360
   36      H      10.0131064026     1.6880940110     1.1711444259
   37      H       9.7305559375     1.8646338665     3.8600149907
   38      H      -6.1350823234     7.6097991258    -1.0015072724
   39      C      -6.6765495645     5.6587795130    -2.0207367348
   40      H      -5.5460046564     7.3920963169    -2.6346545374
   41      H      -7.5559474920     6.0110151120    -2.5727796388
   42      H      -7.0386458688     5.1456379608    -1.1214225440
   43      C      -6.0050436427     4.4971819667    -2.9176759398
   44      H      -5.1851644920     4.1249798684    -2.2923673950
   45      C      -5.4249726051     4.9691342013    -4.2577672350
   46      H      -6.6940174362     3.6476829480    -3.0006670792
   47      H      -4.9335982668     4.1604830958    -4.8142208712
   48      H      -4.7414384051     5.8052700712    -4.0630808089
   49      C      -6.5855635629     5.5750218154    -5.0974855376
   50      H      -7.4308346617     4.8759530641    -5.1091752955
   51      C      -6.1410600456     5.7751873355    -6.5651324256
   52      H      -6.8453551740     6.5776486438    -4.7377470746
   53      H      -5.3475477032     6.5209414121    -6.6989607475
   54      H      -7.0280766354     6.0813125455    -7.1338423034
   55      H      -5.8719104198     4.8518296430    -7.0925933726
   56      C      -6.5862344962    -3.6559637701     0.3131216067
   57      C      -5.7036995903    -2.6100642786     0.7063802919
   58      N      -6.1784808521    -4.7800646848    -0.2631561902
   59      C      -4.3314028039    -2.7386613543     0.5213794213
   60      C      -4.8321229749    -4.9382946646    -0.4374769865
   61      C      -3.8416681228    -3.9379683089    -0.1093057385
   62      C      -2.3330890544    -4.1128717973    -0.2615521320
   63      C      -1.5350603130    -2.9985967747    -0.5187413655
   64      C      -1.6452786284    -5.3852226512    -0.2716081046
   65      N      -0.1971286569    -2.9987428970    -0.5910107393
   66      N      -2.2837618465    -6.5978181996    -0.2970092110
   67      C      -0.2389331756    -5.4138555137    -0.4502967343
   68      C       0.4532729029    -4.1754494671    -0.5863783590
   69      S      -1.0552045239    -7.6647415772    -0.3322712498
   70      N       0.2435462052    -6.7065842416    -0.4713937275
   71      C       1.9071870195    -4.0407394159    -0.7210406919
   72      S       2.9241425880    -2.6557861419    -0.0917468017
   73      C       2.7105669047    -4.8796479623    -1.4445842019
   74      C       4.3757594772    -3.4220534926    -0.7254847242
   75      S       2.1905267171    -6.0548174430    -2.5754714177
   76      C       3.9828222357    -4.4762992666    -1.6114080687
   77      C       5.7060709140    -2.9191518258    -0.5996181496
   78      C       3.8835188140    -6.0559297651    -3.3084806419
   79      C       4.7689179013    -5.1588070796    -2.5798680265
   80      N       6.7854482708    -3.5528056671    -1.1510311807
   81      S       6.0648328447    -1.5443996301     0.4302242061
   82      C       7.8891139861    -2.7118661706    -1.0506232519
   83      C       7.6355093134    -1.5220983114    -0.3582078340
   84      C      -8.1246352367    -3.3988073322     0.4911966696
   85      H      -6.0636514504    -1.7003857921     1.1782549678
   86      H      -3.6599358897    -1.9808566299     0.9133311820
   87      H      -4.5241745228    -5.8963919543    -0.8531443225
   88      H      -2.0025785128    -2.0199594464    -0.6198685751
   89      H       4.0812969992    -6.7233049061    -4.1374180404
   90      H       5.8112073372    -5.0147569509    -2.8438666857
   91      H       8.8268759419    -2.9547690666    -1.5338030294
   92      H       8.3553669007    -0.7904970341    -0.0157204252
   93      H      -8.4063939015    -2.3937629428     0.1539210697
   94      C      -8.4776872946    -3.4693471482     2.0124328047
   95      H      -8.6031056257    -4.1617736774    -0.1366930045
   96      H      -7.7423889408    -2.9336771066     2.6255648765
   97      H      -8.5334622023    -4.5001991211     2.3830409125
   98      C      -9.9213096854    -3.0373709461     2.3754189665
   99      H     -10.1555461653    -2.2163750074     1.6861592621
  100      C     -10.0174626365    -2.5208013095     3.8305919530
  101      H     -10.5827782357    -3.8979938872     2.2153517611
  102      H      -9.2486452250    -1.7397972979     3.8084668203
  103      H      -9.6773351322    -3.2386471875     4.5862681907
  104      C     -11.3526794518    -1.8596719776     4.2626221170
  105      H     -11.2734370082    -1.1592186212     5.1031527416
  106      C     -12.4733277458    -2.8581301519     4.6004840346
  107      H     -11.7000673481    -1.2289885568     3.4353917547
  108      H     -12.1211355665    -3.5982844658     5.3297447976
  109      H     -12.6636285140    -3.4735258671     3.7118987932
  110      H     -13.3951484928    -2.3602916331     4.9250488502
 ----------------------------------------------------------------

   10   -5663.5108752697      7.24E-06 Convergence criterion met
 Total energy in the final basis set = -5663.5108752697

                    Orbital Energies (a.u.)
 --------------------------------------------------------------

 Alpha MOs
 -- Occupied --
-88.993 -88.992 -88.929 -88.929 -88.926 -88.919 -88.910 -88.905
-14.392 -14.387 -14.385 -14.378 -14.348 -14.348 -14.348 -14.340
-14.334 -14.333 -10.278 -10.266 -10.264 -10.263 -10.263 -10.260
-10.256 -10.252 -10.243 -10.242 -10.241 -10.239 -10.238 -10.238
-10.238 -10.236 -10.236 -10.234 -10.233 -10.230 -10.229 -10.229
-10.227 -10.226 -10.225 -10.224 -10.222 -10.222 -10.220 -10.218
-10.215 -10.215 -10.207 -10.206 -10.206 -10.205 -10.200 -10.192
-10.192 -10.190 -10.188 -10.183 -10.181 -10.181 -10.180 -10.176
-10.174 -10.172 -10.169 -10.165  -8.049  -8.047  -7.990  -7.988
 -7.984  -7.980  -7.970  -7.966  -6.014  -6.012  -6.009  -6.007
 -6.006  -6.005  -5.954  -5.952  -5.950  -5.949  -5.948  -5.947
 -5.945  -5.945  -5.943  -5.941  -5.940  -5.937  -5.934  -5.931
 -5.930  -5.926  -5.926  -5.921  -1.053  -1.037  -0.970  -0.960
 -0.956  -0.949  -0.936  -0.934  -0.916  -0.913  -0.908  -0.902
 -0.848  -0.834  -0.829  -0.827  -0.817  -0.809  -0.805  -0.803
 -0.798  -0.795  -0.794  -0.793  -0.780  -0.779  -0.766  -0.764
 -0.748  -0.744  -0.737  -0.736  -0.725  -0.719  -0.709  -0.708
 -0.693  -0.690  -0.678  -0.668  -0.653  -0.652  -0.650  -0.645
 -0.634  -0.634  -0.626  -0.625  -0.611  -0.606  -0.597  -0.594
 -0.593  -0.584  -0.583  -0.581  -0.578  -0.575  -0.567  -0.551
 -0.547  -0.544  -0.543  -0.542  -0.526  -0.524  -0.516  -0.506
 -0.505  -0.504  -0.502  -0.497  -0.490  -0.484  -0.479  -0.475
 -0.474  -0.472  -0.471  -0.466  -0.465  -0.465  -0.451  -0.446
 -0.442  -0.442  -0.436  -0.435  -0.435  -0.433  -0.432  -0.430
 -0.430  -0.421  -0.420  -0.418  -0.416  -0.414  -0.414  -0.413
 -0.409  -0.408  -0.405  -0.404  -0.402  -0.400  -0.397  -0.394
 -0.394  -0.392  -0.390  -0.387  -0.386  -0.384  -0.381  -0.380
 -0.380  -0.376  -0.373  -0.371  -0.369  -0.360  -0.357  -0.356
 -0.355  -0.354  -0.352  -0.349  -0.348  -0.344  -0.341  -0.340
 -0.338  -0.337  -0.335  -0.335  -0.331  -0.328  -0.323  -0.317
 -0.315  -0.308  -0.308  -0.306  -0.305  -0.304  -0.300  -0.298
 -0.298  -0.295  -0.290  -0.290  -0.288  -0.284  -0.283  -0.277
 -0.272  -0.271  -0.268  -0.266  -0.260  -0.256  -0.251  -0.248
 -0.247  -0.244  -0.231  -0.230  -0.195  -0.185

          Ground-State Mulliken Net Atomic Charges

     Atom                 Charge (a.u.)
  ----------------------------------------
      1 C                     0.278780
      2 C                    -0.123055
      3 N                    -0.480896
      4 C                    -0.077675
      5 C                     0.064522
      6 C                     0.055656
      7 C                     0.033266
      8 C                     0.059441
      9 C                     0.224849
     10 N                    -0.529674
     11 N                    -0.561677
     12 C                     0.191048
     13 C                     0.312983
     14 S                     0.603656
     15 N                    -0.542554
     16 C                    -0.231032
     17 S                     0.330159
     18 C                    -0.102254
     19 C                    -0.232754
     20 S                     0.303072
     21 C                     0.160181
     22 C                     0.084278
     23 C                    -0.312330
     24 C                    -0.065900
     25 N                    -0.449826
     26 S                     0.250024
     27 C                     0.119283
     28 C                    -0.303662
     29 C                    -0.230808
     30 H                     0.092716
     31 H                     0.126561
     32 H                     0.105805
     33 H                     0.118074
     34 H                     0.127800
     35 H                     0.122311
     36 H                     0.119541
     37 H                     0.137701
     38 H                     0.105567
     39 C                    -0.197118
     40 H                     0.126667
     41 H                     0.100005
     42 H                     0.089269
     43 C                    -0.187965
     44 H                     0.089269
     45 C                    -0.169898
     46 H                     0.087119
     47 H                     0.088983
     48 H                     0.118409
     49 C                    -0.171639
     50 H                     0.090986
     51 C                    -0.326055
     52 H                     0.097889
     53 H                     0.103976
     54 H                     0.091801
     55 H                     0.098316
     56 C                     0.268374
     57 C                    -0.106084
     58 N                    -0.480401
     59 C                    -0.081734
     60 C                     0.071940
     61 C                     0.022531
     62 C                     0.046658
     63 C                     0.051919
     64 C                     0.193802
     65 N                    -0.503871
     66 N                    -0.538293
     67 C                     0.228315
     68 C                     0.247443
     69 S                     0.622592
     70 N                    -0.543186
     71 C                    -0.191002
     72 S                     0.314708
     73 C                    -0.098967
     74 C                    -0.208360
     75 S                     0.258047
     76 C                     0.117032
     77 C                     0.056165
     78 C                    -0.315852
     79 C                    -0.039669
     80 N                    -0.454865
     81 S                     0.275174
     82 C                     0.116836
     83 C                    -0.309551
     84 C                    -0.228723
     85 H                     0.088039
     86 H                     0.104577
     87 H                     0.128038
     88 H                     0.109471
     89 H                     0.132970
     90 H                     0.139227
     91 H                     0.115482
     92 H                     0.132754
     93 H                     0.105325
     94 C                    -0.184607
     95 H                     0.120550
     96 H                     0.094935
     97 H                     0.109039
     98 C                    -0.182397
     99 H                     0.087494
    100 C                    -0.177404
    101 H                     0.098923
    102 H                     0.087425
    103 H                     0.091620
    104 C                    -0.178061
    105 H                     0.091595
    106 C                    -0.314794
    107 H                     0.091011
    108 H                     0.100373
    109 H                     0.102844
    110 H                     0.101405
  ----------------------------------------
  Sum of atomic charges =     0.000000

                    Cartesian Multipole Moments
 -----------------------------------------------------------------
    Charge (ESU x 10^10)
                 0.0000
    Dipole Moment (Debye)
         X       1.6804      Y       0.8596      Z       3.0974
       Tot       3.6272
    Quadrupole Moments (Debye-Ang)
        XX    -402.1219     XY      -8.0881     YY    -463.4842
        XZ      -4.3025     YZ      17.8913     ZZ    -431.2813

 Total job time:  91.45s(wall), 1080.14s(cpu)
        *  Thank you very much for using Q-Chem.  Have a nice day.  *
