 Q-Chem 4.4, Q-Chem, Inc., Pleasanton, CA (2016)
 Q-Chem 4.4.2 for Intel X86 Linux

User input:
--------------------------------------------------------------
$comment
SP
$end

$rem
MEM_STATIC 5000
MEM_TOTAL 20000
JOBTYPE SP
EXCHANGE B3LYP
BASIS 6-31g(d,p)
$end

$molecule
0 1
C         -18.443000     21.792000     -5.629000
C         -19.268000     21.973000     -4.432000
N         -18.163000     20.596000     -6.155000
C         -19.687000     20.812000     -3.802000
C         -18.681000     19.503000     -5.563000
C         -19.416000     19.589000     -4.395000
C         -20.113000     18.355000     -3.855000
C         -21.266000     17.900000     -4.551000
C         -19.608000     17.480000     -2.851000
N         -21.904000     16.717000     -4.307000
N         -18.526000     17.807000     -2.059000
C         -20.318000     16.347000     -2.529000
C         -21.479000     15.984000     -3.245000
S         -18.355000     16.496000     -1.105000
N         -19.706000     15.644000     -1.465000
C         -22.366000     14.988000     -2.729000
S         -22.607000     14.421000     -1.016000
C         -23.312000     14.362000     -3.492000
C         -23.864000     13.358000     -1.476000
S         -23.557000     14.571000     -5.204000
C         -24.136000     13.482000     -2.847000
C         -24.425000     12.315000     -0.602000
C         -24.762000     13.281000     -5.101000
C         -24.980000     12.841000     -3.821000
N         -25.061000     11.352000     -1.183000
S         -24.097000     12.160000      1.131000
C         -25.324000     10.378000     -0.282000
C         -24.676000     10.557000      0.927000
C         -17.821000     23.029000     -6.185000
H         -19.464000     22.912000     -3.924000
H         -20.222000     20.923000     -2.863000
H         -18.481000     18.501000     -5.941000
H         -21.575000     18.343000     -5.496000
H         -25.111000     12.875000     -6.041000
H         -25.624000     12.005000     -3.572000
H         -25.791000      9.483000     -0.673000
H         -24.639000      9.997000      1.852000
H         -16.938000     23.260000     -5.578000
C         -18.624000     24.309000     -6.346000
H         -17.282000     22.761000     -7.103000
H         -17.965000     25.164000     -6.544000
H         -19.137000     24.585000     -5.416000
C         -19.696000     24.279000     -7.469000
H         -20.521000     23.650000     -7.115000
C         -19.126000     23.681000     -8.777000
H         -20.050000     25.293000     -7.696000
H         -19.928000     23.576000     -9.517000
H         -18.821000     22.635000     -8.651000
C         -18.029000     24.485000     -9.422000
H         -17.260000     24.694000     -8.668000
C         -18.452000     25.818000    -10.027000
H         -17.580000     23.870000    -10.211000
H         -17.581000     26.269000    -10.518000
H         -18.812000     26.536000     -9.280000
H         -19.185000     25.716000    -10.837000
C         -23.938000     10.143000     -8.290000
C         -24.241000      8.801000     -8.661000
N         -23.958000     10.645000     -7.013000
C         -24.624000      7.938000     -7.600000
C         -24.299000      9.835000     -6.027000
C         -24.637000      8.392000     -6.227000
C         -24.915000      7.522000     -5.018000
C         -25.601000      8.003000     -3.884000
C         -24.479000      6.186000     -4.922000
N         -25.976000      7.235000     -2.875000
N         -23.737000      5.597000     -5.854000
C         -24.824000      5.419000     -3.823000
C         -25.613000      5.944000     -2.762000
S         -23.475000      4.085000     -5.362000
N         -24.249000      4.186000     -3.864000
C         -25.916000      5.210000     -1.511000
S         -25.356000      3.572000     -1.065000
C         -26.500000      5.804000     -0.408000
C         -26.004000      3.721000      0.619000
S         -27.376000      7.340000     -0.248000
C         -26.614000      4.916000      0.717000
C         -26.149000      2.703000      1.551000
C         -27.875000      6.778000      1.404000
C         -27.405000      5.511000      1.716000
N         -25.893000      1.507000      0.980000
S         -25.898000      2.968000      3.272000
C         -25.653000      0.678000      2.043000
C         -25.774000      1.245000      3.291000
C         -23.658000     11.111000     -9.364000
H         -24.237000      8.566000     -9.721000
H         -24.822000      6.914000     -7.905000
H         -24.269000     10.220000     -5.009000
H         -25.992000      9.018000     -3.825000
H         -28.339000      7.382000      2.173000
H         -27.612000      5.101000      2.698000
H         -25.559000     -0.392000      1.916000
H         -25.787000      0.825000      4.288000
H         -23.380000     12.044000     -8.859000
C         -24.848000     11.289000    -10.316000
H         -22.857000     10.769000    -10.031000
H         -25.808000     11.352000     -9.790000
H         -25.015000     10.409000    -10.949000
C         -24.590000     12.446000    -11.358000
H         -24.398000     13.296000    -10.691000
C         -25.777000     12.632000    -12.314000
H         -23.684000     12.248000    -11.945000
H         -26.743000     12.851000    -11.842000
H         -26.028000     11.765000    -12.937000
C         -25.436000     13.863000    -13.184000
H         -26.325000     14.130000    -13.769000
C         -24.355000     13.654000    -14.255000
H         -25.078000     14.680000    -12.546000
H         -23.349000     13.782000    -13.837000
H         -24.467000     14.458000    -14.993000
H         -24.417000     12.722000    -14.830000
$end

--------------------------------------------------------------

             Standard Nuclear Orientation (Angstroms)
    I     Atom           X                Y                Z
 ----------------------------------------------------------------
    1      C      10.8451748110     1.9414992836     0.8562751199
    2      C      10.3384330904     2.9350328044    -0.0936190698
    3      N      10.0531832123     1.1898348805     1.6264971221
    4      C       8.9659999890     3.1268531879    -0.0974036047
    5      C       8.7203461086     1.3425983776     1.5096828717
    6      C       8.1690785874     2.3031228077     0.6818290566
    7      C       6.6689777136     2.3307022205     0.4602399226
    8      C       6.1105596683     1.3058835787    -0.3514041116
    9      C       5.7347079532     3.1502733942     1.1560194177
   10      N       4.7721395305     1.0818227143    -0.5079201294
   11      N       6.1248612855     4.2157908470     1.9417483372
   12      C       4.3909730717     2.9971683362     0.9062026655
   13      C       3.9177868890     1.9763190575     0.0539658518
   14      S       4.7102062071     4.7999242230     2.5035465290
   15      N       3.6247762766     3.9420767154     1.6279641401
   16      C       2.5727023015     2.0035089451    -0.4308528384
   17      S       1.4301092982     3.4092096840    -0.6109241065
   18      C       1.9539728591     0.9151311056    -0.9800054179
   19      C       0.2221694752     2.4216592147    -1.3089523685
   20      S       2.6178197071    -0.6903043704    -1.1085911659
   21      C       0.6901942463     1.1080175181    -1.4648347175
   22      C      -1.1731298063     2.8432673219    -1.5134823638
   23      C       1.0421123411    -1.1982218864    -1.7297997409
   24      C       0.1612741452    -0.1604108760    -1.8928837050
   25      N      -2.0461853002     1.9033441280    -1.6675748495
   26      S      -1.7684616985     4.5007973722    -1.3316250833
   27      C      -3.2900607255     2.4332944377    -1.6279188849
   28      C      -3.3118838405     3.7569649698    -1.2266134226
   29      C      12.3281875380     1.8834282449     1.0095396171
   30      H      10.9370570559     3.6195975983    -0.6862584127
   31      H       8.5784458458     3.9223181511    -0.7277243790
   32      H       8.0247767659     0.7642300880     2.1167754603
   33      H       6.7088140590     0.4692369717    -0.7075910555
   34      H       0.8747170291    -2.2648313253    -1.7973283597
   35      H      -0.8739629925    -0.2887127395    -2.1886128049
   36      H      -4.1089227580     1.7265680983    -1.6726162347
   37      H      -4.0976363675     4.4847050623    -1.0730513044
   38      H      12.6277600802     2.7064868730     1.6685766318
   39      C      13.2452359140     1.8988035449    -0.2020361652
   40      H      12.5713767702     1.0667641959     1.7016290827
   41      H      14.2855673900     2.0833154753     0.0949078825
   42      H      13.0138504208     2.7345053675    -0.8745748015
   43      C      13.2294188719     0.6036281245    -1.0584726494
   44      H      12.2825400265     0.5897959098    -1.6105696718
   45      C      13.3188644068    -0.6604481243    -0.1710726645
   46      H      14.0824326817     0.5835706927    -1.7491289602
   47      H      13.2012357765    -1.5573206494    -0.7904369993
   48      H      12.4543112716    -0.7543944123     0.4973126820
   49      C      14.6063724823    -0.8143679973     0.5934413172
   50      H      14.8003821695     0.1161805726     1.1411616841
   51      C      15.8422539992    -1.1195007476    -0.2440154762
   52      H      14.4705209498    -1.6217519804     1.3228400182
   53      H      16.6919310527    -1.2717467959     0.4327363584
   54      H      16.1125763688    -0.3048491983    -0.9269515418
   55      H      15.7731838503    -2.0663583799    -0.7939999656
   56      C      -0.4137244310    -4.8499851594     0.5595026181
   57      C      -1.5797513965    -5.6213478673     0.8348109700
   58      N      -0.3947113362    -3.5213182695     0.2168427315
   59      C      -2.8178462389    -4.9375970549     0.7052540798
   60      C      -1.5473930482    -2.8847942940     0.1132131057
   61      C      -2.8703818126    -3.5300239061     0.3775471308
   62      C      -4.1281609012    -2.6863642741     0.3317738896
   63      C      -4.3027127538    -1.6420078443    -0.5992278818
   64      C      -5.1956761705    -2.8572734116     1.2347740095
   65      N      -5.4371144900    -0.9800747568    -0.7525487495
   66      N      -5.1641178624    -3.7285121876     2.2377974731
   67      C      -6.3486749877    -2.1040394149     1.0993219011
   68      C      -6.4947221267    -1.1388681440     0.0644394678
   69      S      -6.5748911210    -3.6120675911     3.0078698520
   70      N      -7.2339548638    -2.3460649665     2.1044577990
   71      C      -7.6543305660    -0.2249819545    -0.0608054933
   72      S      -9.0621935181    -0.1206629033     1.0358254582
   73      C      -7.6848419025     0.8424540914    -0.9383875956
   74      C      -9.6977600981     1.3601322048     0.2104395058
   75      S      -6.6708736782     1.2116312173    -2.3482984757
   76      C      -8.8764040809     1.6379891858    -0.8181025649
   77      C     -10.9513898480     1.9330730295     0.3720695199
   78      C      -7.8750020736     2.5054269515    -2.7607501764
   79      C      -8.9409191193     2.5631277303    -1.8752986125
   80      N     -11.7366384629     1.1339397412     1.1249065543
   81      S     -11.1970728177     3.6744310699     0.3232939774
   82      C     -12.7378207305     1.9637075975     1.5537764317
   83      C     -12.6854777450     3.2605383609     1.0964754554
   84      C       0.8871625934    -5.5403311354     0.5555804999
   85      H      -1.4390749804    -6.6786040663     1.0379377173
   86      H      -3.6893374720    -5.5395588640     0.9480503133
   87      H      -1.5303600559    -1.8196860962    -0.1119610584
   88      H      -3.5547986205    -1.4012055227    -1.3536983525
   89      H      -7.7473232226     3.2878460687    -3.4976297025
   90      H      -9.6939774141     3.3314221733    -2.0090889467
   91      H     -13.6110199801     1.5799984489     2.0638307032
   92      H     -13.3876741293     4.0823253910     1.1429976533
   93      H       1.6393404761    -4.7574010230     0.4005099615
   94      C       0.9599577730    -6.6451216691    -0.5065996819
   95      H       1.0699876282    -6.0841376364     1.4906224755
   96      H       0.5236562511    -6.3424856136    -1.4659210045
   97      H       0.3335316763    -7.5100955466    -0.2568227080
   98      C       2.4101523197    -7.2598753083    -0.6065533699
   99      H       3.0072446942    -6.3655324669    -0.8253788218
  100      C       2.4923302848    -8.3656427817    -1.6686390900
  101      H       2.7290767936    -7.6674469016     0.3613214031
  102      H       2.2096502664    -8.0735017003    -2.6877792156
  103      H       1.8461458634    -9.2359783395    -1.5019636262
  104      C       3.9792739199    -8.7811562848    -1.7385615829
  105      H       4.1108319977    -9.4522962518    -2.5965234800
  106      C       4.5052617869    -9.6082913741    -0.5559934844
  107      H       4.6119747164    -7.8868399695    -1.7894047752
  108      H       4.8166236098    -8.9634906509     0.2749275965
  109      H       5.4205403038   -10.1117127316    -0.8913085203
  110      H       3.8488357364   -10.4098641267    -0.1958838311
 ----------------------------------------------------------------

    9   -5663.4935652269      7.33E-06 Convergence criterion met
 Total energy in the final basis set = -5663.4935652269

                    Orbital Energies (a.u.)
 --------------------------------------------------------------

 Alpha MOs
 -- Occupied --
-88.988 -88.987 -88.936 -88.921 -88.921 -88.920 -88.917 -88.894
-14.386 -14.385 -14.380 -14.378 -14.351 -14.350 -14.346 -14.336
-14.334 -14.330 -10.266 -10.265 -10.263 -10.256 -10.252 -10.251
-10.251 -10.250 -10.243 -10.238 -10.236 -10.236 -10.235 -10.234
-10.233 -10.233 -10.231 -10.231 -10.230 -10.230 -10.229 -10.227
-10.227 -10.223 -10.223 -10.220 -10.218 -10.218 -10.213 -10.209
-10.207 -10.205 -10.204 -10.203 -10.203 -10.198 -10.198 -10.186
-10.183 -10.183 -10.183 -10.181 -10.180 -10.179 -10.177 -10.175
-10.171 -10.170 -10.169 -10.166  -8.043  -8.042  -7.998  -7.983
 -7.980  -7.978  -7.975  -7.955  -6.008  -6.007  -6.003  -6.001
 -6.001  -6.000  -5.962  -5.959  -5.955  -5.946  -5.944  -5.943
 -5.942  -5.941  -5.940  -5.940  -5.938  -5.937  -5.936  -5.934
 -5.931  -5.919  -5.915  -5.911  -1.036  -1.024  -0.978  -0.977
 -0.963  -0.949  -0.939  -0.936  -0.908  -0.907  -0.899  -0.886
 -0.838  -0.836  -0.829  -0.828  -0.821  -0.811  -0.810  -0.810
 -0.809  -0.804  -0.794  -0.793  -0.788  -0.782  -0.768  -0.760
 -0.747  -0.743  -0.739  -0.730  -0.720  -0.718  -0.711  -0.705
 -0.692  -0.687  -0.678  -0.664  -0.657  -0.657  -0.642  -0.638
 -0.636  -0.630  -0.625  -0.625  -0.614  -0.611  -0.601  -0.595
 -0.595  -0.586  -0.583  -0.580  -0.577  -0.571  -0.567  -0.549
 -0.545  -0.541  -0.540  -0.533  -0.528  -0.520  -0.515  -0.506
 -0.503  -0.502  -0.498  -0.494  -0.492  -0.490  -0.474  -0.472
 -0.471  -0.469  -0.468  -0.463  -0.462  -0.461  -0.459  -0.451
 -0.447  -0.442  -0.439  -0.436  -0.435  -0.432  -0.430  -0.428
 -0.426  -0.423  -0.419  -0.418  -0.416  -0.412  -0.409  -0.408
 -0.408  -0.406  -0.405  -0.403  -0.400  -0.397  -0.394  -0.392
 -0.391  -0.389  -0.389  -0.389  -0.387  -0.385  -0.380  -0.380
 -0.378  -0.375  -0.373  -0.367  -0.363  -0.362  -0.357  -0.355
 -0.354  -0.350  -0.346  -0.344  -0.343  -0.341  -0.341  -0.338
 -0.337  -0.334  -0.333  -0.332  -0.329  -0.328  -0.325  -0.317
 -0.315  -0.310  -0.309  -0.306  -0.303  -0.303  -0.301  -0.300
 -0.298  -0.296  -0.294  -0.293  -0.288  -0.285  -0.285  -0.283
 -0.274  -0.270  -0.266  -0.256  -0.256  -0.253  -0.245  -0.243
 -0.242  -0.241  -0.232  -0.228  -0.196  -0.187

          Ground-State Mulliken Net Atomic Charges

     Atom                 Charge (a.u.)
  ----------------------------------------
      1 C                     0.288043
      2 C                    -0.108621
      3 N                    -0.492161
      4 C                    -0.060917
      5 C                     0.089699
      6 C                     0.036002
      7 C                    -0.059669
      8 C                     0.068610
      9 C                     0.222592
     10 N                    -0.504044
     11 N                    -0.534550
     12 C                     0.186927
     13 C                     0.271560
     14 S                     0.616448
     15 N                    -0.544977
     16 C                    -0.188572
     17 S                     0.313343
     18 C                    -0.126005
     19 C                    -0.255026
     20 S                     0.281102
     21 C                     0.184296
     22 C                     0.082827
     23 C                    -0.293917
     24 C                    -0.079345
     25 N                    -0.418014
     26 S                     0.257221
     27 C                     0.114375
     28 C                    -0.313409
     29 C                    -0.245416
     30 H                     0.096644
     31 H                     0.101386
     32 H                     0.107517
     33 H                     0.118684
     34 H                     0.140636
     35 H                     0.113146
     36 H                     0.130465
     37 H                     0.132595
     38 H                     0.116000
     39 C                    -0.186706
     40 H                     0.121137
     41 H                     0.096676
     42 H                     0.087695
     43 C                    -0.174715
     44 H                     0.094314
     45 C                    -0.181661
     46 H                     0.092680
     47 H                     0.079501
     48 H                     0.107519
     49 C                    -0.169563
     50 H                     0.091468
     51 C                    -0.317062
     52 H                     0.092010
     53 H                     0.098924
     54 H                     0.101200
     55 H                     0.101359
     56 C                     0.276780
     57 C                    -0.103167
     58 N                    -0.489781
     59 C                    -0.073505
     60 C                     0.088894
     61 C                     0.012829
     62 C                     0.024755
     63 C                     0.061313
     64 C                     0.244363
     65 N                    -0.540827
     66 N                    -0.550076
     67 C                     0.207192
     68 C                     0.331697
     69 S                     0.597320
     70 N                    -0.581266
     71 C                    -0.217418
     72 S                     0.351497
     73 C                    -0.127602
     74 C                    -0.230354
     75 S                     0.282527
     76 C                     0.167862
     77 C                     0.036996
     78 C                    -0.307843
     79 C                    -0.083070
     80 N                    -0.415832
     81 S                     0.292201
     82 C                     0.122324
     83 C                    -0.302409
     84 C                    -0.237630
     85 H                     0.100560
     86 H                     0.108430
     87 H                     0.118566
     88 H                     0.123137
     89 H                     0.125109
     90 H                     0.107128
     91 H                     0.113815
     92 H                     0.134568
     93 H                     0.117955
     94 C                    -0.193668
     95 H                     0.108624
     96 H                     0.100312
     97 H                     0.088571
     98 C                    -0.173852
     99 H                     0.100696
    100 C                    -0.173663
    101 H                     0.101597
    102 H                     0.093316
    103 H                     0.090326
    104 C                    -0.175810
    105 H                     0.085472
    106 C                    -0.320571
    107 H                     0.099038
    108 H                     0.102357
    109 H                     0.100345
    110 H                     0.099621
  ----------------------------------------
  Sum of atomic charges =     0.000000

                    Cartesian Multipole Moments
 -----------------------------------------------------------------
    Charge (ESU x 10^10)
                 0.0000
    Dipole Moment (Debye)
         X      -3.3496      Y       1.6195      Z      -0.3476
       Tot       3.7367
    Quadrupole Moments (Debye-Ang)
        XX    -396.5850     XY     -19.8294     YY    -392.8673
        XZ     -11.9705     YZ      -7.3520     ZZ    -448.1569

 Total job time:  82.84s(wall), 979.81s(cpu)
        *  Thank you very much for using Q-Chem.  Have a nice day.  *
