 Q-Chem 4.4, Q-Chem, Inc., Pleasanton, CA (2016)
 Q-Chem 4.4.2 for Intel X86 Linux

User input:
--------------------------------------------------------------
$comment
SP
$end

$rem
MEM_STATIC 5000
MEM_TOTAL 20000
JOBTYPE SP
EXCHANGE B3LYP
BASIS 6-31g(d,p)
$end

$molecule
0 1
C         -28.122000     -0.960000     -4.819000
C         -27.409000     -2.167000     -4.640000
N         -27.455000      0.247000     -4.897000
C         -26.003000     -2.221000     -4.853000
C         -26.106000      0.184000     -5.071000
C         -25.314000     -0.998000     -5.134000
C         -23.806000     -0.874000     -5.392000
C         -23.195000      0.325000     -5.184000
C         -22.930000     -1.922000     -5.845000
N         -21.936000      0.573000     -5.604000
N         -23.406000     -3.157000     -6.103000
C         -21.562000     -1.682000     -6.083000
C         -21.058000     -0.351000     -5.994000
S         -22.043000     -3.893000     -6.534000
N         -20.886000     -2.755000     -6.522000
C         -19.658000      0.025000     -6.223000
S         -18.273000     -1.092000     -6.412000
C         -19.244000      1.379000     -6.317000
C         -17.168000      0.283000     -6.370000
S         -20.131000      2.862000     -6.091000
C         -17.871000      1.487000     -6.421000
C         -15.727000      0.193000     -6.386000
C         -18.569000      3.657000     -6.336000
C         -17.503000      2.840000     -6.443000
N         -15.045000      1.117000     -6.991000
S         -14.816000     -1.067000     -5.698000
C         -13.679000      0.940000     -6.865000
C         -13.335000     -0.295000     -6.234000
C         -29.629000     -0.883000     -4.833000
H         -27.917000     -3.084000     -4.356000
H         -25.492000     -3.166000     -4.697000
H         -25.752000      1.213000     -5.100000
H         -23.828000      1.168000     -4.913000
H         -18.536000      4.730000     -6.466000
H         -16.472000      3.145000     -6.582000
H         -12.967000      1.696000     -7.168000
H         -12.368000     -0.642000     -5.895000
H         -29.908000      0.163000     -5.011000
C         -30.268000     -1.394000     -3.510000
H         -29.938000     -1.552000     -5.646000
H         -29.651000     -1.207000     -2.623000
H         -30.474000     -2.468000     -3.593000
C         -31.637000     -0.725000     -3.257000
H         -31.591000      0.360000     -3.103000
C         -32.231000     -1.452000     -1.976000
H         -32.378000     -0.768000     -4.065000
H         -31.359000     -1.734000     -1.373000
H         -32.781000     -2.385000     -2.151000
C         -33.025000     -0.543000     -1.026000
H         -32.386000      0.284000     -0.692000
C         -33.610000     -1.259000      0.144000
H         -33.807000     -0.074000     -1.636000
H         -34.275000     -0.577000      0.688000
H         -32.888000     -1.573000      0.907000
H         -34.335000     -2.047000     -0.092000
C         -23.938000     10.143000     -8.290000
C         -24.241000      8.801000     -8.661000
N         -23.958000     10.645000     -7.013000
C         -24.624000      7.938000     -7.600000
C         -24.299000      9.835000     -6.027000
C         -24.637000      8.392000     -6.227000
C         -24.915000      7.522000     -5.018000
C         -25.601000      8.003000     -3.884000
C         -24.479000      6.186000     -4.922000
N         -25.976000      7.235000     -2.875000
N         -23.737000      5.597000     -5.854000
C         -24.824000      5.419000     -3.823000
C         -25.613000      5.944000     -2.762000
S         -23.475000      4.085000     -5.362000
N         -24.249000      4.186000     -3.864000
C         -25.916000      5.210000     -1.511000
S         -25.356000      3.572000     -1.065000
C         -26.500000      5.804000     -0.408000
C         -26.004000      3.721000      0.619000
S         -27.376000      7.340000     -0.248000
C         -26.614000      4.916000      0.717000
C         -26.149000      2.703000      1.551000
C         -27.875000      6.778000      1.404000
C         -27.405000      5.511000      1.716000
N         -25.893000      1.507000      0.980000
S         -25.898000      2.968000      3.272000
C         -25.653000      0.678000      2.043000
C         -25.774000      1.245000      3.291000
C         -23.658000     11.111000     -9.364000
H         -24.237000      8.566000     -9.721000
H         -24.822000      6.914000     -7.905000
H         -24.269000     10.220000     -5.009000
H         -25.992000      9.018000     -3.825000
H         -28.339000      7.382000      2.173000
H         -27.612000      5.101000      2.698000
H         -25.559000     -0.392000      1.916000
H         -25.787000      0.825000      4.288000
H         -23.380000     12.044000     -8.859000
C         -24.848000     11.289000    -10.316000
H         -22.857000     10.769000    -10.031000
H         -25.808000     11.352000     -9.790000
H         -25.015000     10.409000    -10.949000
C         -24.590000     12.446000    -11.358000
H         -24.398000     13.296000    -10.691000
C         -25.777000     12.632000    -12.314000
H         -23.684000     12.248000    -11.945000
H         -26.743000     12.851000    -11.842000
H         -26.028000     11.765000    -12.937000
C         -25.436000     13.863000    -13.184000
H         -26.325000     14.130000    -13.769000
C         -24.355000     13.654000    -14.255000
H         -25.078000     14.680000    -12.546000
H         -23.349000     13.782000    -13.837000
H         -24.467000     14.458000    -14.993000
H         -24.417000     12.722000    -14.830000
$end

--------------------------------------------------------------

             Standard Nuclear Orientation (Angstroms)
    I     Atom           X                Y                Z
 ----------------------------------------------------------------
    1      C       4.3619800433    -0.5756283382    -3.9510557805
    2      C       4.9904233844     0.6901066290    -3.9357927597
    3      N       3.2356291140    -0.8118939068    -3.1872926201
    4      C       4.3224096600     1.8287552779    -3.4044191452
    5      C       2.6210932903     0.2822267198    -2.6588119905
    6      C       3.0499502865     1.6351129928    -2.7777128279
    7      C       2.1934831235     2.7476104044    -2.1573762194
    8      C       1.2734226774     2.4232048190    -1.2074100139
    9      C       2.2556649956     4.1493549232    -2.4769614488
   10      N       0.3343451031     3.2977152984    -0.7874698626
   11      N       3.1137702628     4.6076319298    -3.4107722089
   12      C       1.3910271020     5.0793714997    -1.8661108285
   13      C       0.3520907098     4.6121222896    -1.0083303505
   14      S       2.7832196144     6.1795927578    -3.3407620387
   15      N       1.5599199856     6.3425106592    -2.2868015197
   16      C      -0.6108389289     5.4796143480    -0.3198239675
   17      S      -0.5449209185     7.2641466067    -0.2069770202
   18      C      -1.7425847334     4.9620573248     0.3619635080
   19      C      -1.8867933552     7.2337824342     0.9383920821
   20      S      -2.2324506132     3.3195971192     0.6773836921
   21      C      -2.4375484103     5.9548476603     1.0245356457
   22      C      -2.4222348510     8.3866627342     1.6232325149
   23      C      -3.5512197765     4.0503294508     1.6040832948
   24      C      -3.5050735934     5.3902539514     1.7373756890
   25      N      -3.6938762539     8.4324413877     1.8796646836
   26      S      -1.5217168649     9.7457350007     2.1057829590
   27      C      -4.0522225298     9.5577654475     2.5996610078
   28      C      -2.9734962037    10.4809406325     2.7603442094
   29      C       4.9142416385    -1.7651407799    -4.6975417358
   30      H       5.9866814473     0.8288497744    -4.3454623971
   31      H       4.8435114809     2.7810865713    -3.4044183403
   32      H       1.7714384814    -0.0887353536    -2.0883105920
   33      H       1.1361043015     1.3665711345    -0.9850411301
   34      H      -4.3627524281     3.4260602057     1.9519635400
   35      H      -4.2145169224     6.0062410342     2.2782611452
   36      H      -5.0356212212     9.6780959459     3.0340992485
   37      H      -2.9233664027    11.3722405230     3.3714829074
   38      H       4.2176459853    -2.6007846954    -4.5557858101
   39      C       6.3397160427    -2.1642284663    -4.2195012127
   40      H       4.9804186990    -1.4364800960    -5.7423449476
   41      H       6.5166109692    -1.9702173317    -3.1548440545
   42      H       7.0895199285    -1.6329088350    -4.8180783442
   43      C       6.6065852746    -3.6672367819    -4.4550385053
   44      H       5.9586886097    -4.3394559309    -3.8793577540
   45      C       8.1319658596    -3.8893883690    -4.0726921398
   46      H       6.4330622129    -4.0595792434    -5.4648657875
   47      H       8.3417404431    -3.1576729968    -3.2826894573
   48      H       8.8700174381    -3.6912056426    -4.8598499857
   49      C       8.4390020060    -5.2298217399    -3.3884522820
   50      H       7.8346857903    -5.3221976321    -2.4773679797
   51      C       9.8842174095    -5.4323769080    -3.0816871578
   52      H       8.0633107130    -6.0091650685    -4.0630373607
   53      H      10.0375924803    -6.4607641058    -2.7321433706
   54      H      10.2760230745    -4.8227899961    -2.2589228431
   55      H      10.5584753732    -5.4470643985    -3.9462248816
   56      C      -6.9214944912    -3.7425420606    -0.0160632895
   57      C      -6.1325861558    -3.0659075543    -0.9908470518
   58      N      -6.4532691273    -4.2984326739     1.1479313990
   59      C      -4.7391276335    -3.0037401009    -0.7232885455
   60      C      -5.1590283447    -4.2243160631     1.4009620784
   61      C      -4.1818563306    -3.5412432550     0.4981667563
   62      C      -2.7341837338    -3.4212106280     0.9290974016
   63      C      -2.0703529382    -4.4440805189     1.6368960036
   64      C      -1.9586627088    -2.2701754966     0.6884872065
   65      N      -0.7760351896    -4.4261587651     1.9069892772
   66      N      -2.4472201343    -1.1729064799     0.1197857496
   67      C      -0.6211330213    -2.2460509516     1.0428138091
   68      C       0.0096692630    -3.3617348774     1.6602317032
   69      S      -1.2366395034    -0.1137810318     0.0218070709
   70      N      -0.0562951719    -1.0297975702     0.8098311570
   71      C       1.4027748079    -3.3533315438     2.1649616555
   72      S       2.5477995628    -1.9809398665     2.1330336906
   73      C       1.9303165795    -4.3641033345     2.9463329284
   74      C       3.7607398607    -2.8643459031     3.1461134546
   75      S       1.3594386167    -6.0197358861     3.2383110198
   76      C       3.2710353945    -4.0934468631     3.3894842950
   77      C       5.0806972740    -2.5015786527     3.3743356035
   78      C       2.9670776290    -6.3388803332     4.0177933019
   79      C       3.8172391407    -5.2435300906     3.9867087398
   80      N       5.4202448729    -1.4567513262     2.5900931118
   81      S       5.8738077928    -2.7819228787     4.9194730796
   82      C       6.5390381796    -0.9434139074     3.1897565435
   83      C       6.9868002309    -1.6115516904     4.3063294468
   84      C      -8.3513686878    -3.9463720956    -0.3038359403
   85      H      -6.6375591512    -2.7278927543    -1.8906188389
   86      H      -4.1643036034    -2.4583618766    -1.4668912129
   87      H      -4.7942909521    -4.6230775896     2.3461630514
   88      H      -2.5530561104    -5.3872761357     1.8898123456
   89      H       3.2310773557    -7.2056913060     4.6097526600
   90      H       4.7871943769    -5.3176438212     4.4652136978
   91      H       7.1368353267    -0.1791218928     2.7118849213
   92      H       7.8939424793    -1.5348188849     4.8909515621
   93      H      -8.7732807878    -4.4094342296     0.5963649483
   94      C      -8.5798364446    -4.7924600357    -1.5632110559
   95      H      -8.8638817934    -3.0060263249    -0.5416050473
   96      H      -7.9040855413    -5.6536876166    -1.6256031281
   97      H      -8.3182040997    -4.2556944660    -2.4832160773
   98      C     -10.1071491358    -5.1370810911    -1.7620307511
   99      H     -10.3377084519    -5.6420964003    -0.8154289661
  100      C     -10.3446749121    -5.9851965304    -3.0197201831
  101      H     -10.7087331457    -4.2214432433    -1.8277042667
  102      H      -9.8043899208    -6.9391633523    -3.0637705030
  103      H     -10.0513630511    -5.5220998929    -3.9696299980
  104      C     -11.8480155813    -6.3436541864    -3.0156041973
  105      H     -12.0296417997    -7.0820606791    -3.8065547446
  106      C     -12.8149123966    -5.2025891176    -3.3654099396
  107      H     -12.1420499831    -6.6968694400    -2.0198734329
  108      H     -13.0488743860    -4.5933144743    -2.4838260261
  109      H     -13.7665332098    -5.6606738466    -3.6623614659
  110      H     -12.5250630115    -4.5638222929    -4.2086520623
 ----------------------------------------------------------------

    9   -5663.5011079927      9.45E-06 Convergence criterion met
 Total energy in the final basis set = -5663.5011079927

                    Orbital Energies (a.u.)
 --------------------------------------------------------------

 Alpha MOs
 -- Occupied --
-88.983 -88.982 -88.931 -88.930 -88.927 -88.914 -88.911 -88.910
-14.392 -14.390 -14.380 -14.374 -14.346 -14.344 -14.342 -14.340
-14.329 -14.328 -10.265 -10.260 -10.260 -10.260 -10.257 -10.254
-10.247 -10.246 -10.243 -10.240 -10.239 -10.238 -10.236 -10.234
-10.232 -10.230 -10.228 -10.228 -10.227 -10.227 -10.227 -10.226
-10.224 -10.224 -10.224 -10.223 -10.222 -10.221 -10.220 -10.216
-10.213 -10.212 -10.203 -10.200 -10.199 -10.197 -10.197 -10.188
-10.185 -10.183 -10.181 -10.180 -10.179 -10.178 -10.178 -10.176
-10.173 -10.172 -10.169 -10.168  -8.040  -8.037  -7.993  -7.989
 -7.989  -7.972  -7.970  -7.968  -6.005  -6.002  -5.999  -5.998
 -5.997  -5.995  -5.957  -5.954  -5.953  -5.952  -5.950  -5.949
 -5.949  -5.946  -5.945  -5.936  -5.935  -5.933  -5.932  -5.931
 -5.929  -5.928  -5.927  -5.924  -1.052  -1.030  -0.974  -0.972
 -0.958  -0.956  -0.932  -0.925  -0.921  -0.911  -0.901  -0.893
 -0.846  -0.830  -0.825  -0.824  -0.816  -0.808  -0.807  -0.804
 -0.803  -0.800  -0.790  -0.788  -0.785  -0.782  -0.768  -0.764
 -0.748  -0.742  -0.742  -0.735  -0.726  -0.712  -0.708  -0.707
 -0.690  -0.687  -0.673  -0.667  -0.654  -0.650  -0.646  -0.638
 -0.635  -0.631  -0.621  -0.619  -0.606  -0.606  -0.598  -0.597
 -0.595  -0.591  -0.581  -0.579  -0.577  -0.572  -0.571  -0.566
 -0.554  -0.544  -0.538  -0.535  -0.524  -0.523  -0.515  -0.509
 -0.500  -0.498  -0.496  -0.493  -0.486  -0.484  -0.477  -0.474
 -0.469  -0.468  -0.467  -0.465  -0.459  -0.458  -0.449  -0.448
 -0.446  -0.443  -0.442  -0.437  -0.436  -0.433  -0.430  -0.429
 -0.426  -0.425  -0.422  -0.418  -0.415  -0.413  -0.413  -0.410
 -0.406  -0.403  -0.401  -0.401  -0.399  -0.396  -0.395  -0.393
 -0.391  -0.389  -0.386  -0.385  -0.384  -0.383  -0.380  -0.379
 -0.374  -0.374  -0.371  -0.370  -0.365  -0.359  -0.358  -0.356
 -0.354  -0.352  -0.351  -0.351  -0.346  -0.345  -0.340  -0.339
 -0.337  -0.335  -0.332  -0.332  -0.331  -0.329  -0.323  -0.322
 -0.321  -0.316  -0.310  -0.304  -0.304  -0.301  -0.298  -0.296
 -0.294  -0.293  -0.292  -0.292  -0.288  -0.281  -0.279  -0.278
 -0.266  -0.264  -0.261  -0.259  -0.254  -0.253  -0.251  -0.250
 -0.247  -0.236  -0.230  -0.223  -0.193  -0.190

          Ground-State Mulliken Net Atomic Charges

     Atom                 Charge (a.u.)
  ----------------------------------------
      1 C                     0.257788
      2 C                    -0.118646
      3 N                    -0.485419
      4 C                    -0.073083
      5 C                     0.059691
      6 C                     0.050980
      7 C                     0.064828
      8 C                     0.054077
      9 C                     0.187809
     10 N                    -0.559382
     11 N                    -0.522234
     12 C                     0.176142
     13 C                     0.340590
     14 S                     0.588226
     15 N                    -0.543600
     16 C                    -0.217041
     17 S                     0.327028
     18 C                    -0.130405
     19 C                    -0.224512
     20 S                     0.305061
     21 C                     0.172486
     22 C                     0.053729
     23 C                    -0.329125
     24 C                    -0.038256
     25 N                    -0.421087
     26 S                     0.270562
     27 C                     0.107977
     28 C                    -0.313676
     29 C                    -0.237270
     30 H                     0.089565
     31 H                     0.118973
     32 H                     0.107351
     33 H                     0.105232
     34 H                     0.124220
     35 H                     0.120306
     36 H                     0.119971
     37 H                     0.138217
     38 H                     0.124505
     39 C                    -0.182730
     40 H                     0.112340
     41 H                     0.116552
     42 H                     0.100407
     43 C                    -0.187491
     44 H                     0.101877
     45 C                    -0.177648
     46 H                     0.094022
     47 H                     0.090387
     48 H                     0.089580
     49 C                    -0.175156
     50 H                     0.096253
     51 C                    -0.321273
     52 H                     0.089086
     53 H                     0.097005
     54 H                     0.103788
     55 H                     0.100991
     56 C                     0.274037
     57 C                    -0.103015
     58 N                    -0.482436
     59 C                    -0.073111
     60 C                     0.090569
     61 C                     0.012506
     62 C                     0.024366
     63 C                     0.057754
     64 C                     0.236691
     65 N                    -0.530435
     66 N                    -0.553726
     67 C                     0.205631
     68 C                     0.330423
     69 S                     0.624464
     70 N                    -0.592947
     71 C                    -0.218638
     72 S                     0.350604
     73 C                    -0.126891
     74 C                    -0.228938
     75 S                     0.283577
     76 C                     0.169304
     77 C                     0.036889
     78 C                    -0.308348
     79 C                    -0.082822
     80 N                    -0.415072
     81 S                     0.291265
     82 C                     0.121660
     83 C                    -0.303466
     84 C                    -0.234910
     85 H                     0.099621
     86 H                     0.109887
     87 H                     0.103807
     88 H                     0.114979
     89 H                     0.123272
     90 H                     0.104667
     91 H                     0.111286
     92 H                     0.132430
     93 H                     0.116290
     94 C                    -0.192567
     95 H                     0.106019
     96 H                     0.102345
     97 H                     0.087924
     98 C                    -0.174325
     99 H                     0.100289
    100 C                    -0.173708
    101 H                     0.100534
    102 H                     0.093420
    103 H                     0.090515
    104 C                    -0.175293
    105 H                     0.085048
    106 C                    -0.320283
    107 H                     0.097948
    108 H                     0.101695
    109 H                     0.099637
    110 H                     0.100009
  ----------------------------------------
  Sum of atomic charges =     0.000000

                    Cartesian Multipole Moments
 -----------------------------------------------------------------
    Charge (ESU x 10^10)
                 0.0000
    Dipole Moment (Debye)
         X       2.7527      Y       2.4226      Z       0.6427
       Tot       3.7228
    Quadrupole Moments (Debye-Ang)
        XX    -400.4556     XY     -10.0452     YY    -414.2769
        XZ      13.1478     YZ      11.9918     ZZ    -422.1892

 Total job time:  80.07s(wall), 927.61s(cpu)
        *  Thank you very much for using Q-Chem.  Have a nice day.  *
