 Q-Chem 4.4, Q-Chem, Inc., Pleasanton, CA (2016)
 Q-Chem 4.4.2 for Intel X86 Linux

User input:
--------------------------------------------------------------
$comment
SP
$end

$rem
MEM_STATIC 5000
MEM_TOTAL 20000
JOBTYPE SP
EXCHANGE B3LYP
BASIS 6-31g(d,p)
$end

$molecule
0 1
C         -20.797000     10.836000     14.396000
C         -21.254000     11.535000     13.218000
N         -21.193000      9.587000     14.653000
C         -22.239000     10.976000     12.474000
C         -22.116000      8.969000     13.876000
C         -22.783000      9.684000     12.840000
C         -23.723000      8.932000     11.938000
C         -23.747000      9.279000     10.559000
C         -24.421000      7.767000     12.273000
N         -24.518000      8.591000      9.714000
N         -24.460000      7.225000     13.476000
C         -25.132000      7.027000     11.267000
C         -25.125000      7.455000      9.952000
S         -25.567000      6.014000     13.494000
N         -25.789000      5.938000     11.843000
C         -25.961000      6.771000      8.917000
S         -26.841000      5.218000      9.109000
C         -26.146000      7.258000      7.648000
C         -27.513000      5.348000      7.425000
S         -25.484000      8.671000      6.876000
C         -26.950000      6.464000      6.804000
C         -28.503000      4.469000      6.818000
C         -26.368000      8.238000      5.410000
C         -27.009000      6.989000      5.522000
N         -28.360000      4.296000      5.560000
S         -29.302000      3.243000      7.608000
C         -28.890000      3.080000      5.084000
C         -29.310000      2.302000      6.129000
C         -19.701000     11.411000     15.256000
H         -20.854000     12.471000     12.840000
H         -22.471000     11.475000     11.538000
H         -22.352000      7.955000     14.196000
H         -23.160000     10.140000     10.246000
H         -26.189000      8.823000      4.518000
H         -27.467000      6.459000      4.695000
H         -28.895000      2.833000      4.030000
H         -29.602000      1.262000      6.065000
H         -19.099000     10.519000     15.468000
C         -20.173000     12.164000     16.527000
H         -19.145000     12.085000     14.592000
H         -20.483000     11.377000     17.225000
H         -21.066000     12.735000     16.243000
C         -18.919000     12.930000     17.128000
H         -18.146000     12.230000     17.470000
C         -19.425000     13.745000     18.343000
H         -18.441000     13.645000     16.447000
H         -19.700000     12.977000     19.077000
H         -20.272000     14.354000     18.003000
C         -18.201000     14.646000     18.740000
H         -17.267000     14.074000     18.683000
C         -18.390000     15.487000     20.055000
H         -18.071000     15.324000     17.887000
H         -19.105000     16.263000     19.755000
H         -17.407000     15.886000     20.336000
H         -18.856000     14.928000     20.875000
C         -23.938000     10.143000     -8.290000
C         -24.241000      8.801000     -8.661000
N         -23.958000     10.645000     -7.013000
C         -24.624000      7.938000     -7.600000
C         -24.299000      9.835000     -6.027000
C         -24.637000      8.392000     -6.227000
C         -24.915000      7.522000     -5.018000
C         -25.601000      8.003000     -3.884000
C         -24.479000      6.186000     -4.922000
N         -25.976000      7.235000     -2.875000
N         -23.737000      5.597000     -5.854000
C         -24.824000      5.419000     -3.823000
C         -25.613000      5.944000     -2.762000
S         -23.475000      4.085000     -5.362000
N         -24.249000      4.186000     -3.864000
C         -25.916000      5.210000     -1.511000
S         -25.356000      3.572000     -1.065000
C         -26.500000      5.804000     -0.408000
C         -26.004000      3.721000      0.619000
S         -27.376000      7.340000     -0.248000
C         -26.614000      4.916000      0.717000
C         -26.149000      2.703000      1.551000
C         -27.875000      6.778000      1.404000
C         -27.405000      5.511000      1.716000
N         -25.893000      1.507000      0.980000
S         -25.898000      2.968000      3.272000
C         -25.653000      0.678000      2.043000
C         -25.774000      1.245000      3.291000
C         -23.658000     11.111000     -9.364000
H         -24.237000      8.566000     -9.721000
H         -24.822000      6.914000     -7.905000
H         -24.269000     10.220000     -5.009000
H         -25.992000      9.018000     -3.825000
H         -28.339000      7.382000      2.173000
H         -27.612000      5.101000      2.698000
H         -25.559000     -0.392000      1.916000
H         -25.787000      0.825000      4.288000
H         -23.380000     12.044000     -8.859000
C         -24.848000     11.289000    -10.316000
H         -22.857000     10.769000    -10.031000
H         -25.808000     11.352000     -9.790000
H         -25.015000     10.409000    -10.949000
C         -24.590000     12.446000    -11.358000
H         -24.398000     13.296000    -10.691000
C         -25.777000     12.632000    -12.314000
H         -23.684000     12.248000    -11.945000
H         -26.743000     12.851000    -11.842000
H         -26.028000     11.765000    -12.937000
C         -25.436000     13.863000    -13.184000
H         -26.325000     14.130000    -13.769000
C         -24.355000     13.654000    -14.255000
H         -25.078000     14.680000    -12.546000
H         -23.349000     13.782000    -13.837000
H         -24.467000     14.458000    -14.993000
H         -24.417000     12.722000    -14.830000
$end

--------------------------------------------------------------

             Standard Nuclear Orientation (Angstroms)
    I     Atom           X                Y                Z
 ----------------------------------------------------------------
    1      C      11.3474742124     3.7859325197    -1.0812118531
    2      C      10.1648572189     4.2879598403    -0.4220308339
    3      N      11.4913046162     2.4841092898    -1.3408945310
    4      C       9.2864502449     3.3977701045     0.0997022610
    5      C      10.5839317800     1.5764976063    -0.9044342603
    6      C       9.5195747205     1.9752038586    -0.0456051887
    7      C       8.4790908018     0.9559367228     0.3301550019
    8      C       7.1266350303     1.3853058282     0.4257141858
    9      C       8.6710209925    -0.4287783057     0.3789514323
   10      N       6.1650491119     0.4983290942     0.6911097302
   11      N       9.8313461457    -1.0399462513     0.2285743025
   12      C       7.5536088897    -1.3150484514     0.5552251443
   13      C       6.2724644620    -0.8068721048     0.6687317787
   14      S       9.6604934004    -2.6322502589     0.5858854928
   15      N       7.9933345656    -2.6384324561     0.6233581479
   16      C       5.1152865587    -1.7028148516     0.9788976932
   17      S       5.1241815863    -3.4980815284     0.9822796632
   18      C       3.8614600564    -1.2421245951     1.2910492425
   19      C       3.3849499262    -3.5425491038     1.5090014753
   20      S       3.2451545663     0.3843431198     1.3656636865
   21      C       2.8914984261    -2.2371664965     1.5324080014
   22      C       2.6247926575    -4.7263455431     1.8857997199
   23      C       1.6683727873    -0.2737288024     1.8115353795
   24      C       1.6409067343    -1.6806069780     1.7535231811
   25      N       1.3832498292    -4.6780778042     1.5871634349
   26      S       3.2536400918    -6.2596650905     2.0238543110
   27      C       0.7865138081    -5.9421630752     1.4079246310
   28      C       1.7347887242    -6.9280151087     1.4587129337
   29      C      12.3542631385     4.7324525325    -1.6828071685
   30      H       9.8846513025     5.3329317963    -0.3298448507
   31      H       8.3584345299     3.8119354799     0.4820304897
   32      H      10.8207619056     0.5500808229    -1.1813314948
   33      H       6.9278376429     2.4501476057     0.3234860708
   34      H       0.8346141206     0.4114721024     1.8841728744
   35      H       0.7406669262    -2.2794606461     1.8279246060
   36      H      -0.2731284731    -6.0511725395     1.2149863701
   37      H       1.5829263409    -7.9652153402     1.1901733719
   38      H      12.5842348294     4.2325918174    -2.6316297477
   39      C      13.6029418695     5.0243723673    -0.8105582150
   40      H      11.7936961287     5.6559089684    -1.8759414188
   41      H      14.2187247086     4.1198840253    -0.8839430514
   42      H      13.2517761793     5.1111734490     0.2254409309
   43      C      14.3806382120     6.2400166776    -1.4722759113
   44      H      14.7690208545     5.9768664586    -2.4644472096
   45      C      15.5732641985     6.5747210364    -0.5437812972
   46      H      13.7966691102     7.1625717615    -1.5787757017
   47      H      16.2297028475     5.7001417750    -0.6354568968
   48      H      15.1737131436     6.7226447793     0.4673406148
   49      C      16.1524069719     7.9134237221    -1.1269234473
   50      H      16.1697411764     7.8805568794    -2.2230111700
   51      C      17.4811261168     8.4155064375    -0.4526494814
   52      H      15.3568429066     8.6512461429    -0.9629451154
   53      H      17.1449784650     8.7685801649     0.5300736226
   54      H      17.8913193656     9.2132962542    -1.0848867051
   55      H      18.2127165031     7.6197922957    -0.2692059990
   56      C     -11.5518852680     3.9610090187    -0.3134816882
   57      C     -12.0257760714     2.6881028218    -0.7442383718
   58      N     -10.2601106115     4.2559622779     0.0435250509
   59      C     -11.0620351281     1.6450856678    -0.7665455614
   60      C      -9.3632527992     3.2870412427     0.0059073428
   61      C      -9.6767885589     1.8921002505    -0.4326447702
   62      C      -8.5548156670     0.8792941833    -0.5387847737
   63      C      -7.4805888259     0.8448851048     0.3737752019
   64      C      -8.4822954267    -0.0745539857    -1.5727685671
   65      N      -6.5624647624    -0.1066264335     0.3880579368
   66      N      -9.3555981876    -0.1268939677    -2.5731244109
   67      C      -7.4714558916    -1.0196970230    -1.5775720451
   68      C      -6.4788355637    -1.0589299644    -0.5592240393
   69      S      -8.9190309700    -1.3586583256    -3.5160017259
   70      N      -7.5138082263    -1.8023757384    -2.6903232788
   71      C      -5.3107033616    -1.9704328403    -0.5732120948
   72      S      -4.8931793713    -3.1609052018    -1.8397069720
   73      C      -4.2497729285    -1.8539079394     0.3050529925
   74      C      -3.2867235625    -3.5203685543    -1.0860181551
   75      S      -4.1068005145    -0.9681002155     1.8371024581
   76      C      -3.1937626433    -2.7935342676     0.0421658667
   77      C      -2.4326516061    -4.5681036833    -1.4003192728
   78      C      -2.5534902029    -1.8673327933     2.1064662400
   79      C      -2.2591394722    -2.7667899784     1.0926282749
   80      N      -3.0346264847    -5.4207487702    -2.2562489436
   81      S      -0.6826693477    -4.3911484550    -1.3640433527
   82      C      -1.9973644613    -6.1298060668    -2.8004320422
   83      C      -0.7421880564    -5.8249906600    -2.3258229816
   84      C     -12.5344302918     5.0459298864    -0.1508410196
   85      H     -13.0897224002     2.5945017143    -0.9394255689
   86      H     -11.4416603492     0.6922786154    -1.1255001720
   87      H      -8.3291464329     3.5314896022     0.2432215285
   88      H      -7.4114567374     1.5268812886     1.2203500418
   89      H      -1.8100159779    -1.6494190317     2.8622655978
   90      H      -1.3298399452    -3.3232622240     1.1375062101
   91      H      -2.1701514427    -6.9977806464    -3.4222276583
   92      H       0.2231695911    -6.2967679744    -2.4526645285
   93      H     -11.9522696793     5.9386564518     0.1078601606
   94      C     -13.6027125396     4.7150977753     0.8995927733
   95      H     -13.1249534755     5.2094085809    -1.0607921645
   96      H     -13.1848304025     4.2465346383     1.7985188582
   97      H     -14.2966255182     3.9356160240     0.5621450329
   98      C     -14.5458477204     5.9497195631     1.1774093891
   99      H     -13.8170059441     6.7119767390     1.4807353901
  100      C     -15.6173350453     5.6276923815     2.2289389450
  101      H     -15.0375292831     6.2811427081     0.2538202273
  102      H     -15.2453551042     5.2968326848     3.2067240873
  103      H     -16.3100291939     4.8173683111     1.9713176777
  104      C     -16.3765488738     6.9494859771     2.4838861032
  105      H     -17.0422178481     6.8055737389     3.3441239100
  106      C     -17.3294976012     7.4062920375     1.3692112868
  107      H     -15.6596738212     7.7673028944     2.6251753408
  108      H     -16.7952979141     7.9666164530     0.5921583648
  109      H     -18.0312847922     8.1231812434     1.8132480025
  110      H     -17.9568927075     6.6272107988     0.9192103934
 ----------------------------------------------------------------

    9   -5663.4745997304      9.38E-06 Convergence criterion met
 Total energy in the final basis set = -5663.4745997304

                    Orbital Energies (a.u.)
 --------------------------------------------------------------

 Alpha MOs
 -- Occupied --
-88.990 -88.985 -88.931 -88.928 -88.928 -88.916 -88.912 -88.909
-14.386 -14.382 -14.377 -14.375 -14.347 -14.347 -14.346 -14.343
-14.331 -14.325 -10.266 -10.263 -10.263 -10.260 -10.254 -10.253
-10.249 -10.248 -10.246 -10.244 -10.242 -10.239 -10.239 -10.236
-10.236 -10.233 -10.231 -10.229 -10.228 -10.227 -10.227 -10.227
-10.226 -10.225 -10.225 -10.225 -10.225 -10.224 -10.224 -10.221
-10.215 -10.212 -10.205 -10.201 -10.201 -10.199 -10.197 -10.195
-10.188 -10.183 -10.182 -10.182 -10.181 -10.181 -10.179 -10.179
-10.178 -10.177 -10.175 -10.170  -8.044  -8.040  -7.992  -7.991
 -7.985  -7.973  -7.970  -7.969  -6.010  -6.006  -6.004  -6.002
 -6.000  -5.998  -5.956  -5.955  -5.953  -5.951  -5.950  -5.949
 -5.948  -5.946  -5.942  -5.938  -5.934  -5.934  -5.933  -5.931
 -5.930  -5.929  -5.926  -5.925  -1.033  -1.025  -0.987  -0.972
 -0.967  -0.960  -0.935  -0.933  -0.908  -0.903  -0.896  -0.892
 -0.838  -0.831  -0.829  -0.827  -0.816  -0.813  -0.810  -0.807
 -0.805  -0.804  -0.798  -0.792  -0.787  -0.784  -0.772  -0.766
 -0.754  -0.743  -0.740  -0.736  -0.721  -0.713  -0.710  -0.708
 -0.694  -0.689  -0.678  -0.675  -0.655  -0.654  -0.645  -0.640
 -0.634  -0.633  -0.623  -0.622  -0.608  -0.605  -0.601  -0.598
 -0.594  -0.592  -0.582  -0.580  -0.579  -0.576  -0.573  -0.567
 -0.550  -0.545  -0.543  -0.537  -0.525  -0.523  -0.516  -0.512
 -0.506  -0.500  -0.500  -0.494  -0.488  -0.486  -0.480  -0.472
 -0.471  -0.470  -0.469  -0.467  -0.463  -0.461  -0.457  -0.450
 -0.445  -0.444  -0.441  -0.438  -0.437  -0.434  -0.432  -0.430
 -0.429  -0.427  -0.426  -0.422  -0.419  -0.416  -0.416  -0.413
 -0.411  -0.406  -0.404  -0.403  -0.402  -0.402  -0.398  -0.394
 -0.392  -0.391  -0.390  -0.389  -0.386  -0.385  -0.385  -0.384
 -0.383  -0.374  -0.373  -0.372  -0.363  -0.361  -0.355  -0.355
 -0.352  -0.352  -0.349  -0.347  -0.345  -0.343  -0.341  -0.339
 -0.336  -0.333  -0.333  -0.331  -0.330  -0.329  -0.324  -0.324
 -0.323  -0.317  -0.307  -0.306  -0.303  -0.298  -0.298  -0.297
 -0.296  -0.294  -0.293  -0.292  -0.286  -0.283  -0.283  -0.281
 -0.271  -0.266  -0.264  -0.263  -0.258  -0.252  -0.251  -0.247
 -0.242  -0.238  -0.228  -0.225  -0.193  -0.192

          Ground-State Mulliken Net Atomic Charges

     Atom                 Charge (a.u.)
  ----------------------------------------
      1 C                     0.257942
      2 C                    -0.121779
      3 N                    -0.477848
      4 C                    -0.072290
      5 C                     0.082240
      6 C                     0.015616
      7 C                     0.034620
      8 C                     0.078703
      9 C                     0.242679
     10 N                    -0.541604
     11 N                    -0.577114
     12 C                     0.192451
     13 C                     0.348674
     14 S                     0.604455
     15 N                    -0.581771
     16 C                    -0.222486
     17 S                     0.324586
     18 C                    -0.118105
     19 C                    -0.247396
     20 S                     0.286953
     21 C                     0.186140
     22 C                     0.069338
     23 C                    -0.321401
     24 C                    -0.071220
     25 N                    -0.430623
     26 S                     0.262738
     27 C                     0.120520
     28 C                    -0.320611
     29 C                    -0.222768
     30 H                     0.091446
     31 H                     0.097793
     32 H                     0.134130
     33 H                     0.111292
     34 H                     0.132349
     35 H                     0.119397
     36 H                     0.134100
     37 H                     0.139343
     38 H                     0.120436
     39 C                    -0.182807
     40 H                     0.093295
     41 H                     0.115206
     42 H                     0.097815
     43 C                    -0.182918
     44 H                     0.102676
     45 C                    -0.165809
     46 H                     0.091113
     47 H                     0.095837
     48 H                     0.095366
     49 C                    -0.192643
     50 H                     0.090934
     51 C                    -0.317026
     52 H                     0.092943
     53 H                     0.105363
     54 H                     0.102647
     55 H                     0.106510
     56 C                     0.274802
     57 C                    -0.102886
     58 N                    -0.481715
     59 C                    -0.073661
     60 C                     0.090796
     61 C                     0.013217
     62 C                     0.022742
     63 C                     0.058693
     64 C                     0.244147
     65 N                    -0.530541
     66 N                    -0.550147
     67 C                     0.205906
     68 C                     0.330155
     69 S                     0.594160
     70 N                    -0.581318
     71 C                    -0.220750
     72 S                     0.346336
     73 C                    -0.125011
     74 C                    -0.225146
     75 S                     0.281471
     76 C                     0.165555
     77 C                     0.023742
     78 C                    -0.317160
     79 C                    -0.091125
     80 N                    -0.417715
     81 S                     0.316793
     82 C                     0.120899
     83 C                    -0.311527
     84 C                    -0.235299
     85 H                     0.099298
     86 H                     0.108053
     87 H                     0.104132
     88 H                     0.115422
     89 H                     0.126149
     90 H                     0.121893
     91 H                     0.110524
     92 H                     0.133361
     93 H                     0.116778
     94 C                    -0.192750
     95 H                     0.106281
     96 H                     0.102357
     97 H                     0.087665
     98 C                    -0.174549
     99 H                     0.100515
    100 C                    -0.173494
    101 H                     0.100684
    102 H                     0.093431
    103 H                     0.090335
    104 C                    -0.175246
    105 H                     0.085152
    106 C                    -0.320474
    107 H                     0.098073
    108 H                     0.101768
    109 H                     0.099916
    110 H                     0.099884
  ----------------------------------------
  Sum of atomic charges =     0.000000

                    Cartesian Multipole Moments
 -----------------------------------------------------------------
    Charge (ESU x 10^10)
                 0.0000
    Dipole Moment (Debye)
         X       0.4077      Y      -1.1944      Z       0.1332
       Tot       1.2691
    Quadrupole Moments (Debye-Ang)
        XX    -409.3561     XY       3.7341     YY    -407.4582
        XZ       7.0172     YZ       2.5288     ZZ    -448.1584

 Total job time:  80.83s(wall), 941.45s(cpu)
        *  Thank you very much for using Q-Chem.  Have a nice day.  *
