 Q-Chem 4.4, Q-Chem, Inc., Pleasanton, CA (2016)
 Q-Chem 4.4.2 for Intel X86 Linux

User input:
--------------------------------------------------------------
$comment
SP
$end

$rem
MEM_STATIC 5000
MEM_TOTAL 20000
JOBTYPE SP
EXCHANGE B3LYP
BASIS 6-31g(d,p)
$end

$molecule
0 1
C          -5.780000     18.574000      6.809000
C          -6.224000     17.467000      7.508000
N          -6.396000     19.727000      6.887000
C          -7.396000     17.581000      8.282000
C          -7.475000     19.848000      7.670000
C          -7.879000     18.809000      8.512000
C          -9.032000     19.011000      9.483000
C         -10.044000     18.092000      9.563000
C          -9.042000     19.986000     10.467000
N         -11.091000     18.203000     10.350000
N          -7.960000     20.825000     10.614000
C         -10.000000     20.046000     11.365000
C         -11.109000     19.197000     11.265000
S          -8.391000     21.766000     11.886000
N          -9.762000     21.027000     12.301000
C         -12.240000     19.120000     12.144000
S         -12.238000     19.779000     13.726000
C         -13.482000     18.747000     11.730000
C         -14.017000     19.587000     13.838000
S         -14.126000     18.162000     10.219000
C         -14.488000     19.038000     12.645000
C         -14.766000     20.294000     14.907000
C         -15.776000     18.193000     10.907000
C         -15.747000     18.656000     12.225000
N         -16.105000     20.162000     14.978000
S         -14.053000     21.133000     16.240000
C         -16.576000     20.686000     16.128000
C         -15.666000     21.274000     16.959000
C          -4.371000     18.563000      6.148000
H          -5.576000     16.606000      7.373000
H          -7.691000     16.742000      8.905000
H          -7.859000     20.854000      7.832000
H         -10.127000     17.312000      8.808000
H         -16.574000     17.842000     10.266000
H         -16.540000     18.560000     12.958000
H         -17.607000     20.545000     16.425000
H         -15.809000     21.575000     17.988000
H          -4.089000     17.590000      5.729000
C          -3.285000     19.013000      7.141000
H          -4.439000     19.078000      5.182000
H          -3.515000     20.059000      7.377000
H          -2.339000     19.024000      6.586000
C          -3.247000     18.291000      8.502000
H          -4.136000     18.512000      9.105000
C          -1.982000     18.775000      9.263000
H          -3.203000     17.219000      8.272000
H          -2.008000     19.872000      9.249000
H          -1.075000     18.457000      8.735000
C          -2.064000     18.204000     10.645000
H          -2.998000     18.339000     11.203000
C          -0.855000     18.833000     11.308000
H          -1.894000     17.132000     10.487000
H           0.015000     18.363000     10.834000
H          -0.877000     18.582000     12.376000
H          -0.868000     19.924000     11.195000
C         -14.976000     14.720000      8.474000
C         -14.108000     15.468000      7.681000
N         -16.286000     14.986000      8.616000
C         -14.678000     16.501000      6.931000
C         -16.822000     16.122000      7.946000
C         -16.041000     16.827000      7.024000
C         -16.770000     17.948000      6.193000
C         -18.021000     17.820000      5.638000
C         -16.202000     19.260000      6.054000
N         -18.654000     18.764000      4.859000
N         -15.064000     19.596000      6.603000
C         -16.836000     20.280000      5.379000
C         -18.050000     19.977000      4.777000
S         -14.785000     21.219000      6.263000
N         -16.083000     21.473000      5.312000
C         -18.646000     20.973000      3.795000
S         -18.486000     22.684000      3.978000
C         -19.393000     20.678000      2.662000
C         -19.358000     23.008000      2.433000
S         -19.854000     19.232000      2.036000
C         -19.741000     21.804000      1.896000
C         -19.650000     24.265000      1.836000
C         -20.605000     20.021000      0.588000
C         -20.495000     21.385000      0.725000
N         -20.259000     24.406000      0.701000
S         -19.018000     25.740000      2.541000
C         -20.350000     25.684000      0.355000
C         -19.784000     26.592000      1.249000
C         -14.470000     13.574000      9.322000
H         -13.048000     15.250000      7.583000
H         -14.019000     16.838000      6.137000
H         -17.879000     16.359000      8.056000
H         -18.639000     16.950000      5.853000
H         -21.043000     19.446000     -0.217000
H         -20.856000     22.109000      0.004000
H         -20.620000     25.937000     -0.661000
H         -19.740000     27.663000      1.103000
H         -13.419000     13.373000      9.080000
C         -15.270000     12.222000      9.307000
H         -14.421000     13.956000     10.349000
H         -14.512000     11.447000      9.471000
H         -15.782000     12.053000      8.352000
C         -16.418000     12.207000     10.430000
H         -16.923000     13.170000     10.572000
C         -15.820000     11.829000     11.769000
H         -17.266000     11.536000     10.244000
H         -15.045000     12.588000     11.935000
H         -15.215000     10.914000     11.799000
C         -16.781000     11.637000     12.982000
H         -17.245000     12.623000     13.115000
C         -15.915000     11.164000     14.225000
H         -17.427000     10.796000     12.702000
H         -16.544000     10.723000     15.008000
H         -15.373000     11.913000     14.815000
H         -15.274000     10.315000     13.957000
$end

--------------------------------------------------------------

             Standard Nuclear Orientation (Angstroms)
    I     Atom           X                Y                Z
 ----------------------------------------------------------------
    1      C       5.5992416087    -5.3751254696     2.2225145990
    2      C       5.8880968393    -4.1338977253     2.7583339179
    3      N       4.8839856856    -5.5023585488     1.1329414220
    4      C       5.3548255495    -2.9876594769     2.1359067257
    5      C       4.4284100597    -4.4084868232     0.5101521341
    6      C       4.8128967451    -3.1291991853     0.9191681828
    7      C       4.3838293068    -1.9065165782     0.1229255213
    8      C       3.8317926667    -0.8235761384     0.7534812696
    9      C       4.6968220802    -1.7145839580    -1.2128058862
   10      N       3.4063183000     0.2587065695     0.1406724059
   11      N       5.4492704141    -2.6525312229    -1.8838725246
   12      C       4.4158582809    -0.5881857419    -1.8292914110
   13      C       3.6702312191     0.4012198632    -1.1767587810
   14      S       5.5935474704    -2.0070604535    -3.3844649465
   15      N       4.8990011590    -0.5771127842    -3.1183031832
   16      C       3.2721178797     1.6818787150    -1.6858262367
   17      S       3.9996063469     2.4071971080    -3.0575706586
   18      C       2.1359843688     2.3202232711    -1.2923724617
   19      C       2.6845064611     3.6224343127    -3.1467885200
   20      S       0.9177869520     1.9860815677    -0.0905295535
   21      C       1.7727468978     3.3774550018    -2.1195735299
   22      C       2.5160370481     4.4329488556    -4.3789797521
   23      C      -0.0260220179     3.3975551728    -0.6506830061
   24      C       0.6217769186     4.0261507864    -1.7172466902
   25      N       1.5159291228     5.3330211637    -4.4499725551
   26      S       3.6319086610     4.4901824339    -5.6983484879
   27      C       1.6568369531     6.1183824963    -5.5372947524
   28      C       2.7094673675     5.8483467734    -6.3640080758
   29      C       6.3608330546    -6.6358682665     2.7253357100
   30      H       6.5298449090    -4.2003006322     3.6319471440
   31      H       5.6586655028    -2.0103815192     2.4987897320
   32      H       3.9791229637    -4.5486545883    -0.4718000557
   33      H       3.5265524673    -0.9022366379     1.7955728905
   34      H      -0.9384305278     3.6143798800    -0.1108832678
   35      H       0.4171121029     5.0203044885    -2.0981990886
   36      H       1.0303746840     6.9887137221    -5.6826205337
   37      H       3.0968254570     6.4654680507    -7.1633866092
   38      H       6.5783406958    -6.6193236785     3.7996870039
   39      C       7.6758978401    -6.8388665166     1.9524571164
   40      H       5.6513659917    -7.4708911863     2.7743072316
   41      H       7.3815086238    -7.0403933777     0.9154258181
   42      H       8.1212573904    -7.7668391672     2.3313814238
   43      C       8.6284472501    -5.6299196106     1.8740606885
   44      H       8.2016959311    -4.8133356018     1.2792120791
   45      C       9.9499269391    -6.1067239358     1.2107726161
   46      H       8.7835379832    -5.3022892353     2.9097368936
   47      H       9.6680129559    -6.6166253362     0.2808231185
   48      H      10.4550946186    -6.8391721386     1.8517735878
   49      C      10.7833642539    -4.8841282285     0.9798376062
   50      H      10.3155385406    -4.0299702961     0.4763514310
   51      C      11.9722090679    -5.4602593286     0.2371317668
   52      H      11.0791062938    -4.5837987412     1.9924514738
   53      H      12.5128890803    -6.0639464201     0.9758489114
   54      H      12.6053977594    -4.6294104546    -0.0988313703
   55      H      11.6471189370    -6.0398872839    -0.6355462037
   56      C       0.0649524128     2.9644928023     3.6417986347
   57      C       0.1456591063     1.5799549734     3.5064530402
   58      N      -0.9644958993     3.7066996928     3.1986450443
   59      C      -0.9647067791     0.9394777598     2.9484516609
   60      C      -2.0270770574     3.0500847370     2.5156588935
   61      C      -2.0775631579     1.6526789534     2.4734898333
   62      C      -3.3802711016     1.0117106804     1.8645935479
   63      C      -4.6584450850     1.4477278514     2.1206605208
   64      C      -3.3065544736    -0.0323402538     0.8808189266
   65      N      -5.8146955374     0.8673586133     1.6464006354
   66      N      -2.1700501810    -0.5033530235     0.4382740548
   67      C      -4.4234316427    -0.5797321527     0.2884267438
   68      C      -5.6577076685    -0.1140486689     0.7216825403
   69      S      -2.5106706794    -1.6545926442    -0.7390937772
   70      N      -4.1344318112    -1.6299725576    -0.6105844850
   71      C      -6.9090771456    -0.8737584388     0.3112297450
   72      S      -7.0748230207    -1.6533881711    -1.2221703284
   73      C      -8.0667515482    -1.0357855246     1.0610698621
   74      C      -8.7040339932    -2.3026910702    -0.8020961059
   75      S      -8.4486307669    -0.4931700073     2.5627521396
   76      C      -9.0300761702    -1.8617180054     0.4564400497
   77      C      -9.5590607297    -3.1126246361    -1.5987509236
   78      C     -10.0347074392    -1.3692029835     2.5503822568
   79      C     -10.1857969416    -1.9861681014     1.3305908789
   80      N     -10.7082684031    -3.5626520412    -1.2040560313
   81      S      -9.0033829558    -3.7181964486    -3.1468397426
   82      C     -11.2682064489    -4.3368151948    -2.1251541784
   83      C     -10.5294085284    -4.5127903314    -3.2944558435
   84      C       1.2046695531     3.7601712266     4.2387883206
   85      H       0.9886668813     0.9917641441     3.8587277053
   86      H      -0.9566426267    -0.1288204593     3.1407011982
   87      H      -2.8654151661     3.6354260270     2.1413825388
   88      H      -4.8320186338     2.3631841423     2.6835646002
   89      H     -10.6987306205    -1.3672361551     3.4045270609
   90      H     -11.0416853924    -2.5858067277     1.0438392832
   91      H     -12.1063334292    -4.9619399015    -1.8496051518
   92      H     -10.8226470881    -5.1383222032    -4.1269304824
   93      H       1.9566312683     3.0749526714     4.6493916701
   94      C       0.8693204304     4.8592688178     5.3100746739
   95      H       1.7256380132     4.2243879550     3.3925326307
   96      H       1.7450684604     4.8832941513     5.9692963145
   97      H      -0.0308656910     4.6156870635     5.8871906724
   98      C       0.5787356631     6.2806774471     4.6212960434
   99      H       0.0315869952     6.2191557179     3.6729282814
  100      C       1.8871223519     6.9823680142     4.3226932628
  101      H      -0.0471705896     6.9757221712     5.1949642352
  102      H       2.4232679952     6.2759671544     3.6763128219
  103      H       2.5985646931     7.0748952206     5.1530176037
  104      C       1.8368058239     8.4354854957     3.7590694237
  105      H       1.3121128974     8.3330121516     2.8002276503
  106      C       3.3280094426     8.9605616446     3.6199981991
  107      H       1.3594077952     9.0295219083     4.5478715933
  108      H       3.3618330570    10.0528483225     3.5252523480
  109      H       3.9156156120     8.6743933461     2.7392645874
  110      H       3.8875700715     8.8055084255     4.5507808815
 ----------------------------------------------------------------

   10   -5663.4762303703      5.60E-06 Convergence criterion met
 Total energy in the final basis set = -5663.4762303703

                    Orbital Energies (a.u.)
 --------------------------------------------------------------

 Alpha MOs
 -- Occupied --
-88.996 -88.991 -88.924 -88.924 -88.923 -88.922 -88.904 -88.902
-14.394 -14.387 -14.382 -14.377 -14.356 -14.345 -14.339 -14.337
-14.335 -14.323 -10.271 -10.267 -10.265 -10.258 -10.256 -10.252
-10.250 -10.247 -10.243 -10.241 -10.239 -10.239 -10.236 -10.232
-10.230 -10.230 -10.230 -10.227 -10.226 -10.226 -10.226 -10.225
-10.224 -10.224 -10.223 -10.222 -10.222 -10.220 -10.216 -10.213
-10.209 -10.207 -10.207 -10.203 -10.201 -10.198 -10.195 -10.191
-10.184 -10.184 -10.182 -10.179 -10.177 -10.175 -10.174 -10.172
-10.170 -10.168 -10.167 -10.161  -8.051  -8.046  -7.985  -7.985
 -7.983  -7.982  -7.964  -7.963  -6.016  -6.012  -6.010  -6.009
 -6.006  -6.004  -5.949  -5.949  -5.948  -5.946  -5.945  -5.945
 -5.944  -5.943  -5.942  -5.942  -5.940  -5.939  -5.928  -5.928
 -5.925  -5.924  -5.920  -5.919  -1.044  -1.032  -0.985  -0.972
 -0.964  -0.954  -0.949  -0.928  -0.916  -0.915  -0.900  -0.898
 -0.846  -0.845  -0.842  -0.824  -0.820  -0.812  -0.812  -0.809
 -0.802  -0.798  -0.798  -0.792  -0.788  -0.782  -0.769  -0.767
 -0.750  -0.745  -0.741  -0.738  -0.725  -0.724  -0.710  -0.703
 -0.695  -0.691  -0.675  -0.675  -0.653  -0.650  -0.649  -0.648
 -0.636  -0.634  -0.631  -0.626  -0.612  -0.609  -0.598  -0.597
 -0.596  -0.588  -0.582  -0.580  -0.579  -0.577  -0.570  -0.559
 -0.553  -0.546  -0.543  -0.539  -0.522  -0.521  -0.513  -0.511
 -0.509  -0.506  -0.502  -0.498  -0.491  -0.485  -0.484  -0.477
 -0.476  -0.474  -0.470  -0.469  -0.464  -0.459  -0.452  -0.448
 -0.444  -0.442  -0.439  -0.436  -0.434  -0.434  -0.433  -0.431
 -0.429  -0.428  -0.421  -0.419  -0.418  -0.414  -0.413  -0.413
 -0.410  -0.408  -0.406  -0.405  -0.402  -0.402  -0.400  -0.397
 -0.396  -0.392  -0.390  -0.388  -0.387  -0.383  -0.382  -0.379
 -0.373  -0.373  -0.369  -0.368  -0.366  -0.360  -0.357  -0.352
 -0.352  -0.351  -0.348  -0.348  -0.347  -0.344  -0.341  -0.340
 -0.338  -0.335  -0.334  -0.332  -0.332  -0.330  -0.326  -0.315
 -0.311  -0.309  -0.308  -0.308  -0.305  -0.303  -0.300  -0.297
 -0.293  -0.291  -0.286  -0.285  -0.283  -0.282  -0.282  -0.279
 -0.277  -0.275  -0.270  -0.265  -0.253  -0.251  -0.250  -0.248
 -0.244  -0.243  -0.239  -0.233  -0.193  -0.191

          Ground-State Mulliken Net Atomic Charges

     Atom                 Charge (a.u.)
  ----------------------------------------
      1 C                     0.258433
      2 C                    -0.106127
      3 N                    -0.453078
      4 C                    -0.096971
      5 C                     0.072749
      6 C                     0.061697
      7 C                     0.007561
      8 C                     0.056069
      9 C                     0.221087
     10 N                    -0.500186
     11 N                    -0.549003
     12 C                     0.220804
     13 C                     0.259812
     14 S                     0.619626
     15 N                    -0.558216
     16 C                    -0.199933
     17 S                     0.317408
     18 C                    -0.107022
     19 C                    -0.236123
     20 S                     0.285347
     21 C                     0.150908
     22 C                     0.049800
     23 C                    -0.322887
     24 C                    -0.048877
     25 N                    -0.433307
     26 S                     0.263287
     27 C                     0.135837
     28 C                    -0.316215
     29 C                    -0.231304
     30 H                     0.089310
     31 H                     0.099846
     32 H                     0.107615
     33 H                     0.102300
     34 H                     0.138997
     35 H                     0.126330
     36 H                     0.112179
     37 H                     0.133646
     38 H                     0.084595
     39 C                    -0.173603
     40 H                     0.107354
     41 H                     0.110604
     42 H                     0.089744
     43 C                    -0.182346
     44 H                     0.108402
     45 C                    -0.168152
     46 H                     0.082069
     47 H                     0.093955
     48 H                     0.094873
     49 C                    -0.174930
     50 H                     0.095751
     51 C                    -0.307156
     52 H                     0.095020
     53 H                     0.102350
     54 H                     0.087023
     55 H                     0.103150
     56 C                     0.296194
     57 C                    -0.108918
     58 N                    -0.490928
     59 C                    -0.053581
     60 C                     0.039421
     61 C                     0.052657
     62 C                     0.052953
     63 C                     0.029001
     64 C                     0.257768
     65 N                    -0.513591
     66 N                    -0.572710
     67 C                     0.223926
     68 C                     0.263746
     69 S                     0.610079
     70 N                    -0.545721
     71 C                    -0.226032
     72 S                     0.329389
     73 C                    -0.092239
     74 C                    -0.243624
     75 S                     0.259471
     76 C                     0.151227
     77 C                     0.075109
     78 C                    -0.316394
     79 C                    -0.043987
     80 N                    -0.430087
     81 S                     0.261639
     82 C                     0.120311
     83 C                    -0.313225
     84 C                    -0.231903
     85 H                     0.099649
     86 H                     0.103223
     87 H                     0.112251
     88 H                     0.114124
     89 H                     0.134652
     90 H                     0.127356
     91 H                     0.110764
     92 H                     0.131832
     93 H                     0.086003
     94 C                    -0.175009
     95 H                     0.134954
     96 H                     0.097139
     97 H                     0.099752
     98 C                    -0.178444
     99 H                     0.118405
    100 C                    -0.170725
    101 H                     0.076959
    102 H                     0.084359
    103 H                     0.076745
    104 C                    -0.176116
    105 H                     0.098941
    106 C                    -0.328739
    107 H                     0.099577
    108 H                     0.093360
    109 H                     0.107259
    110 H                     0.101675
  ----------------------------------------
  Sum of atomic charges =     0.000000

                    Cartesian Multipole Moments
 -----------------------------------------------------------------
    Charge (ESU x 10^10)
                 0.0000
    Dipole Moment (Debye)
         X       1.5068      Y      -1.7368      Z      -1.0077
       Tot       2.5105
    Quadrupole Moments (Debye-Ang)
        XX    -418.0789     XY      16.8726     YY    -443.5905
        XZ       9.6091     YZ      -9.4918     ZZ    -415.4324

 Total job time:  91.07s(wall), 1063.01s(cpu)
        *  Thank you very much for using Q-Chem.  Have a nice day.  *
