 Q-Chem 4.4, Q-Chem, Inc., Pleasanton, CA (2016)
 Q-Chem 4.4.2 for Intel X86 Linux

User input:
--------------------------------------------------------------
$comment
SP
$end

$rem
MEM_STATIC 5000
MEM_TOTAL 20000
JOBTYPE SP
EXCHANGE B3LYP
BASIS 6-31g(d,p)
$end

$molecule
0 1
C          -3.745000     -9.838000      0.610000
C          -3.261000     -9.584000     -0.726000
N          -4.481000     -9.027000      1.297000
C          -3.666000     -8.386000     -1.355000
C          -4.939000     -7.907000      0.639000
C          -4.529000     -7.501000     -0.654000
C          -4.987000     -6.291000     -1.260000
C          -6.412000     -6.150000     -1.222000
C          -4.279000     -5.357000     -1.981000
N          -7.037000     -5.188000     -1.875000
N          -2.910000     -5.522000     -2.149000
C          -4.867000     -4.365000     -2.723000
C          -6.297000     -4.289000     -2.629000
S          -2.503000     -4.154000     -2.885000
N          -4.012000     -3.546000     -3.330000
C          -7.077000     -3.226000     -3.369000
S          -6.369000     -1.869000     -4.311000
C          -8.468000     -3.089000     -3.404000
C          -7.929000     -1.172000     -4.763000
S          -9.725000     -3.986000     -2.502000
C          -8.886000     -1.942000     -4.153000
C          -8.072000      0.057000     -5.464000
C         -10.758000     -2.723000     -3.099000
C         -10.219000     -1.684000     -3.788000
N          -9.296000      0.519000     -5.764000
S          -6.753000      1.181000     -5.793000
C          -9.203000      1.678000     -6.449000
C          -7.945000      2.250000     -6.462000
C          -3.312000    -11.071000      1.443000
H          -2.605000    -10.272000     -1.250000
H          -3.406000     -8.192000     -2.391000
H          -5.619000     -7.276000      1.208000
H          -7.078000     -6.867000     -0.743000
H         -11.797000     -2.666000     -2.802000
H         -10.642000     -0.730000     -4.081000
H         -10.094000      2.154000     -6.836000
H          -7.625000      3.242000     -6.752000
H          -2.371000    -11.533000      1.119000
C          -4.316000    -12.230000      1.238000
H          -3.247000    -10.860000      2.518000
H          -3.833000    -13.185000      1.479000
H          -4.560000    -12.398000      0.182000
C          -5.622000    -12.055000      2.128000
H          -5.302000    -12.076000      3.177000
C          -6.579000    -13.219000      1.730000
H          -6.125000    -11.134000      1.806000
H          -6.124000    -14.192000      1.504000
H          -7.114000    -12.912000      0.823000
C          -7.598000    -13.338000      2.847000
H          -8.136000    -14.288000      2.747000
C          -8.607000    -12.206000      3.086000
H          -7.048000    -13.474000      3.787000
H          -9.367000    -12.252000      2.296000
H          -8.086000    -11.243000      3.011000
H          -9.162000    -12.277000      4.030000
C         -23.348000      0.962000    -12.701000
C         -22.755000     -0.352000    -12.780000
N         -22.582000      2.060000    -12.366000
C         -21.366000     -0.409000    -12.738000
C         -21.275000      1.967000    -12.278000
C         -20.592000      0.743000    -12.503000
C         -19.058000      0.598000    -12.405000
C         -18.325000     -0.308000    -13.177000
C         -18.290000      1.338000    -11.492000
N         -17.069000     -0.599000    -12.918000
N         -18.767000      2.245000    -10.699000
C         -16.984000      1.047000    -11.200000
C         -16.359000      0.081000    -12.003000
S         -17.601000      2.746000     -9.666000
N         -16.424000      1.747000    -10.175000
C         -14.985000     -0.326000    -11.765000
S         -14.024000     -0.097000    -10.313000
C         -14.271000     -1.139000    -12.643000
C         -12.562000     -0.921000    -11.018000
S         -14.691000     -1.729000    -14.208000
C         -12.973000     -1.415000    -12.274000
C         -11.279000     -1.022000    -10.302000
C         -13.158000     -2.476000    -14.301000
C         -12.313000     -2.194000    -13.274000
N         -10.426000     -1.877000    -10.826000
S         -11.086000     -0.778000     -8.615000
C          -9.476000     -2.229000     -9.935000
C          -9.589000     -1.700000     -8.674000
C         -24.767000      1.224000    -13.065000
H         -23.332000     -1.246000    -13.001000
H         -20.828000     -1.351000    -12.683000
H         -20.706000      2.860000    -12.027000
H         -18.837000     -0.945000    -13.897000
H         -12.893000     -2.988000    -15.217000
H         -11.282000     -2.513000    -13.179000
H          -8.750000     -2.973000    -10.235000
H          -8.962000     -1.875000     -7.809000
H         -24.614000      2.144000    -13.643000
C         -25.690000      1.389000    -11.822000
H         -25.135000      0.437000    -13.735000
H         -25.401000      2.113000    -11.051000
H         -25.634000      0.401000    -11.349000
C         -27.144000      1.564000    -12.254000
H         -27.555000      0.781000    -12.904000
C         -27.405000      2.948000    -12.834000
H         -27.728000      1.489000    -11.329000
H         -26.809000      3.167000    -13.729000
H         -27.086000      3.747000    -12.153000
C         -28.929000      2.965000    -13.079000
H         -29.199000      2.230000    -13.846000
C         -29.244000      4.442000    -13.504000
H         -29.541000      2.755000    -12.193000
H         -28.840000      5.163000    -12.784000
H         -30.335000      4.517000    -13.587000
H         -28.799000      4.574000    -14.498000
$end

--------------------------------------------------------------

             Standard Nuclear Orientation (Angstroms)
    I     Atom           X                Y                Z
 ----------------------------------------------------------------
    1      C      13.2046483566    -2.4988916496    -0.7785317340
    2      C      12.7532646471    -1.4515687104    -1.6634246131
    3      N      12.6960593156    -2.7577531898     0.3815173557
    4      C      11.6365004288    -0.6865622961    -1.2603453815
    5      C      11.5555888109    -2.0637148530     0.7202883921
    6      C      11.0109662284    -0.9867432892    -0.0201867886
    7      C       9.8620909886    -0.2582742720     0.4162975463
    8      C       8.7627885927    -1.1056688229     0.7704256549
    9      C       9.6324497251     1.0982939225     0.3951168065
   10      N       7.5637138039    -0.6213058131     1.0351710528
   11      N      10.6304445233     1.9502950328    -0.0606358575
   12      C       8.4016130144     1.6637513667     0.6088242476
   13      C       7.3544154136     0.7480281057     0.9614431552
   14      S       9.9943732271     3.3928489028     0.2446846924
   15      N       8.3883524105     2.9936322083     0.5704041537
   16      C       5.9529642443     1.2334673948     1.2551306024
   17      S       5.4362626153     2.9520068939     1.3537126336
   18      C       4.8417973120     0.4368941953     1.5477979673
   19      C       3.7528094722     2.5790356715     1.7417731728
   20      S       4.7433503085    -1.3286185937     1.8152578325
   21      C       3.6719411206     1.2129308612     1.8315894128
   22      C       2.7807696522     3.5637243726     2.0701293063
   23      C       3.1490887492    -0.9418147658     2.3874290302
   24      C       2.7683237067     0.3581385622     2.4869394680
   25      N       1.5229860339     3.1940239938     2.3580911083
   26      S       3.1392967884     5.2660913721     2.3613043254
   27      C       0.7635574971     4.2800288294     2.6130750187
   28      C       1.4658664256     5.4587817075     2.7780623556
   29      C      14.4648378840    -3.3556376624    -1.0606232524
   30      H      13.2395909215    -1.2368389485    -2.6098039684
   31      H      11.2016392642     0.0492600390    -1.9296683667
   32      H      11.0981368669    -2.3492614746     1.6655517659
   33      H       8.8080784490    -2.1941119151     0.7523573414
   34      H       2.5091618185    -1.7043856795     2.8116437459
   35      H       1.9146347398     0.8130519821     2.9759823374
   36      H      -0.2977041498     4.1715739277     2.7924830762
   37      H       1.1528050540     6.4160907661     3.1731774577
   38      H      15.1795891726    -2.9002981447    -1.7575432757
   39      C      14.0712698049    -4.6470673869    -1.8160274049
   40      H      15.0005940536    -3.6428302495    -0.1469182975
   41      H      14.9424578505    -5.0415109788    -2.3534663707
   42      H      13.3948597591    -4.4564797097    -2.6580735956
   43      C      13.5003143906    -5.7625820946    -0.8372537579
   44      H      14.3054312398    -6.0203575027    -0.1382682802
   45      C      13.0411491114    -6.9438217862    -1.7444411902
   46      H      12.5847453907    -5.3676721370    -0.3782183215
   47      H      13.6502536460    -7.1668666444    -2.6299199630
   48      H      12.0365750089    -6.7054483492    -2.1147545401
   49      C      12.9228473901    -8.1571870650    -0.8422436491
   50      H      12.8490050785    -9.0610197482    -1.4583424998
   51      C      11.8436733168    -8.1970791852     0.2488191073
   52      H      13.8876414210    -8.2921601442    -0.3367233767
   53      H      10.8749445775    -8.3770464620    -0.2338737650
   54      H      11.8065377339    -7.2207593420     0.7486745987
   55      H      11.9602461607    -9.0061809296     0.9809168735
   56      C     -12.8269366715    -2.6155956379    -0.1127306346
   57      C     -11.9000488407    -3.0279450912    -1.1400245932
   58      N     -12.5173163012    -1.5722272663     0.7358579981
   59      C     -10.8187080322    -2.1851904397    -1.3741199867
   60      C     -11.4582509034    -0.8249145080     0.5247984701
   61      C     -10.5779513261    -1.0595755072    -0.5639149310
   62      C      -9.3233929420    -0.2028183028    -0.8392971263
   63      C      -8.8241870270     0.0307122405    -2.1239628182
   64      C      -8.5613697094     0.3673582915     0.1927940732
   65      N      -7.6328643946     0.5466127533    -2.3334742653
   66      N      -8.8588363866     0.2907100501     1.4516290994
   67      C      -7.3151948016     0.9013487421    -0.0008119648
   68      C      -6.8890006043     1.0406201231    -1.3303050970
   69      S      -7.6403119298     0.9154243895     2.3474952402
   70      N      -6.6327298290     1.2638257985     1.1203824628
   71      C      -5.5743397955     1.5685361306    -1.6514602727
   72      S      -4.1768673649     1.7090602886    -0.5971406975
   73      C      -5.1829585201     1.8940719411    -2.9485709593
   74      C      -3.1310659797     2.4361898410    -1.8975356671
   75      S      -6.0923060567     1.9236270861    -4.4134731919
   76      C      -3.9078039591     2.3992487438    -3.0747384817
   77      C      -1.7526490187     2.8928851865    -1.6518894927
   78      C      -4.6988575749     2.4819936450    -5.2278902316
   79      C      -3.6352247264     2.7638421972    -4.4294388824
   80      N      -1.0524453781     3.1294214494    -2.7413735257
   81      S      -0.8090934856     2.4459650603    -0.2907431536
   82      C       0.2712298481     3.1374703917    -2.4804058836
   83      C       0.6457114877     2.8560351705    -1.1907203724
   84      C     -14.1840844549    -3.2098790100     0.0275482577
   85      H     -12.0897875035    -3.8695828180    -1.8008204593
   86      H     -10.0106388826    -2.4559306043    -2.0475864021
   87      H     -11.2581215536    -0.0019745131     1.2081205085
   88      H      -9.3338533491    -0.3921853805    -2.9886655661
   89      H      -4.7832490263     2.7239243357    -6.2794474691
   90      H      -2.6877619995     3.1873347420    -4.7404299526
   91      H       0.9513660122     3.2657243059    -3.3120174106
   92      H       1.6436792666     2.7784194725    -0.7783914798
   93      H     -14.7460662479    -2.2819701413     0.1920310709
   94      C     -14.2775546632    -4.2362351884     1.1946212268
   95      H     -14.4996260482    -3.6559637899    -0.9238375064
   96      H     -13.9419751982    -3.9243464114     2.1907385961
   97      H     -13.5882673263    -5.0269614452     0.8742402754
   98      C     -15.6621197955    -4.8787724642     1.2332249020
   99      H     -16.0007026743    -5.3586964455     0.3061086168
  100      C     -16.7199333512    -3.9244941420     1.7720758695
  101      H     -15.5756839191    -5.7009507349     1.9535427002
  102      H     -16.8391635419    -3.0166003003     1.1673321767
  103      H     -16.4399019861    -3.5072035743     2.7474599050
  104      C     -17.9939327872    -4.7923500300     1.8535718489
  105      H     -18.3088031037    -5.1006333960     0.8499623382
  106      C     -19.0468475512    -3.8809077231     2.5760830397
  107      H     -17.8950320068    -5.7010241874     2.4603419136
  108      H     -18.6514070321    -3.4747313597     3.5142219195
  109      H     -19.9349098142    -4.5022724267     2.7435534018
  110      H     -19.2965178456    -3.0828296984     1.8659976853
 ----------------------------------------------------------------

   11   -5663.5023092586      6.48E-06 Convergence criterion met
 Total energy in the final basis set = -5663.5023092586

                    Orbital Energies (a.u.)
 --------------------------------------------------------------

 Alpha MOs
 -- Occupied --
-88.996 -88.986 -88.933 -88.925 -88.922 -88.920 -88.917 -88.900
-14.396 -14.396 -14.382 -14.368 -14.360 -14.351 -14.340 -14.335
-14.334 -14.323 -10.277 -10.276 -10.263 -10.262 -10.260 -10.254
-10.253 -10.245 -10.244 -10.244 -10.244 -10.241 -10.238 -10.235
-10.235 -10.234 -10.233 -10.232 -10.232 -10.231 -10.226 -10.223
-10.223 -10.219 -10.218 -10.218 -10.217 -10.217 -10.217 -10.210
-10.210 -10.209 -10.208 -10.205 -10.201 -10.199 -10.191 -10.184
-10.184 -10.183 -10.180 -10.180 -10.176 -10.175 -10.173 -10.172
-10.171 -10.169 -10.169 -10.168  -8.052  -8.042  -7.994  -7.984
 -7.983  -7.979  -7.976  -7.962  -6.017  -6.011  -6.010  -6.007
 -6.001  -5.999  -5.958  -5.955  -5.952  -5.949  -5.947  -5.945
 -5.944  -5.943  -5.941  -5.940  -5.940  -5.940  -5.937  -5.935
 -5.933  -5.926  -5.922  -5.918  -1.047  -1.043  -0.977  -0.973
 -0.962  -0.962  -0.949  -0.932  -0.917  -0.912  -0.910  -0.903
 -0.849  -0.849  -0.843  -0.823  -0.815  -0.813  -0.810  -0.807
 -0.802  -0.801  -0.799  -0.791  -0.783  -0.781  -0.768  -0.764
 -0.753  -0.746  -0.740  -0.737  -0.721  -0.718  -0.709  -0.706
 -0.694  -0.688  -0.682  -0.673  -0.659  -0.654  -0.651  -0.640
 -0.637  -0.634  -0.631  -0.619  -0.614  -0.602  -0.601  -0.596
 -0.589  -0.585  -0.583  -0.582  -0.576  -0.574  -0.568  -0.562
 -0.561  -0.546  -0.545  -0.538  -0.530  -0.521  -0.520  -0.508
 -0.507  -0.502  -0.500  -0.495  -0.494  -0.485  -0.483  -0.478
 -0.476  -0.473  -0.471  -0.468  -0.461  -0.459  -0.454  -0.445
 -0.445  -0.444  -0.441  -0.435  -0.432  -0.431  -0.429  -0.428
 -0.426  -0.423  -0.420  -0.419  -0.418  -0.417  -0.414  -0.414
 -0.412  -0.410  -0.409  -0.405  -0.400  -0.399  -0.395  -0.393
 -0.393  -0.393  -0.393  -0.389  -0.389  -0.387  -0.386  -0.381
 -0.381  -0.374  -0.373  -0.371  -0.367  -0.366  -0.366  -0.361
 -0.354  -0.352  -0.350  -0.349  -0.349  -0.343  -0.343  -0.340
 -0.340  -0.338  -0.336  -0.332  -0.330  -0.328  -0.325  -0.323
 -0.316  -0.316  -0.312  -0.310  -0.306  -0.302  -0.299  -0.298
 -0.295  -0.292  -0.290  -0.285  -0.285  -0.282  -0.280  -0.279
 -0.275  -0.270  -0.266  -0.263  -0.259  -0.255  -0.248  -0.248
 -0.243  -0.238  -0.231  -0.226  -0.197  -0.186

          Ground-State Mulliken Net Atomic Charges

     Atom                 Charge (a.u.)
  ----------------------------------------
      1 C                     0.288703
      2 C                    -0.127855
      3 N                    -0.465665
      4 C                    -0.051746
      5 C                     0.052288
      6 C                     0.036096
      7 C                    -0.007236
      8 C                     0.079302
      9 C                     0.178543
     10 N                    -0.508237
     11 N                    -0.515071
     12 C                     0.269611
     13 C                     0.288436
     14 S                     0.613700
     15 N                    -0.580889
     16 C                    -0.231844
     17 S                     0.304768
     18 C                    -0.122362
     19 C                    -0.233737
     20 S                     0.307598
     21 C                     0.145724
     22 C                     0.050149
     23 C                    -0.304371
     24 C                    -0.057303
     25 N                    -0.441892
     26 S                     0.281325
     27 C                     0.138062
     28 C                    -0.311785
     29 C                    -0.222434
     30 H                     0.097484
     31 H                     0.107106
     32 H                     0.102670
     33 H                     0.125065
     34 H                     0.118879
     35 H                     0.126724
     36 H                     0.121940
     37 H                     0.140119
     38 H                     0.089337
     39 C                    -0.198462
     40 H                     0.116795
     41 H                     0.088900
     42 H                     0.090280
     43 C                    -0.161109
     44 H                     0.095394
     45 C                    -0.176352
     46 H                     0.119528
     47 H                     0.089820
     48 H                     0.090334
     49 C                    -0.174893
     50 H                     0.077227
     51 C                    -0.321033
     52 H                     0.087634
     53 H                     0.099112
     54 H                     0.107669
     55 H                     0.103464
     56 C                     0.244982
     57 C                    -0.122873
     58 N                    -0.483026
     59 C                    -0.086462
     60 C                     0.106428
     61 C                     0.036747
     62 C                     0.026010
     63 C                     0.048544
     64 C                     0.261672
     65 N                    -0.506357
     66 N                    -0.570318
     67 C                     0.193787
     68 C                     0.297558
     69 S                     0.596677
     70 N                    -0.563050
     71 C                    -0.217553
     72 S                     0.306762
     73 C                    -0.119754
     74 C                    -0.248650
     75 S                     0.288533
     76 C                     0.165455
     77 C                     0.046427
     78 C                    -0.312492
     79 C                    -0.053330
     80 N                    -0.416536
     81 S                     0.284546
     82 C                     0.126249
     83 C                    -0.315800
     84 C                    -0.213237
     85 H                     0.090997
     86 H                     0.100160
     87 H                     0.118963
     88 H                     0.106034
     89 H                     0.122516
     90 H                     0.121045
     91 H                     0.111626
     92 H                     0.148875
     93 H                     0.124246
     94 C                    -0.176624
     95 H                     0.097203
     96 H                     0.113797
     97 H                     0.086829
     98 C                    -0.177741
     99 H                     0.087522
    100 C                    -0.159894
    101 H                     0.088573
    102 H                     0.096644
    103 H                     0.092992
    104 C                    -0.181476
    105 H                     0.094745
    106 C                    -0.318409
    107 H                     0.095790
    108 H                     0.105225
    109 H                     0.090920
    110 H                     0.102994
  ----------------------------------------
  Sum of atomic charges =     0.000000

                    Cartesian Multipole Moments
 -----------------------------------------------------------------
    Charge (ESU x 10^10)
                 0.0000
    Dipole Moment (Debye)
         X       2.5796      Y       0.9991      Z      -0.4778
       Tot       2.8073
    Quadrupole Moments (Debye-Ang)
        XX    -435.9470     XY      31.9693     YY    -426.7045
        XZ     -12.3186     YZ      13.0917     ZZ    -433.2545

 Total job time:  97.80s(wall), 1151.90s(cpu)
        *  Thank you very much for using Q-Chem.  Have a nice day.  *
