 Q-Chem 4.4, Q-Chem, Inc., Pleasanton, CA (2016)
 Q-Chem 4.4.2 for Intel X86 Linux

User input:
--------------------------------------------------------------
$comment
SP
$end

$rem
MEM_STATIC 5000
MEM_TOTAL 20000
JOBTYPE SP
EXCHANGE B3LYP
BASIS 6-31g(d,p)
$end

$molecule
0 1
O          15.868000     11.931000      7.056000
C          14.531000     11.455000      7.549000
H          13.852000     11.387000      6.690000
H          14.162000     12.091000      8.363000
H          14.732000     10.548000      8.132000
O          16.681000     12.158000      9.147000
C          16.828000     12.184000      7.937000
C          18.065000     12.714000      7.228000
H          17.911000     13.601000      6.602000
H          18.414000     11.931000      6.544000
C          19.233000     12.990000      8.162000
H          18.947000     13.770000      8.877000
H          19.461000     12.084000      8.737000
C          20.553000     13.444000      7.497000
H          21.030000     12.595000      6.991000
H          20.512000     14.093000      6.614000
C          21.593000     14.004000      8.510000
C          22.217000     12.814000      9.257000
C          21.646000     12.203000     10.424000
H          20.677000     12.518000     10.801000
C          22.320000     11.264000     11.152000
H          21.747000     10.950000     12.019000
C          23.663000     10.923000     10.788000
H          24.225000     10.177000     11.342000
C          24.244000     11.500000      9.674000
H          25.169000     11.112000      9.257000
C          23.529000     12.458000      8.886000
H          24.006000     12.772000      7.963000
C          22.614000     17.488000     12.645000
C          24.704000     17.361000     11.405000
C          24.740000     21.422000      9.471000
C          18.921000     18.740000      9.319000
C          23.741000     20.263000      6.337000
C          23.571000     16.716000     11.921000
C          20.122000     20.294000      7.229000
C          24.001000     20.740000     11.675000
C          24.194000     16.446000      7.523000
C          19.336000     18.144000      8.090000
C          22.306000     15.290000      8.246000
C          23.177000     16.780000      6.629000
C          20.857000     18.172000      6.393000
C          21.382000     20.843000      6.803000
C          24.094000     15.853000      9.831000
C          23.052000     21.881000      8.043000
C          21.361000     15.275000      9.306000
C          20.188000     16.182000      9.194000
C          23.989000     21.107000      7.411000
C          20.617000     21.233000     11.122000
C          22.549000     22.133000     10.333000
C          22.812000     21.503000     11.604000
C          24.048000     19.512000     12.351000
C          19.823000     16.812000     10.426000
C          23.741000     15.541000      8.535000
C          25.010000     18.729000     11.738000
C          19.942000     18.932000      7.098000
C          25.008000     16.843000     10.140000
C          23.205000     18.071000      5.983000
C          19.570000     19.007000     11.455000
C          24.951000     20.730000     10.663000
C          22.021000     16.121000      7.038000
C          21.676000     19.600000     12.626000
C          22.021000     18.780000      5.912000
C          25.187000     17.376000      7.788000
C          20.801000     21.841000      8.764000
C          19.825000     20.870000      8.446000
C          25.330000     18.608000      7.184000
C          19.158000     18.055000     10.505000
C          19.962000     16.921000      8.032000
C          19.645000     20.226000     10.790000
C          21.813000     15.593000     10.654000
C          25.903000     18.901000      9.357000
C          20.846000     16.896000      6.941000
C          24.293000     18.935000      6.259000
C          20.708000     18.681000     12.308000
C          25.066000     20.802000      8.247000
C          22.883000     18.935000     12.828000
C          23.509000     21.998000      9.352000
C          25.569000     17.604000      9.113000
C          25.723000     19.549000      8.138000
C          23.178000     15.827000     10.947000
C          20.864000     16.449000     11.353000
C          21.182000     22.016000     10.090000
C          25.559000     19.469000     10.631000
C          22.320000     20.059000      6.130000
C          19.204000     20.112000      9.499000
C          21.723000     21.843000      7.705000
C          21.273000     17.346000     12.385000
C          21.603000     20.898000     12.023000
O          31.399000     31.138000     19.900000
C          31.767000     31.077000     21.285000
H          30.926000     31.321000     21.947000
H          32.476000     31.892000     21.479000
H          32.301000     30.172000     21.600000
O          30.322000     29.069000     19.941000
C          30.617000     30.141000     19.373000
C          30.173000     30.523000     18.079000
H          30.887000     31.253000     17.679000
H          29.206000     31.030000     18.180000
C          29.894000     29.403000     17.054000
H          30.739000     28.706000     16.992000
H          29.047000     28.811000     17.422000
C          29.602000     29.992000     15.650000
H          28.537000     30.239000     15.733000
H          30.145000     30.895000     15.344000
C          29.763000     28.903000     14.607000
C          31.257000     28.467000     14.540000
C          32.143000     29.223000     13.833000
H          31.840000     30.025000     13.166000
C          33.515000     29.054000     13.828000
H          34.185000     29.846000     13.505000
C          34.033000     27.932000     14.514000
H          35.083000     27.675000     14.420000
C          33.142000     27.069000     15.172000
H          33.604000     26.228000     15.680000
C          31.771000     27.317000     15.213000
H          31.031000     26.657000     15.656000
C          29.165000     27.436000      9.353000
C          29.070000     25.295000     10.532000
C          24.642000     24.599000      9.992000
C          25.842000     30.690000     11.287000
C          23.768000     25.714000     13.130000
C          29.652000     26.632000     10.387000
C          23.653000     29.215000     12.175000
C          26.198000     25.466000      8.339000
C          27.628000     25.783000     14.297000
C          25.652000     30.361000     12.667000
C          28.619000     27.930000     14.228000
C          26.715000     26.665000     14.807000
C          24.994000     28.865000     14.237000
C          23.080000     27.930000     12.305000
C          29.337000     26.188000     12.608000
C          23.079000     26.010000     10.835000
C          29.037000     29.016000     13.291000
C          28.034000     30.088000     12.881000
C          23.627000     25.174000     11.828000
C          25.009000     28.717000      8.493000
C          24.079000     26.588000      8.735000
C          25.412000     26.562000      8.081000
C          27.582000     25.647000      8.531000
C          28.110000     30.179000     11.458000
C          28.760000     26.544000     13.837000
C          28.083000     24.849000      9.615000
C          24.552000     29.630000     13.135000
C          28.909000     25.019000     11.892000
C          25.327000     26.389000     14.598000
C          26.875000     30.073000      9.365000
C          25.862000     24.469000      9.274000
C          27.176000     27.975000     14.782000
C          27.379000     28.058000      8.027000
C          24.493000     27.502000     14.317000
C          27.156000     24.607000     13.567000
C          23.172000     28.391000     10.120000
C          23.696000     29.547000     10.807000
C          25.772000     24.416000     13.393000
C          27.082000     30.613000     10.659000
C          26.732000     30.032000     13.417000
C          25.518000     29.814000      9.240000
C          29.604000     28.560000     11.969000
C          26.810000     23.895000     11.463000
C          26.327000     29.040000     14.371000
C          24.860000     25.357000     13.898000
C          27.744000     29.120000      8.826000
C          24.517000     24.294000     11.330000
C          28.167000     26.942000      8.405000
C          23.710000     25.601000      9.664000
C          27.790000     24.329000     12.344000
C          25.606000     23.966000     12.060000
C          29.758000     27.156000     11.709000
C          29.021000     29.262000     10.909000
C          23.884000     27.990000      8.995000
C          26.951000     24.125000     10.070000
C          23.537000     27.070000     13.368000
C          24.869000     30.297000     10.346000
C          22.842000     27.402000     11.049000
C          28.899000     28.754000      9.577000
C          25.984000     27.826000      7.941000
$end

--------------------------------------------------------------

             Standard Nuclear Orientation (Angstroms)
    I     Atom           X                Y                Z
 ----------------------------------------------------------------
    1      O     -14.1185251706    -1.0894568127    -1.9770466470
    2      C     -15.0006546479    -1.1339525218    -3.1923909262
    3      H     -15.6508452234    -2.0140421187    -3.1133939828
    4      H     -14.4052348816    -1.0975169829    -4.1129346532
    5      H     -15.4653113795    -0.1429001454    -3.2620207257
    6      O     -12.8909033577     0.6158165598    -2.7954392236
    7      C     -13.1743620000    -0.1598508930    -1.8985689984
    8      C     -12.3633573238    -0.3413475912    -0.6245672858
    9      H     -11.9057407797    -1.3285031966    -0.4886558831
   10      H     -13.0484397455    -0.2180054009     0.2228964477
   11      C     -11.2834927434     0.7121563997    -0.4327918203
   12      H     -10.5608284023     0.6420434945    -1.2539260545
   13      H     -11.7367805858     1.7101385966    -0.4775876521
   14      C     -10.4809920623     0.6421608628     0.8869938751
   15      H     -11.1030585195     0.9853469606     1.7234283467
   16      H     -10.2435161860    -0.3379414983     1.3177787052
   17      C      -9.2058301387     1.5339561089     0.8813099029
   18      C      -9.6471030519     2.9950675134     1.0654747194
   19      C     -10.0607171244     3.8556931665    -0.0066716718
   20      H     -10.1534911957     3.4778903431    -1.0210547347
   21      C     -10.2782166257     5.1911970777     0.1806896642
   22      H     -10.5427442520     5.6829406455    -0.7503459948
   23      C     -10.0221505251     5.7718268214     1.4651059724
   24      H     -10.1897038397     6.8288261488     1.6493729222
   25      C      -9.6150937023     4.9709568252     2.5160093896
   26      H      -9.6157579482     5.3398236495     3.5377700390
   27      C      -9.4204585583     3.5641464040     2.3345304668
   28      H      -9.2196626407     2.9877529461     3.2320300942
   29      C      -4.5760700745     2.9727927039    -1.7213796678
   30      C      -4.0561603562     3.1935216456     0.6456441215
   31      C      -1.3138777141    -0.3288699819     1.1988313713
   32      C      -6.3663621654    -1.7706602713    -2.4714044018
   33      C      -3.7183326940    -2.3337431855     2.7358146785
   34      C      -4.9710572337     3.3548371266    -0.4045515836
   35      C      -5.1630244858    -3.4763901112    -0.5047114562
   36      C      -1.5447373835     1.2028361489    -0.6638122183
   37      C      -6.2570086741     0.7764639626     2.9868719700
   38      C      -7.0356810849    -2.0921655890    -1.2521716452
   39      C      -7.8905435420     0.9953350358     1.3414941141
   40      C      -6.7520492958    -0.5088643249     2.7679039903
   41      C      -6.8054291282    -2.5435244989     0.9698304184
   42      C      -4.2374849706    -3.4625404361     0.5969517374
   43      C      -6.0742234444     2.6383652844     1.5075390028
   44      C      -2.1962909354    -2.3719390241     0.8161764410
   45      C      -8.0298824800     1.2783475624    -0.0431858381
   46      C      -7.8882038803     0.1440906298    -0.9942433470
   47      C      -2.5740041287    -1.9351459306     2.0583574009
   48      C      -2.9463489188    -1.0720345445    -2.8685259032
   49      C      -1.5216969526    -1.1758604337    -1.1008347650
   50      C      -1.5159689122     0.1674380013    -1.6271678384
   51      C      -2.3177161369     2.3584949999    -0.8485430145
   52      C      -7.1659747632     0.4731890415    -2.1850532973
   53      C      -6.9025346733     1.7471651682     2.1565627782
   54      C      -2.6848309405     2.8252667840     0.4011180686
   55      C      -6.4058927811    -2.9119221140    -0.3015876499
   56      C      -4.7263703092     2.7514724508     1.7929784792
   57      C      -5.8819609227    -1.6421253609     2.9763425832
   58      C      -5.1711827661    -0.1350189425    -3.4467041748
   59      C      -1.4085521312     0.9688407122     0.6976001780
   60      C      -7.7227375840    -0.4245732428     1.7736418213
   61      C      -3.3053338016     1.3597900137    -2.7816629536
   62      C      -5.8949976051    -2.6457390292     2.0265175205
   63      C      -4.9338131641     0.9299230553     3.3699880739
   64      C      -3.0918259960    -2.9361151516    -1.2976268262
   65      C      -4.4568452837    -3.0955463475    -1.6260245089
   66      C      -4.0434812554    -0.0870832569     3.6458435672
   67      C      -6.4446162166    -0.4683894770    -2.9509428068
   68      C      -7.7529686331    -1.1657694549    -0.5322704188
   69      C      -4.3432635667    -1.2195840757    -3.1782283449
   70      C      -7.1327201292     2.2496237487    -0.6549490981
   71      C      -2.8522110551     1.5233332076     2.5858713407
   72      C      -7.6854574507    -1.4776536781     0.8354036913
   73      C      -4.5635345118    -1.3995345535     3.4338548773
   74      C      -4.6239100077     1.1759101773    -3.1137081227
   75      C      -2.0442610929    -0.6766503897     2.3540114040
   76      C      -3.2044875209     2.4406107950    -1.9090035318
   77      C      -1.4734170718    -1.3157171828     0.2704037784
   78      C      -4.1512826083     1.9007093242     2.7385191916
   79      C      -2.7869854517     0.2458922156     3.1355577355
   80      C      -6.1911820264     2.9798134879     0.1093538168
   81      C      -6.6728487680     1.8085258653    -1.9648685568
   82      C      -2.3528676800    -1.9362842877    -1.9207968277
   83      C      -2.1575728821     1.9251434542     1.3942076573
   84      C      -4.6356348539    -3.0480231266     1.8685967628
   85      C      -5.0503678213    -2.2573694844    -2.6331017370
   86      C      -2.9739249327    -3.2224201079     0.0719343485
   87      C      -5.4204397790     2.2267750796    -2.5065818750
   88      C      -2.4649186659     0.2037538323    -2.6766641582
   89      O      13.0951005472     4.7573139107    -2.5453717319
   90      C      13.6528502225     5.9198821108    -3.1736395727
   91      H      13.6522219376     5.8382320385    -4.2683513479
   92      H      14.7227308626     5.9505966041    -2.9308350505
   93      H      13.2673691079     6.8855671226    -2.8239786395
   94      O      10.8936788651     5.3936672888    -2.9825993110
   95      C      11.7375471112     4.5615253467    -2.5898408975
   96      C      11.4342216230     3.2503600348    -2.1355995816
   97      H      12.2524715284     2.9212077942    -1.4838159558
   98      H      11.4139359825     2.5792340475    -3.0025006152
   99      C      10.0641352558     3.0207362387    -1.4625451569
  100      H       9.8820510327     3.7634320070    -0.6758264452
  101      H       9.2847480662     3.1888764900    -2.2159251836
  102      C       9.9695367484     1.5943393767    -0.8626750755
  103      H       9.6834474742     1.0052031890    -1.7419898539
  104      H      10.8760892803     1.1535246576    -0.4293866145
  105      C       8.8316532550     1.5469274211     0.1386561693
  106      C       9.1750414821     2.4560747822     1.3560947103
  107      C      10.0022884138     1.9843002592     2.3305034097
  108      H      10.3056416660     0.9435884891     2.3997696775
  109      C      10.5246710836     2.7321805400     3.3691378170
  110      H      11.3963590718     2.4011041863     3.9268487630
  111      C      10.0689695194     4.0633984948     3.5032975761
  112      H      10.3362133955     4.6432017456     4.3806765713
  113      C       9.1364751946     4.5572897371     2.5769392356
  114      H       8.8285718021     5.5862839920     2.7355435364
  115      C       8.6904440607     3.7916646244     1.5009743596
  116      H       7.9303153522     4.0998072922     0.7891447152
  117      C       5.7102939145    -1.5556584795     3.4166564129
  118      C       4.2773237548     0.3744566416     2.9647724222
  119      C       1.4021307123    -1.7462683927     0.2045205683
  120      C       7.3712530814    -3.5930679083    -0.8800142128
  121      C       2.8676192150    -0.6148435329    -2.6982998249
  122      C       5.6080834741    -0.1730293629     3.2416399799
  123      C       5.3824270993    -3.2318075031    -2.7957261254
  124      C       2.3499711889    -2.6070482571     2.2699237871
  125      C       5.1498711878     2.0052741989    -0.6507258936
  126      C       7.4386228146    -2.5562865612    -1.8645378323
  127      C       7.3649544698     1.2658935550    -0.2723433924
  128      C       5.5897262084     1.4373476599    -1.8150196740
  129      C       6.3834459053    -0.9787813571    -3.1030688254
  130      C       4.0939356121    -2.7186056730    -3.0656660616
  131      C       5.7820761717     1.4446409127     1.6347574637
  132      C       2.0647822673    -2.6853890286    -1.7508526308
  133      C       8.1650875185     0.2314698222     0.4500440697
  134      C       8.4314148620    -1.1158111638    -0.2111644383
  135      C       1.9530846431    -1.2842302055    -1.8484568986
  136      C       4.4859470710    -4.8414319964     0.7041733802
  137      C       2.3687683274    -3.9635501176     0.2536375053
  138      C       2.7879036126    -3.7585635905     1.6634556270
  139      C       3.2259202882    -1.9083518024     3.1241002557
  140      C       8.1007700422    -2.1074559001     0.7616154547
  141      C       6.1766623533     1.8188757414     0.3407883612
  142      C       3.1509067719    -0.4878720106     2.9254268215
  143      C       6.4543295253    -2.3653304617    -2.8433572685
  144      C       4.3958829243     1.3825827486     2.0049169770
  145      C       4.6287750729     0.7767270048    -2.6436053759
  146      C       6.7678925443    -4.0827489753     1.2502511498
  147      C       1.6616813329    -1.5830169931     1.5926151097
  148      C       6.8772252881     0.9289303447    -1.7005471735
  149      C       4.9457189546    -3.6643641767     2.8655290111
  150      C       5.0503149288    -0.4229243118    -3.2732297628
  151      C       3.7323580703     1.9162505369    -0.3023132802
  152      C       3.8373901237    -4.4279379488    -1.6487759517
  153      C       5.2502767705    -4.3326145797    -1.9272463786
  154      C       2.8538094025     1.2353744541    -1.1664735653
  155      C       7.7118041285    -3.3871454787     0.4539775179
  156      C       7.9234577172    -1.3424365559    -1.5058676748
  157      C       5.8619097280    -4.6799508942     0.3861330996
  158      C       7.6549100308    -0.1571205638     1.8159962807
  159      C       2.3289898582     0.6903605368     0.9551553551
  160      C       7.2118525269    -0.3412192353    -2.2470740765
  161      C       3.3409078460     0.6323877385    -2.3375380926
  162      C       6.2396525104    -3.5172814853     2.4143387686
  163      C       1.5074903354    -0.7201924805    -0.7092417488
  164      C       4.5296354002    -2.4184766470     3.3983730211
  165      C       1.6708735832    -2.9649457062    -0.4457215981
  166      C       3.4310229992     1.5310956198     1.0151926457
  167      C       1.9912786725     0.4836838788    -0.3310413305
  168      C       6.4988302646     0.5019972284     2.3559734194
  169      C       7.6191794146    -1.5482688573     1.9564339843
  170      C       3.5034178799    -4.6412837797    -0.3159908615
  171      C       2.1528611906    -0.3250440584     1.9304308036
  172      C       3.9403909438    -1.2999799229    -3.2714402484
  173      C       6.2875423598    -4.4940115742    -0.9030485913
  174      C       3.1566846346    -3.4095024312    -2.3192169511
  175      C       6.7307055561    -2.2465679003     2.8340242356
  176      C       4.0556110671    -4.2676972660     1.9430637640
 ----------------------------------------------------------------

    9   -5804.2077999055      9.13E-06 Convergence criterion met
 Total energy in the final basis set = -5804.2077999055

                    Orbital Energies (a.u.)
 --------------------------------------------------------------

 Alpha MOs
 -- Occupied --
-19.196 -19.195 -19.133 -19.132 -10.316 -10.313 -10.254 -10.244
-10.238 -10.236 -10.236 -10.234 -10.233 -10.231 -10.231 -10.229
-10.227 -10.225 -10.225 -10.224 -10.224 -10.223 -10.223 -10.223
-10.223 -10.222 -10.221 -10.221 -10.221 -10.220 -10.220 -10.220
-10.219 -10.219 -10.219 -10.219 -10.219 -10.219 -10.219 -10.218
-10.218 -10.218 -10.217 -10.217 -10.217 -10.217 -10.217 -10.216
-10.216 -10.216 -10.216 -10.216 -10.216 -10.216 -10.215 -10.215
-10.215 -10.215 -10.215 -10.215 -10.214 -10.214 -10.214 -10.214
-10.214 -10.214 -10.214 -10.214 -10.214 -10.213 -10.213 -10.213
-10.213 -10.213 -10.213 -10.213 -10.213 -10.212 -10.212 -10.212
-10.212 -10.212 -10.212 -10.212 -10.212 -10.212 -10.211 -10.211
-10.211 -10.211 -10.211 -10.211 -10.211 -10.210 -10.210 -10.210
-10.210 -10.210 -10.210 -10.210 -10.209 -10.209 -10.209 -10.209
-10.208 -10.208 -10.208 -10.208 -10.208 -10.208 -10.208 -10.207
-10.207 -10.207 -10.207 -10.207 -10.206 -10.206 -10.206 -10.206
-10.205 -10.205 -10.205 -10.205 -10.204 -10.204 -10.203 -10.203
-10.203 -10.202 -10.202 -10.202 -10.202 -10.201 -10.200 -10.200
-10.200 -10.199 -10.197 -10.196 -10.196 -10.196 -10.196 -10.196
-10.195 -10.192 -10.190 -10.190  -1.098  -1.088  -1.007  -0.998
 -0.985  -0.982  -0.971  -0.966  -0.963  -0.960  -0.959  -0.957
 -0.941  -0.932  -0.927  -0.926  -0.925  -0.925  -0.921  -0.920
 -0.919  -0.917  -0.898  -0.894  -0.892  -0.890  -0.884  -0.881
 -0.872  -0.870  -0.854  -0.850  -0.841  -0.838  -0.838  -0.836
 -0.835  -0.833  -0.821  -0.820  -0.810  -0.805  -0.797  -0.797
 -0.794  -0.794  -0.792  -0.792  -0.791  -0.790  -0.781  -0.781
 -0.772  -0.770  -0.767  -0.766  -0.765  -0.765  -0.762  -0.761
 -0.751  -0.751  -0.746  -0.742  -0.735  -0.733  -0.718  -0.716
 -0.713  -0.713  -0.713  -0.712  -0.710  -0.708  -0.707  -0.707
 -0.706  -0.705  -0.704  -0.703  -0.702  -0.702  -0.670  -0.670
 -0.659  -0.656  -0.656  -0.653  -0.647  -0.646  -0.631  -0.630
 -0.626  -0.626  -0.624  -0.623  -0.622  -0.621  -0.614  -0.613
 -0.613  -0.611  -0.611  -0.609  -0.608  -0.608  -0.607  -0.605
 -0.604  -0.602  -0.600  -0.599  -0.568  -0.563  -0.562  -0.562
 -0.561  -0.559  -0.558  -0.557  -0.556  -0.554  -0.554  -0.550
 -0.536  -0.535  -0.532  -0.531  -0.527  -0.526  -0.525  -0.523
 -0.522  -0.521  -0.516  -0.516  -0.514  -0.514  -0.512  -0.510
 -0.508  -0.507  -0.503  -0.498  -0.496  -0.491  -0.490  -0.486
 -0.485  -0.483  -0.481  -0.479  -0.478  -0.478  -0.474  -0.473
 -0.472  -0.471  -0.470  -0.469  -0.467  -0.466  -0.466  -0.464
 -0.464  -0.463  -0.462  -0.462  -0.460  -0.459  -0.458  -0.456
 -0.456  -0.454  -0.453  -0.450  -0.446  -0.446  -0.443  -0.441
 -0.441  -0.440  -0.438  -0.437  -0.435  -0.435  -0.433  -0.431
 -0.430  -0.429  -0.429  -0.427  -0.426  -0.425  -0.423  -0.422
 -0.421  -0.421  -0.419  -0.419  -0.418  -0.418  -0.418  -0.417
 -0.416  -0.415  -0.414  -0.414  -0.413  -0.412  -0.411  -0.411
 -0.410  -0.408  -0.405  -0.404  -0.401  -0.398  -0.398  -0.397
 -0.390  -0.390  -0.389  -0.388  -0.387  -0.386  -0.382  -0.381
 -0.376  -0.375  -0.372  -0.368  -0.368  -0.367  -0.366  -0.365
 -0.362  -0.362  -0.361  -0.360  -0.358  -0.357  -0.357  -0.356
 -0.355  -0.355  -0.353  -0.352  -0.351  -0.351  -0.350  -0.349
 -0.348  -0.348  -0.346  -0.345  -0.344  -0.343  -0.341  -0.341
 -0.340  -0.340  -0.339  -0.337  -0.337  -0.336  -0.333  -0.333
 -0.332  -0.329  -0.328  -0.327  -0.326  -0.325  -0.322  -0.320
 -0.307  -0.304  -0.301  -0.298  -0.289  -0.287  -0.273  -0.271
 -0.270  -0.268  -0.266  -0.265  -0.264  -0.263  -0.262  -0.261
 -0.260  -0.259  -0.258  -0.257  -0.256  -0.255  -0.252  -0.251
 -0.248  -0.246  -0.244  -0.241  -0.223  -0.218  -0.214  -0.212
 -0.206  -0.205  -0.203  -0.202  -0.200  -0.198

          Ground-State Mulliken Net Atomic Charges

     Atom                 Charge (a.u.)
  ----------------------------------------
      1 O                    -0.466510
      2 C                    -0.096343
      3 H                     0.135960
      4 H                     0.142917
      5 H                     0.138302
      6 O                    -0.484463
      7 C                     0.612116
      8 C                    -0.276844
      9 H                     0.138373
     10 H                     0.126297
     11 C                    -0.167959
     12 H                     0.117881
     13 H                     0.117969
     14 C                    -0.202726
     15 H                     0.109030
     16 H                     0.098134
     17 C                     0.003852
     18 C                     0.074778
     19 C                    -0.105123
     20 H                     0.102370
     21 C                    -0.083672
     22 H                     0.095436
     23 C                    -0.092015
     24 H                     0.090521
     25 C                    -0.089678
     26 H                     0.090783
     27 C                    -0.112767
     28 H                     0.094098
     29 C                    -0.009736
     30 C                    -0.004642
     31 C                    -0.016332
     32 C                    -0.028777
     33 C                    -0.058836
     34 C                     0.003738
     35 C                    -0.018269
     36 C                     0.042059
     37 C                    -0.002636
     38 C                     0.005620
     39 C                    -0.088139
     40 C                     0.005725
     41 C                     0.017768
     42 C                    -0.003875
     43 C                     0.021054
     44 C                     0.026132
     45 C                    -0.040685
     46 C                     0.015779
     47 C                     0.031040
     48 C                     0.012645
     49 C                    -0.006348
     50 C                    -0.043835
     51 C                     0.011572
     52 C                     0.030249
     53 C                     0.011928
     54 C                    -0.037551
     55 C                     0.000014
     56 C                     0.023832
     57 C                    -0.004165
     58 C                    -0.019769
     59 C                     0.003967
     60 C                     0.019398
     61 C                     0.038386
     62 C                     0.026165
     63 C                     0.012822
     64 C                     0.003110
     65 C                     0.001888
     66 C                    -0.013649
     67 C                    -0.002713
     68 C                    -0.005198
     69 C                     0.008443
     70 C                     0.028447
     71 C                     0.009652
     72 C                    -0.016863
     73 C                    -0.012398
     74 C                    -0.012424
     75 C                    -0.009971
     76 C                    -0.018057
     77 C                     0.043211
     78 C                    -0.007544
     79 C                    -0.009273
     80 C                    -0.004659
     81 C                    -0.009929
     82 C                    -0.007893
     83 C                    -0.008592
     84 C                     0.008856
     85 C                     0.010166
     86 C                    -0.034288
     87 C                    -0.011650
     88 C                    -0.011401
     89 O                    -0.470331
     90 C                    -0.085887
     91 H                     0.122933
     92 H                     0.118433
     93 H                     0.134166
     94 O                    -0.499698
     95 C                     0.625314
     96 C                    -0.263020
     97 H                     0.129431
     98 H                     0.142412
     99 C                    -0.191401
    100 H                     0.120452
    101 H                     0.122312
    102 C                    -0.170975
    103 H                     0.106399
    104 H                     0.111828
    105 C                     0.003433
    106 C                     0.097383
    107 C                    -0.111753
    108 H                     0.084430
    109 C                    -0.091758
    110 H                     0.095632
    111 C                    -0.090237
    112 H                     0.090615
    113 C                    -0.090147
    114 H                     0.091317
    115 C                    -0.111484
    116 H                     0.100230
    117 C                     0.015077
    118 C                    -0.010023
    119 C                    -0.011469
    120 C                    -0.001306
    121 C                    -0.005201
    122 C                    -0.032266
    123 C                     0.021264
    124 C                    -0.000497
    125 C                    -0.015612
    126 C                     0.007803
    127 C                    -0.086595
    128 C                     0.024812
    129 C                    -0.035555
    130 C                    -0.014311
    131 C                     0.009568
    132 C                    -0.003847
    133 C                    -0.091718
    134 C                    -0.001402
    135 C                    -0.000275
    136 C                     0.001203
    137 C                    -0.013406
    138 C                     0.004881
    139 C                    -0.017789
    140 C                     0.019604
    141 C                     0.024047
    142 C                     0.006323
    143 C                     0.007783
    144 C                    -0.002156
    145 C                     0.010548
    146 C                     0.003954
    147 C                     0.001302
    148 C                     0.014854
    149 C                    -0.023098
    150 C                    -0.029637
    151 C                    -0.023462
    152 C                    -0.021322
    153 C                    -0.018427
    154 C                    -0.018300
    155 C                    -0.029113
    156 C                     0.013181
    157 C                     0.018130
    158 C                     0.013177
    159 C                     0.030224
    160 C                     0.029837
    161 C                     0.017752
    162 C                     0.010691
    163 C                     0.049549
    164 C                    -0.007432
    165 C                    -0.010127
    166 C                     0.011628
    167 C                    -0.009865
    168 C                     0.015317
    169 C                     0.023261
    170 C                     0.009809
    171 C                    -0.009135
    172 C                    -0.001798
    173 C                    -0.030963
    174 C                     0.022055
    175 C                     0.000407
    176 C                     0.013757
  ----------------------------------------
  Sum of atomic charges =     0.000000

                    Cartesian Multipole Moments
 -----------------------------------------------------------------
    Charge (ESU x 10^10)
                 0.0000
    Dipole Moment (Debye)
         X      -0.9146      Y       0.7655      Z       1.4910
       Tot       1.9093
    Quadrupole Moments (Debye-Ang)
        XX    -670.7124     XY      18.3066     YY    -807.2709
        XZ      -2.9116     YZ      12.5471     ZZ    -807.0805

 Total job time:  871.91s(wall), 8284.08s(cpu)
        *  Thank you very much for using Q-Chem.  Have a nice day.  *
