 Q-Chem 4.4, Q-Chem, Inc., Pleasanton, CA (2016)
 Q-Chem 4.4.2 for Intel X86 Linux

User input:
--------------------------------------------------------------
$comment
SP
$end

$rem
MEM_STATIC 5000
MEM_TOTAL 20000
JOBTYPE SP
EXCHANGE B3LYP
BASIS 6-31g(d,p)
$end

$molecule
0 1
O         -22.274000     32.806000     10.502000
C         -21.755000     34.200000     10.401000
H         -21.884000     34.704000     11.367000
H         -22.217000     34.764000      9.582000
H         -20.666000     34.149000     10.280000
O         -21.018000     31.965000      8.818000
C         -21.726000     31.823000      9.781000
C         -22.444000     30.569000     10.234000
H         -23.519000     30.701000     10.058000
H         -22.370000     30.491000     11.326000
C         -21.838000     29.396000      9.504000
H         -21.827000     29.614000      8.429000
H         -20.786000     29.232000      9.769000
C         -22.597000     28.116000      9.810000
H         -22.434000     27.841000     10.859000
H         -23.689000     28.223000      9.818000
C         -22.227000     26.874000      8.904000
C         -22.199000     27.214000      7.426000
C         -21.019000     27.645000      6.783000
H         -20.070000     27.743000      7.301000
C         -21.090000     28.115000      5.461000
H         -20.258000     28.526000      4.897000
C         -22.301000     28.086000      4.775000
H         -22.277000     28.433000      3.746000
C         -23.449000     27.599000      5.402000
H         -24.394000     27.617000      4.867000
C         -23.410000     27.190000      6.738000
H         -24.350000     26.965000      7.233000
C         -22.881000     21.324000      8.279000
C         -20.571000     21.719000      7.582000
C         -18.394000     19.888000     11.140000
C         -23.375000     23.348000     13.036000
C         -17.688000     23.015000     12.648000
C         -21.915000     22.144000      7.670000
C         -20.906000     23.232000     14.341000
C         -20.355000     19.124000      9.922000
C         -18.926000     24.959000      9.312000
C         -22.542000     24.463000     13.072000
C         -21.132000     25.893000      9.365000
C         -19.040000     25.565000     10.547000
C         -20.386000     25.216000     12.963000
C         -19.555000     22.889000     14.260000
C         -20.586000     23.988000      7.870000
C         -18.656000     20.810000     13.192000
C         -22.538000     25.446000      9.429000
C         -23.171000     25.153000     10.785000
C         -17.758000     21.581000     12.457000
C         -22.562000     20.024000     12.589000
C         -20.396000     19.310000     12.409000
C         -21.050000     19.084000     11.178000
C         -21.031000     19.697000      8.782000
C         -23.877000     23.895000     10.692000
C         -20.148000     25.082000      8.621000
C         -20.096000     20.521000      8.129000
C         -21.349000     24.409000     13.717000
C         -19.784000     22.858000      7.749000
C         -18.388000     24.950000     11.650000
C         -24.029000     21.678000     11.706000
C         -19.009000     19.512000      9.876000
C         -20.387000     26.048000     10.695000
C         -23.046000     20.033000     10.212000
C         -19.048000     24.818000     12.895000
C         -18.028000     23.877000      9.131000
C         -20.884000     21.015000     14.083000
C         -21.724000     22.144000     14.291000
C         -17.355000     23.319000     10.209000
C         -24.019000     23.057000     11.841000
C         -22.409000     25.353000     11.950000
C         -23.460000     21.068000     12.847000
C         -22.915000     24.175000      8.606000
C         -18.069000     21.578000      8.939000
C         -21.060000     25.793000     11.922000
C         -17.491000     23.859000     11.523000
C         -23.822000     21.156000     10.420000
C         -17.582000     21.072000     11.199000
C         -22.419000     20.160000      8.915000
C         -19.020000     19.759000     12.384000
C         -18.463000     22.788000      8.316000
C         -17.359000     21.917000     10.048000
C         -21.934000     23.550000      7.890000
C         -23.815000     23.372000      9.362000
C         -21.312000     19.971000     13.233000
C         -18.890000     20.422000      8.806000
C         -18.670000     23.609000     13.467000
C         -22.957000     22.177000     13.626000
C         -19.536000     21.482000     14.100000
C         -23.744000     21.943000      9.201000
C         -22.382000     19.486000     11.315000
O         -22.243000     16.805000      4.532000
C         -22.417000     17.483000      5.820000
H         -21.554000     18.152000      5.923000
H         -22.625000     16.860000      6.699000
H         -23.336000     18.079000      5.762000
O         -24.238000     15.706000      4.869000
C         -23.276000     15.971000      4.142000
C         -23.144000     15.510000      2.773000
H         -23.655000     14.539000      2.771000
H         -22.130000     15.140000      2.580000
C         -23.719000     16.478000      1.695000
H         -23.617000     15.949000      0.740000
H         -24.788000     16.409000      1.929000
C         -23.101000     17.873000      1.704000
H         -23.031000     18.139000      2.766000
H         -22.055000     17.880000      1.371000
C         -24.003000     18.800000      0.951000
C         -23.894000     18.589000     -0.522000
C         -22.988000     19.378000     -1.273000
H         -22.488000     20.161000     -0.710000
C         -22.805000     19.202000     -2.636000
H         -22.025000     19.702000     -3.203000
C         -23.610000     18.231000     -3.311000
H         -23.462000     18.163000     -4.385000
C         -24.626000     17.556000     -2.597000
H         -25.340000     17.056000     -3.245000
C         -24.721000     17.719000     -1.199000
H         -25.354000     17.033000     -0.644000
C         -25.815000     23.951000      0.378000
C         -27.802000     22.639000     -0.011000
C         -29.875000     23.740000      3.871000
C         -23.614000     22.720000      4.834000
C         -28.870000     20.768000      5.419000
C         -26.423000     22.804000     -0.150000
C         -25.695000     21.912000      6.537000
C         -28.614000     25.103000      2.403000
C         -27.641000     19.122000      1.947000
C         -23.879000     21.321000      4.977000
C         -25.290000     19.252000      1.635000
C         -27.053000     18.686000      3.172000
C         -25.549000     19.797000      5.272000
C         -27.100000     21.709000      6.704000
C         -26.797000     20.623000      0.213000
C         -28.930000     23.150000      5.918000
C         -24.150000     20.246000      1.448000
C         -23.510000     20.902000      2.591000
C         -29.514000     21.968000      5.305000
C         -25.874000     25.345000      4.558000
C         -28.108000     25.158000      4.774000
C         -27.836000     25.632000      3.444000
C         -27.956000     24.772000      1.202000
C         -23.446000     22.289000      2.438000
C         -26.637000     19.524000      1.063000
C         -28.534000     23.635000      0.711000
C         -24.890000     20.974000      5.774000
C         -28.082000     21.319000      0.163000
C         -27.639000     19.073000      4.373000
C         -23.976000     24.476000      3.362000
C         -29.648000     24.199000      2.578000
C         -25.680000     18.882000      3.034000
C         -25.861000     25.401000      2.107000
C         -26.936000     19.616000      5.471000
C         -28.852000     19.893000      1.999000
C         -26.671000     23.900000      6.309000
C         -25.450000     23.279000      6.360000
C         -29.467000     20.241000      3.187000
C         -23.445000     23.198000      3.528000
C         -23.916000     20.438000      3.910000
C         -24.626000     24.771000      4.547000
C         -24.505000     21.410000      0.603000
C         -29.799000     21.939000      1.733000
C         -24.934000     19.457000      4.121000
C         -28.807000     19.849000      4.370000
C         -24.608000     24.752000      2.129000
C         -30.109000     22.384000      4.097000
C         -26.597000     24.937000      1.029000
C         -29.115000     24.204000      4.968000
C         -29.066000     20.961000      1.103000
C         -30.087000     21.476000      3.043000
C         -25.779000     21.554000     -0.043000
C         -23.917000     22.563000      1.191000
C         -26.879000     25.029000      5.478000
C         -29.621000     23.279000      1.508000
C         -27.679000     20.561000      6.161000
C         -24.431000     23.680000      5.436000
C         -27.716000     23.005000      6.536000
C         -24.602000     23.869000      1.040000
C         -26.468000     25.652000      3.326000
$end

--------------------------------------------------------------

             Standard Nuclear Orientation (Angstroms)
    I     Atom           X                Y                Z
 ----------------------------------------------------------------
    1      O      -6.9328441789     8.4637515913     0.7639919967
    2      C      -7.5303445137     9.6116989167     1.5042678156
    3      H      -8.4124745604     9.9720158104     0.9603640404
    4      H      -6.8086269203    10.4162230611     1.6891072503
    5      H      -7.9454546207     9.2299927423     2.4450903257
    6      O      -5.9081768467     7.5363451283     2.5558198652
    7      C      -6.3080150712     7.4822671316     1.4217995989
    8      C      -5.9446242840     6.4741815629     0.3517717386
    9      H      -5.3182052746     6.9735390534    -0.3980724595
   10      H      -6.8500321535     6.2059736455    -0.2070888012
   11      C      -5.2823573303     5.2980620971     1.0257231346
   12      H      -4.4751549238     5.6666363020     1.6705853915
   13      H      -5.9605797055     4.7623382638     1.7016220799
   14      C      -4.7707884053     4.3020974209    -0.0011500800
   15      H      -5.6238762530     3.8280104424    -0.5012277350
   16      H      -4.2789562526     4.7547573324    -0.8713093401
   17      C      -3.8285696716     3.1657721224     0.5656732381
   18      C      -2.7373797707     3.7059140598     1.4703385284
   19      C      -2.9175912415     3.8262874279     2.8648434864
   20      H      -3.8330605251     3.5286461328     3.3666947097
   21      C      -1.9457449261     4.4953088944     3.6274377537
   22      H      -2.0151643469     4.6974674887     4.6921226116
   23      C      -0.7865571741     4.9686518490     3.0190068183
   24      H      -0.0628854580     5.4461252459     3.6733342613
   25      C      -0.5916428754     4.7881746732     1.6487373539
   26      H       0.3002008114     5.1953979556     1.1814493950
   27      C      -1.5780897921     4.1842352484     0.8639586260
   28      H      -1.4567486122     4.2014401639    -0.2150364198
   29      C      -1.2964748444    -1.7013147410    -0.6675348751
   30      C      -1.9711537765    -1.9724692794     1.6668210435
   31      C      -5.3791474670    -4.9450669673     1.1186458969
   32      C      -5.5686937883    -0.3999243519    -3.3178536013
   33      C      -7.9155584979    -2.4937603832     1.4478025664
   34      C      -1.5197402580    -1.1540095019     0.6080224660
   35      C      -7.8017406138    -1.5136464706    -2.0586606385
   36      C      -3.1944185079    -4.8306361150     0.0572289407
   37      C      -5.1806206432     0.2449050326     2.6563151525
   38      C      -6.3454226515     0.3644291540    -2.4513283615
   39      C      -4.4374087681     1.8231976333     1.0136862914
   40      C      -6.3214022012     0.6532735225     1.9950212591
   41      C      -7.5360466960     0.3848510554    -0.4996051920
   42      C      -8.2874422177    -2.2589819170    -0.9825658359
   43      C      -2.8955591909     0.1038014001     1.9239293770
   44      C      -7.2132474361    -4.3222014107    -0.0550439266
   45      C      -3.6686846851     1.8520897735    -0.2468570551
   46      C      -4.3801862096     1.5711288742    -1.5659857652
   47      C      -7.2853241257    -3.7787725627     1.2257995603
   48      C      -4.5787422457    -3.6941486761    -3.0388624808
   49      C      -5.2660931732    -5.0343050081    -1.3168631461
   50      C      -3.8715691880    -4.8397821129    -1.2090823587
   51      C      -2.1087591459    -3.8979240274     0.2477464239
   52      C      -3.5747357393     0.6411457748    -2.3249521511
   53      C      -4.0586229417     0.8643923434     2.0704392018
   54      C      -2.2821763885    -3.3299268279     1.5232524574
   55      C      -7.4368499774    -0.1740658275    -1.8504959829
   56      C      -2.8400368753    -1.1913788746     2.4280824573
   57      C      -7.3522329484    -0.3050263750     1.7975692980
   58      C      -3.6501821049    -1.5368854195    -3.4280736143
   59      C      -3.9305806684    -4.8979360532     1.2479900383
   60      C      -5.9354074948     1.5173907523     0.9115492937
   61      C      -2.4014932157    -3.1556045671    -2.1147288845
   62      C      -8.0091862593    -0.4096164189     0.5483606404
   63      C      -5.1374385653    -1.0272081764     3.2806165954
   64      C      -6.9212354897    -3.5483892848    -2.3168648339
   65      C      -7.0291386226    -2.2554791279    -2.9001702771
   66      C      -6.1755195979    -1.9352204402     3.1248010036
   67      C      -4.1885440127    -0.2749312432    -3.2341558138
   68      C      -5.7652772466     1.3276933560    -1.5545416609
   69      C      -4.6732583929    -2.4695729932    -3.7129434067
   70      C      -2.4220918081     0.9179093513    -0.3374779020
   71      C      -4.2551237932    -3.1283776767     2.9192948916
   72      C      -6.5335769780     1.3051024261    -0.3614824953
   73      C      -7.3499795001    -1.5936892201     2.3894831377
   74      C      -2.5386884013    -1.8890446842    -2.6472441839
   75      C      -6.1856448496    -4.1131486715     1.9684428850
   76      C      -1.6844131521    -3.0368135809    -0.8644681581
   77      C      -6.0527423387    -5.0577266131    -0.1018584059
   78      C      -3.9250111744    -1.7740593432     3.1728940051
   79      C      -5.6117503260    -3.2164935077     2.9457911304
   80      C      -2.1218148653     0.1291897953     0.7364854212
   81      C      -2.3564047002     0.3419808973    -1.6376073647
   82      C      -5.6973858991    -4.2500371321    -2.3910435236
   83      C      -3.3923006728    -3.9196394891     2.1084268337
   84      C      -8.2901005552    -1.7498063191     0.3101859360
   85      C      -5.8954492894    -1.7204630150    -3.5263565551
   86      C      -7.7341454332    -3.5525343965    -1.1444134525
   87      C      -1.8208359320    -0.9887991370    -1.7608696655
   88      C      -3.4590227625    -4.0543622620    -2.2895998757
   89      O       2.8448673397    -5.5354226661     1.0695072465
   90      C       1.6678261307    -5.0487545362     0.3438130110
   91      H       0.9585189194    -4.7206971393     1.1133587370
   92      H       1.2410454007    -5.7004767130    -0.4289420684
   93      H       1.9794775442    -4.1856697836    -0.2571022129
   94      O       3.8767992539    -5.9666133488    -0.9430995506
   95      C       3.9222785892    -5.9172130914     0.2896572156
   96      C       5.1194424681    -6.1751172075     1.0670825265
   97      H       5.6675429005    -6.9148938622     0.4701885517
   98      H       4.8975821374    -6.8187762217     1.9266324478
   99      C       5.9840694467    -4.9164170290     1.3798556845
  100      H       6.8780044184    -5.2930268391     1.8910457834
  101      H       6.3338221319    -4.6708792130     0.3700724206
  102      C       5.2481153822    -3.8169100950     2.1397807580
  103      H       4.2636614425    -3.7582122453     1.6592550012
  104      H       5.0095613318    -4.0972825317     3.1739651041
  105      C       6.0185145716    -2.5414474566     1.9997016844
  106      C       7.2352504294    -2.5423536678     2.8632316670
  107      C       7.1668492362    -1.9822156788     4.1628180282
  108      H       6.2228343130    -1.5023269991     4.4048938010
  109      C       8.2468618976    -1.9917388456     5.0321372794
  110      H       8.1778881796    -1.6892240896     6.0731062744
  111      C       9.4885441584    -2.5305156679     4.5690652559
  112      H      10.3160255329    -2.4733168411     5.2704972691
  113      C       9.6057500995    -2.9428305966     3.2222407807
  114      H      10.6365814704    -3.0759852570     2.9070320860
  115      C       8.4582854080    -2.9794652651     2.4024965017
  116      H       8.5226300595    -3.5012725604     1.4522928854
  117      C       5.7884674763     2.9411741769     1.8196673602
  118      C       7.4757768413     2.4226795429     0.1749836760
  119      C       4.9706416976     3.5124548681    -3.4466377361
  120      C       1.4500947984     0.3795097068     0.9074745898
  121      C       4.1271432660     0.1711059715    -4.0491416335
  122      C       6.8680561322     2.1512559229     1.4018462429
  123      C       1.3170939046     0.0331942175    -1.8756909360
  124      C       5.1400172062     4.6055032176    -1.3539191112
  125      C       6.8746282932    -1.2177590236    -1.4420510999
  126      C       1.8912116731    -0.8620603671     0.3490888321
  127      C       5.9463434908    -1.8098595565     0.6625033148
  128      C       5.7202103572    -2.0074812280    -1.7251112858
  129      C       2.9297905289    -1.7885031223    -1.4568897895
  130      C       1.9262139936     0.2732045775    -3.1463170589
  131      C       7.4221252708     0.1810054831     0.4855894045
  132      C       3.0173471229     2.3342519950    -3.9239345978
  133      C       5.2398268042    -1.2229185236     1.8786198370
  134      C       3.7921861550    -0.9979620059     1.8893955431
  135      C       4.1655350087     1.5172472080    -4.2818686097
  136      C       1.9699481280     3.6044078000    -0.2775088717
  137      C       2.9373404844     4.1204692783    -2.2447947124
  138      C       3.7476521102     4.6832539504    -1.1987409462
  139      C       5.9039896695     4.2719265281    -0.2181380286
  140      C       3.4607078131     0.2991620298     2.2879747007
  141      C       6.9860852121    -1.0295284718    -0.0624777548
  142      C       6.9356481462     3.4757994455    -0.6302016838
  143      C       1.8374593862    -0.9830550973    -0.9776402159
  144      C       7.8745940315     1.2548010462    -0.3977995864
  145      C       4.9040335517    -1.6450126017    -2.7918998858
  146      C       2.2916834215     2.3660823371     1.7598957147
  147      C       5.7771764878     4.0700297624    -2.4603969595
  148      C       5.1050799211    -2.2481980597    -0.4978138672
  149      C       3.9515505501     4.0372523978     1.0996633742
  150      C       3.4972267915    -1.5388312019    -2.7264609849
  151      C       7.1846470565    -0.1140105894    -2.3076686600
  152      C       1.3685007388     2.2399728558    -2.1658449967
  153      C       0.9233377626     1.2567368345    -1.3207652069
  154      C       6.4051769137     0.2235219698    -3.3981598649
  155      C       2.2896497331     0.9756573142     1.8574411902
  156      C       3.0529897469    -1.5062391440     0.7426017424
  157      C       1.5479528652     2.6659945623     0.6326568239
  158      C       5.7466930724     0.1106977254     2.2779947067
  159      C       7.2352402229     2.1434354496    -2.5423145910
  160      C       3.6765375469    -2.1243821334    -0.3853580910
  161      C       5.2365952858    -0.5419081959    -3.5912573546
  162      C       3.5231354094     3.0220732893     1.9814603150
  163      C       5.3155864930     2.2879133078    -4.0176710583
  164      C       5.3338125608     4.0123264766     1.0113093586
  165      C       3.5611614407     3.5266152299    -3.3493243787
  166      C       7.6940972656     1.0923379620    -1.7838178633
  167      C       6.4456986852     1.5992404817    -3.5882060754
  168      C       6.8507301963     0.7595714987     1.6290009815
  169      C       4.6259080850     0.9032780860     2.6475273631
  170      C       1.8031433505     3.4910739451    -1.6615654469
  171      C       6.9216270863     3.3710535475    -2.0202900647
  172      C       3.0042735528    -0.5246952335    -3.5325002779
  173      C       1.0605277972     1.4454507341     0.0929193260
  174      C       1.9657099021     1.7082976661    -3.3083167504
  175      C       4.6819938464     2.3674050754     2.4220311411
  176      C       3.1725866129     4.2768377109    -0.0198119772
 ----------------------------------------------------------------

    9   -5804.2852525265      8.72E-06 Convergence criterion met
 Total energy in the final basis set = -5804.2852525265

                    Orbital Energies (a.u.)
 --------------------------------------------------------------

 Alpha MOs
 -- Occupied --
-19.191 -19.191 -19.138 -19.133 -10.313 -10.312 -10.252 -10.243
-10.240 -10.239 -10.238 -10.237 -10.237 -10.235 -10.232 -10.232
-10.231 -10.230 -10.229 -10.228 -10.225 -10.225 -10.225 -10.225
-10.225 -10.223 -10.223 -10.223 -10.222 -10.221 -10.221 -10.221
-10.221 -10.221 -10.220 -10.220 -10.220 -10.220 -10.220 -10.220
-10.220 -10.220 -10.219 -10.219 -10.219 -10.219 -10.219 -10.218
-10.218 -10.218 -10.218 -10.218 -10.218 -10.217 -10.217 -10.217
-10.217 -10.217 -10.217 -10.217 -10.217 -10.216 -10.216 -10.216
-10.216 -10.216 -10.215 -10.215 -10.215 -10.215 -10.215 -10.215
-10.215 -10.215 -10.215 -10.215 -10.215 -10.214 -10.214 -10.214
-10.214 -10.214 -10.214 -10.214 -10.213 -10.213 -10.213 -10.213
-10.213 -10.213 -10.213 -10.212 -10.212 -10.212 -10.212 -10.212
-10.212 -10.212 -10.212 -10.211 -10.211 -10.211 -10.211 -10.211
-10.211 -10.211 -10.211 -10.211 -10.210 -10.210 -10.210 -10.210
-10.209 -10.209 -10.209 -10.209 -10.209 -10.209 -10.208 -10.208
-10.208 -10.208 -10.208 -10.208 -10.208 -10.208 -10.207 -10.207
-10.206 -10.206 -10.205 -10.205 -10.204 -10.202 -10.201 -10.201
-10.200 -10.200 -10.200 -10.199 -10.198 -10.198 -10.198 -10.193
-10.193 -10.192 -10.190 -10.187  -1.098  -1.081  -1.015  -0.999
 -0.984  -0.979  -0.967  -0.964  -0.962  -0.962  -0.958  -0.957
 -0.934  -0.929  -0.929  -0.927  -0.925  -0.924  -0.922  -0.921
 -0.919  -0.917  -0.898  -0.893  -0.891  -0.888  -0.888  -0.881
 -0.878  -0.868  -0.853  -0.850  -0.844  -0.839  -0.838  -0.837
 -0.837  -0.833  -0.824  -0.817  -0.810  -0.807  -0.800  -0.799
 -0.795  -0.793  -0.792  -0.792  -0.791  -0.789  -0.782  -0.780
 -0.774  -0.771  -0.770  -0.767  -0.766  -0.764  -0.762  -0.761
 -0.750  -0.748  -0.744  -0.743  -0.731  -0.731  -0.717  -0.715
 -0.714  -0.714  -0.713  -0.712  -0.711  -0.710  -0.709  -0.708
 -0.707  -0.705  -0.704  -0.703  -0.702  -0.701  -0.675  -0.668
 -0.659  -0.657  -0.657  -0.653  -0.650  -0.643  -0.632  -0.629
 -0.628  -0.627  -0.625  -0.625  -0.622  -0.619  -0.618  -0.617
 -0.616  -0.614  -0.612  -0.612  -0.610  -0.610  -0.609  -0.606
 -0.606  -0.605  -0.604  -0.599  -0.566  -0.564  -0.562  -0.561
 -0.560  -0.558  -0.557  -0.557  -0.556  -0.555  -0.553  -0.551
 -0.538  -0.534  -0.532  -0.531  -0.530  -0.529  -0.527  -0.523
 -0.522  -0.520  -0.519  -0.517  -0.516  -0.515  -0.514  -0.513
 -0.507  -0.505  -0.504  -0.497  -0.494  -0.493  -0.488  -0.485
 -0.484  -0.481  -0.480  -0.480  -0.478  -0.475  -0.475  -0.474
 -0.473  -0.471  -0.468  -0.468  -0.467  -0.467  -0.466  -0.466
 -0.465  -0.464  -0.463  -0.463  -0.461  -0.459  -0.458  -0.457
 -0.455  -0.452  -0.451  -0.448  -0.447  -0.447  -0.446  -0.443
 -0.441  -0.440  -0.439  -0.439  -0.437  -0.436  -0.433  -0.433
 -0.431  -0.430  -0.428  -0.428  -0.426  -0.426  -0.424  -0.424
 -0.423  -0.422  -0.421  -0.420  -0.420  -0.419  -0.418  -0.418
 -0.417  -0.417  -0.415  -0.415  -0.414  -0.414  -0.413  -0.412
 -0.411  -0.409  -0.408  -0.407  -0.404  -0.401  -0.398  -0.396
 -0.394  -0.391  -0.391  -0.390  -0.389  -0.385  -0.384  -0.381
 -0.376  -0.375  -0.375  -0.370  -0.370  -0.370  -0.367  -0.366
 -0.365  -0.364  -0.364  -0.361  -0.361  -0.359  -0.359  -0.357
 -0.355  -0.355  -0.355  -0.354  -0.354  -0.352  -0.351  -0.349
 -0.348  -0.348  -0.346  -0.346  -0.345  -0.345  -0.345  -0.343
 -0.342  -0.341  -0.340  -0.339  -0.338  -0.337  -0.336  -0.333
 -0.332  -0.331  -0.330  -0.329  -0.327  -0.326  -0.325  -0.322
 -0.309  -0.305  -0.300  -0.294  -0.289  -0.288  -0.275  -0.273
 -0.272  -0.269  -0.267  -0.266  -0.266  -0.266  -0.264  -0.263
 -0.263  -0.261  -0.259  -0.258  -0.256  -0.255  -0.254  -0.252
 -0.249  -0.248  -0.244  -0.243  -0.223  -0.222  -0.213  -0.212
 -0.209  -0.207  -0.205  -0.202  -0.199  -0.197

          Ground-State Mulliken Net Atomic Charges

     Atom                 Charge (a.u.)
  ----------------------------------------
      1 O                    -0.474511
      2 C                    -0.094916
      3 H                     0.128426
      4 H                     0.135485
      5 H                     0.135368
      6 O                    -0.466232
      7 C                     0.607472
      8 C                    -0.270734
      9 H                     0.142055
     10 H                     0.128446
     11 C                    -0.176056
     12 H                     0.139964
     13 H                     0.107805
     14 C                    -0.182785
     15 H                     0.104147
     16 H                     0.103120
     17 C                    -0.008172
     18 C                     0.079389
     19 C                    -0.107382
     20 H                     0.095592
     21 C                    -0.087170
     22 H                     0.092518
     23 C                    -0.078154
     24 H                     0.087971
     25 C                    -0.090515
     26 H                     0.089105
     27 C                    -0.101837
     28 H                     0.092589
     29 C                    -0.009252
     30 C                     0.007640
     31 C                     0.002129
     32 C                    -0.001371
     33 C                    -0.009822
     34 C                     0.001942
     35 C                     0.005504
     36 C                    -0.001816
     37 C                     0.030239
     38 C                     0.006291
     39 C                    -0.071454
     40 C                    -0.003672
     41 C                    -0.024277
     42 C                     0.002477
     43 C                    -0.001075
     44 C                     0.022337
     45 C                    -0.086312
     46 C                     0.016138
     47 C                    -0.010510
     48 C                     0.020703
     49 C                    -0.039376
     50 C                     0.020108
     51 C                    -0.030359
     52 C                     0.010083
     53 C                     0.031039
     54 C                     0.002328
     55 C                    -0.012372
     56 C                    -0.006983
     57 C                    -0.008265
     58 C                     0.007852
     59 C                    -0.035350
     60 C                     0.003904
     61 C                    -0.009467
     62 C                    -0.007791
     63 C                    -0.006665
     64 C                    -0.013467
     65 C                     0.009169
     66 C                     0.001868
     67 C                     0.002153
     68 C                    -0.008983
     69 C                    -0.048336
     70 C                     0.020030
     71 C                     0.017347
     72 C                     0.024632
     73 C                    -0.009886
     74 C                     0.018364
     75 C                     0.002319
     76 C                    -0.017435
     77 C                    -0.007459
     78 C                    -0.032567
     79 C                    -0.004662
     80 C                     0.037433
     81 C                    -0.010277
     82 C                     0.023326
     83 C                     0.033605
     84 C                     0.025227
     85 C                     0.008729
     86 C                    -0.020842
     87 C                    -0.004937
     88 C                     0.006562
     89 O                    -0.471435
     90 C                    -0.096538
     91 H                     0.123884
     92 H                     0.137239
     93 H                     0.127145
     94 O                    -0.482701
     95 C                     0.600105
     96 C                    -0.263686
     97 H                     0.131395
     98 H                     0.120974
     99 C                    -0.196062
    100 H                     0.117296
    101 H                     0.123474
    102 C                    -0.180983
    103 H                     0.127447
    104 H                     0.117365
    105 C                     0.022504
    106 C                     0.110700
    107 C                    -0.104525
    108 H                     0.089172
    109 C                    -0.089679
    110 H                     0.094378
    111 C                    -0.089904
    112 H                     0.090635
    113 C                    -0.096128
    114 H                     0.097119
    115 C                    -0.118991
    116 H                     0.090869
    117 C                     0.015526
    118 C                     0.029541
    119 C                     0.015071
    120 C                    -0.021585
    121 C                     0.024922
    122 C                    -0.018091
    123 C                    -0.005350
    124 C                     0.008341
    125 C                    -0.003028
    126 C                     0.010843
    127 C                    -0.075612
    128 C                    -0.005210
    129 C                    -0.032534
    130 C                    -0.022867
    131 C                    -0.020492
    132 C                    -0.035778
    133 C                    -0.087802
    134 C                    -0.006626
    135 C                     0.002213
    136 C                     0.010893
    137 C                    -0.028240
    138 C                    -0.028895
    139 C                     0.007148
    140 C                     0.058021
    141 C                     0.052265
    142 C                     0.009933
    143 C                     0.023035
    144 C                    -0.038173
    145 C                     0.018611
    146 C                    -0.010629
    147 C                    -0.003688
    148 C                     0.021904
    149 C                    -0.007379
    150 C                     0.001754
    151 C                    -0.009529
    152 C                     0.009054
    153 C                    -0.000518
    154 C                    -0.002998
    155 C                     0.007962
    156 C                    -0.018013
    157 C                     0.015994
    158 C                     0.027357
    159 C                     0.015354
    160 C                     0.013720
    161 C                    -0.005769
    162 C                    -0.001103
    163 C                    -0.002140
    164 C                    -0.019849
    165 C                     0.012442
    166 C                     0.007518
    167 C                    -0.010177
    168 C                     0.018741
    169 C                    -0.035801
    170 C                    -0.026377
    171 C                    -0.021144
    172 C                    -0.008750
    173 C                     0.004634
    174 C                     0.029146
    175 C                    -0.023618
    176 C                     0.037323
  ----------------------------------------
  Sum of atomic charges =     0.000000

                    Cartesian Multipole Moments
 -----------------------------------------------------------------
    Charge (ESU x 10^10)
                 0.0000
    Dipole Moment (Debye)
         X       0.2953      Y       3.0007      Z       2.1237
       Tot       3.6880
    Quadrupole Moments (Debye-Ang)
        XX    -775.3166     XY     -37.1537     YY    -786.8953
        XZ      20.4601     YZ     -14.3493     ZZ    -807.5388

 Total job time:  875.72s(wall), 8349.84s(cpu)
        *  Thank you very much for using Q-Chem.  Have a nice day.  *
