 Q-Chem 4.4, Q-Chem, Inc., Pleasanton, CA (2016)
 Q-Chem 4.4.2 for Intel X86 Linux

User input:
--------------------------------------------------------------
$comment
SP
$end

$rem
MEM_STATIC 5000
MEM_TOTAL 20000
JOBTYPE SP
EXCHANGE B3LYP
BASIS 6-31g(d,p)
$end

$molecule
0 1
O         -18.260000     -4.137000     10.603000
C         -19.583000     -3.540000     10.525000
H         -19.945000     -3.267000     11.524000
H         -20.359000     -4.195000     10.110000
H         -19.447000     -2.602000      9.972000
O         -18.905000     -6.191000     11.278000
C         -18.015000     -5.422000     11.003000
C         -16.597000     -5.872000     10.981000
H         -16.469000     -6.604000     11.788000
H         -15.900000     -5.046000     11.171000
C         -16.164000     -6.467000      9.610000
H         -16.374000     -5.719000      8.836000
H         -15.090000     -6.643000      9.469000
C         -16.874000     -7.815000      9.509000
H         -16.440000     -8.450000     10.292000
H         -17.920000     -7.721000      9.827000
C         -16.902000     -8.414000      8.125000
C         -17.773000     -7.574000      7.241000
C         -17.139000     -6.541000      6.475000
H         -16.060000     -6.423000      6.475000
C         -17.977000     -5.552000      5.914000
H         -17.613000     -4.710000      5.334000
C         -19.398000     -5.682000      5.899000
H         -19.973000     -4.885000      5.435000
C         -20.005000     -6.749000      6.491000
H         -21.091000     -6.740000      6.488000
C         -19.218000     -7.675000      7.242000
H         -19.549000     -8.582000      7.741000
C         -17.186000    -13.210000      5.509000
C         -15.767000    -11.828000      4.103000
C         -11.946000    -13.902000      4.923000
C         -15.441000    -13.287000     10.235000
C         -10.857000    -11.519000      7.327000
C         -16.818000    -11.983000      5.048000
C         -12.649000    -13.078000      9.999000
C         -14.104000    -14.845000      4.504000
C         -13.753000     -8.969000      6.228000
C         -14.789000    -12.083000     10.380000
C         -15.661000     -9.065000      7.688000
C         -13.290000     -9.074000      7.524000
C         -13.077000    -10.696000      9.771000
C         -11.553000    -12.931000      9.210000
C         -15.841000     -9.956000      5.325000
C         -11.209000    -13.960000      7.048000
C         -16.830000     -9.903000      8.131000
C         -16.558000    -10.862000      9.272000
C         -10.815000    -12.691000      6.499000
C         -14.610000    -15.831000      7.907000
C         -12.883000    -15.600000      6.475000
C         -14.007000    -15.611000      5.732000
C         -15.333000    -14.218000      4.209000
C         -17.133000    -12.123000      8.886000
C         -15.151000     -9.149000      6.267000
C         -14.981000    -12.957000      3.748000
C         -13.403000    -11.964000     10.267000
C         -15.172000    -10.577000      4.276000
C         -12.077000     -9.732000      7.819000
C         -16.555000    -14.491000      8.607000
C         -13.082000    -13.998000      4.141000
C         -14.399000     -9.157000      8.436000
C         -16.315000    -15.093000      6.219000
C         -11.976000    -10.546000      8.950000
C         -13.075000     -9.734000      5.167000
C         -12.557000    -14.988000      8.789000
C         -13.292000    -14.357000      9.829000
C         -11.838000    -10.371000      5.427000
C         -16.558000    -13.338000      9.371000
C         -15.343000    -10.900000      9.895000
C         -15.351000    -15.170000      8.922000
C         -17.357000    -10.792000      7.118000
C         -12.921000    -11.579000      3.909000
C         -14.306000    -10.065000      9.487000
C         -11.348000    -10.382000      6.762000
C         -17.039000    -14.461000      7.287000
C         -11.287000    -12.665000      5.181000
C         -16.447000    -14.308000      5.083000
C         -11.920000    -14.668000      6.092000
C         -13.777000    -10.476000      4.191000
C         -11.771000    -11.521000      4.646000
C         -16.867000    -10.812000      5.849000
C         -17.647000    -12.126000      7.598000
C         -13.210000    -15.708000      7.813000
C         -13.591000    -12.807000      3.660000
C         -11.265000    -11.670000      8.655000
C         -14.683000    -14.436000      9.940000
C         -11.575000    -14.018000      8.381000
C         -17.619000    -13.300000      6.796000
C         -15.120000    -15.798000      6.567000
O         -15.788000    -17.740000      2.841000
C         -14.409000    -17.601000      2.497000
H         -13.836000    -18.170000      3.239000
H         -13.993000    -16.586000      2.516000
H         -14.210000    -17.946000      1.475000
O         -16.457000    -15.936000      1.550000
C         -16.672000    -16.864000      2.335000
C         -18.089000    -17.346000      2.702000
H         -18.106000    -18.410000      2.434000
H         -18.709000    -16.775000      2.000000
C         -18.462000    -17.052000      4.195000
H         -17.600000    -17.412000      4.769000
H         -18.568000    -15.970000      4.347000
C         -19.822000    -17.738000      4.643000
H         -20.705000    -17.276000      4.183000
H         -19.937000    -18.779000      4.317000
C         -19.909000    -17.822000      6.155000
C         -18.859000    -18.780000      6.815000
C         -17.700000    -18.269000      7.360000
H         -17.473000    -17.217000      7.213000
C         -16.962000    -18.977000      8.298000
H         -16.110000    -18.539000      8.809000
C         -17.237000    -20.336000      8.506000
H         -16.548000    -21.048000      8.951000
C         -18.429000    -20.840000      7.941000
H         -18.716000    -21.884000      8.035000
C         -19.225000    -20.086000      7.074000
H         -20.161000    -20.487000      6.697000
C         -23.306000    -18.694000     10.359000
C         -21.689000    -17.151000     11.300000
C         -24.540000    -13.440000     11.498000
C         -25.379000    -16.857000      6.076000
C         -23.274000    -12.116000      8.421000
C         -21.992000    -18.184000     10.422000
C         -25.402000    -14.064000      6.343000
C         -24.900000    -15.803000     11.992000
C         -20.208000    -14.749000      8.451000
C         -24.413000    -16.077000      5.475000
C         -20.434000    -16.555000      6.866000
C         -20.757000    -14.290000      7.294000
C         -23.112000    -14.202000      5.610000
C         -25.131000    -12.952000      7.159000
C         -20.471000    -16.876000      9.374000
C         -25.424000    -12.628000      9.539000
C         -21.288000    -17.806000      6.808000
C         -22.654000    -17.683000      6.110000
C         -24.083000    -12.201000      9.606000
C         -26.865000    -16.348000      9.265000
C         -26.442000    -14.566000     10.561000
C         -26.049000    -15.761000     11.215000
C         -24.031000    -16.925000     11.937000
C         -23.659000    -18.458000      6.778000
C         -20.079000    -16.095000      8.223000
C         -22.664000    -16.513000     12.066000
C         -24.414000    -14.680000      5.571000
C         -20.763000    -16.342000     10.608000
C         -21.629000    -13.150000      7.313000
C         -25.733000    -18.053000      7.937000
C         -24.114000    -14.676000     12.124000
C         -20.981000    -15.318000      6.302000
C         -25.473000    -17.929000     10.331000
C         -22.794000    -13.095000      6.440000
C         -20.556000    -14.167000      9.639000
C         -26.686000    -14.214000      8.167000
C         -26.410000    -14.830000      6.968000
C         -21.403000    -13.032000      9.678000
C         -25.023000    -18.011000      6.755000
C         -23.033000    -16.452000      5.511000
C         -26.615000    -16.922000      8.037000
C         -21.725000    -18.548000      8.044000
C         -21.829000    -14.305000     11.558000
C         -22.249000    -15.305000      5.656000
C         -21.952000    -12.454000      8.497000
C         -25.178000    -18.492000      9.103000
C         -23.502000    -12.743000     10.804000
C         -24.340000    -17.966000     11.040000
C         -25.711000    -13.409000     10.662000
C         -20.788000    -14.939000     10.770000
C         -22.157000    -13.126000     10.823000
C         -21.279000    -18.021000      9.209000
C         -23.085000    -19.013000      7.937000
C         -26.975000    -14.954000      9.292000
C         -22.763000    -15.086000     12.237000
C         -23.818000    -12.470000      7.200000
C         -26.427000    -16.216000      6.851000
C         -25.927000    -13.042000      8.282000
C         -23.895000    -19.084000      9.109000
C         -26.386000    -16.877000     10.431000
$end

--------------------------------------------------------------

             Standard Nuclear Orientation (Angstroms)
    I     Atom           X                Y                Z
 ----------------------------------------------------------------
    1      O       4.3459472015    -8.8877928260    -0.3599479628
    2      C       3.4831102267    -9.8846204217     0.2521542339
    3      H       3.1492858786   -10.6183812141    -0.4919764025
    4      H       2.5609254243    -9.4859800827     0.6927073753
    5      H       4.1210390302   -10.4248023917     0.9630686318
    6      O       2.7246189352    -7.6479709800    -1.3215624609
    7      C       3.9002587925    -7.8491543404    -1.1305593683
    8      C       4.9292567188    -6.9032003369    -1.6405027876
    9      H       4.5807139697    -6.5251203033    -2.6095386178
   10      H       5.8953870095    -7.3962978175    -1.8067319554
   11      C       5.2287368674    -5.7349496814    -0.6573155997
   12      H       5.5084548905    -6.1707081816     0.3094068822
   13      H       6.1033376770    -5.1129965807    -0.8866205588
   14      C       3.9941897470    -4.8376421439    -0.7035496886
   15      H       3.9612779701    -4.4126327218    -1.7149614771
   16      H       3.0798078830    -5.4431280737    -0.6665551556
   17      C       3.8918007478    -3.8425493773     0.4253204893
   18      C       3.6543456064    -4.5762658310     1.7102221281
   19      C       4.8019553568    -4.9241287727     2.4962146438
   20      H       5.7977981110    -4.5997318815     2.2112078616
   21      C       4.6157722297    -5.8874612009     3.5122916468
   22      H       5.4115236553    -6.2470791010     4.1567407407
   23      C       3.3183551426    -6.3307462371     3.9079850618
   24      H       3.2575096308    -7.0633262750     4.7084563679
   25      C       2.2037956164    -5.8807124203     3.2656233053
   26      H       1.2616734054    -6.3141795960     3.5881104325
   27      C       2.3472292451    -5.0592856781     2.1056530896
   28      H       1.5616819872    -4.6024893653     1.5094453790
   29      C       1.7836371927     1.0458918052     1.6840965737
   30      C       3.8722598982     0.9424944752     2.9199303757
   31      C       6.1138382859     3.9026111724     0.5143218309
   32      C       2.5787510439     0.0912251265    -3.1987750707
   33      C       7.8264408098     1.4477810260    -1.4052165374
   34      C       2.7455229979     0.3193084531     2.3168100398
   35      C       5.1449933384     1.0972779638    -3.7436596223
   36      C       3.8527494412     4.0029454420     1.2883917701
   37      C       6.6545928887    -1.4505318850     1.1094746404
   38      C       3.6889743704    -0.7229874993    -3.2131613575
   39      C       4.7331083878    -2.6464084476     0.2976516550
   40      C       6.8198742590    -1.6474928452    -0.2465852583
   41      C       5.9189807823    -1.0030941903    -2.7957818605
   42      C       6.2844387102     1.6886138483    -3.2994388254
   43      C       4.5046363492    -1.1107744430     2.2975713363
   44      C       6.4189052768     3.4744028502    -1.6733092540
   45      C       3.2574396958    -2.5571941189     0.0157000364
   46      C       2.8795147475    -2.0510878011    -1.3614619470
   47      C       7.4359479655     2.7542849539    -0.9563347881
   48      C       2.4536117210     3.4095872895    -1.9518213005
   49      C       4.2763382389     4.4100344726    -1.0781580502
   50      C       3.3998019082     4.2456364243    -0.0681068917
   51      C       3.1175787256     3.0960253329     2.0806132887
   52      C       1.8449609581    -1.0714143254    -1.1622627053
   53      C       5.3459612519    -1.8619816822     1.4358445282
   54      C       4.0814141667     2.3343988303     2.7267497393
   55      C       4.9694275749    -0.2379594112    -3.4835561521
   56      C       4.9506790850     0.0560202794     2.9085041915
   57      C       7.5266007137    -0.7206467728    -1.0421052619
   58      C       1.2823288873     1.2590836012    -1.6833899134
   59      C       5.1927899296     3.8194548561     1.5419360350
   60      C       5.6810595312    -2.3424582859    -0.7838357138
   61      C       1.5587973113     2.7244544158     0.2911484089
   62      C       7.0688610471    -0.4007796614    -2.3227759568
   63      C       7.0429000248    -0.1540900038     1.6917855682
   64      C       4.5087880245     3.1854277448    -3.1473901443
   65      C       4.0111971600     1.9874781201    -3.7281706779
   66      C       7.7854803428     0.7770647771     0.9268912975
   67      C       1.7072835945     0.0070796909    -2.0896087035
   68      C       3.8299962669    -1.7661640736    -2.3001852027
   69      C       1.9684689222     2.1929319885    -2.5001034752
   70      C       2.5302427060    -1.6469344499     0.8740885690
   71      C       6.4981495483     1.9207897539     2.3308676517
   72      C       5.1840740733    -1.9173673375    -2.0126632608
   73      C       8.0125590402     0.4971479228    -0.4488004630
   74      C       1.0671747983     1.5198772616    -0.3183802487
   75      C       7.2290929451     3.0224570088     0.4022964162
   76      C       1.9766811739     2.4187296570     1.5780246458
   77      C       5.6076094273     4.1386853151    -0.7670814397
   78      C       6.2264726824     0.5497024735     2.6050580049
   79      C       7.4202058696     2.0578279083     1.3308348099
   80      C       3.1333886331    -0.9793563649     1.8945862374
   81      C       1.5835491641    -0.8060571921     0.1735510788
   82      C       3.7453657721     3.8898786478    -2.2427795154
   83      C       5.3761992200     2.7857599360     2.4401335881
   84      C       7.2062066179     0.9357552613    -2.5480149288
   85      C       2.7453809905     1.4673791133    -3.4441822132
   86      C       5.8780429255     2.8984357247    -2.8090639755
   87      C       1.1761190868     0.4872498762     0.6020619411
   88      C       2.2201144769     3.6648413109    -0.5600190798
   89      O       1.2738068005     6.3893954614     2.5675951008
   90      C       2.5912435398     6.9381348593     2.5171618646
   91      H       2.7163601201     7.3767729990     1.5198673125
   92      H       3.4257477244     6.2364551378     2.6391878216
   93      H       2.7526571266     7.6770059563     3.3115957234
   94      O       1.7226553142     5.0667589344     4.4163313257
   95      C       0.9866505761     5.4836891392     3.5173873732
   96      C      -0.5276594145     5.2017770123     3.4695041291
   97      H      -1.0008672013     6.1916274342     3.4476058921
   98      H      -0.6986565415     4.7285328785     4.4442066336
   99      C      -0.9333953145     4.2676289260     2.2789749474
  100      H      -0.4340681779     4.7037723798     1.4057216632
  101      H      -0.5420613845     3.2560701965     2.4482991691
  102      C      -2.5052319511     4.1514076257     2.0873445817
  103      H      -2.9918197425     3.5796022347     2.8879717833
  104      H      -3.0446507835     5.1042151574     2.1534288527
  105      C      -2.8411615253     3.6425033496     0.6984829043
  106      C      -2.4701199209     4.6272303302    -0.4627685333
  107      C      -1.3003566142     4.4540144020    -1.1720477791
  108      H      -0.5890785868     3.7066588406    -0.8323637604
  109      C      -1.1250130355     5.0043243383    -2.4338582258
  110      H      -0.2520600929     4.7844240361    -3.0408722431
  111      C      -2.0305980522     5.9704157784    -2.8946760930
  112      H      -1.8278474470     6.6827877490    -3.6890993854
  113      C      -3.2229366811     6.1319574448    -2.1555293659
  114      H      -3.9750417197     6.8680895332    -2.4268014791
  115      C      -3.4377033051     5.4943181324    -0.9303304414
  116      H      -4.3861545492     5.6015396687    -0.4126724658
  117      C      -6.8243247750     1.5270880570    -2.4052306241
  118      C      -4.8305480103     0.5182535070    -3.3476350295
  119      C      -5.6096910587    -3.8123387327    -1.7420718997
  120      C      -7.1471075641     0.7045179633     2.6182319976
  121      C      -3.4375488120    -3.3237073287     1.0626916216
  122      C      -5.4495119790     1.5896252678    -2.7161066014
  123      C      -5.9001478620    -1.7628751406     3.0975333352
  124      C      -7.1006134668    -2.1338303367    -2.6997591858
  125      C      -2.0001949034     0.0974722131    -0.5383984085
  126      C      -5.8524602814     0.6415759449     3.0901257525
  127      C      -2.8102374034     2.1080080929     0.5229750526
  128      C      -2.0952196432    -0.0889166849     0.8058338920
  129      C      -3.8612235122    -0.4813364953     3.0678820848
  130      C      -5.2630868577    -2.8912574816     2.5527879183
  131      C      -3.3588491241     1.4596914121    -1.8588697495
  132      C      -5.7145844613    -4.1394779918     0.5295923094
  133      C      -4.1312453820     2.8511537630     0.5041752240
  134      C      -5.1626693498     2.4620551462     1.5779796126
  135      C      -4.3556280259    -3.9975787022     0.1857885889
  136      C      -8.6702926255    -1.4611561053     0.2461525096
  137      C      -7.6575248258    -3.2696379168    -0.6127793394
  138      C      -7.9691967451    -2.3406056893    -1.6374498888
  139      C      -6.8596376302    -0.8234975124    -3.1917231436
  140      C      -6.4987629787     2.4812538330     1.0570580971
  141      C      -2.4838248696     1.3687634221    -0.7123573619
  142      C      -5.4940826983    -0.6810698562    -3.6040920206
  143      C      -5.2141164708    -0.5748803909     3.3613768588
  144      C      -3.5439229475     0.4479070206    -2.7727712896
  145      C      -2.3251368249    -1.4026573289     1.3364642812
  146      C      -8.2867419528     0.9050752048     0.6998829020
  147      C      -5.9076763131    -2.8255541207    -2.7611444770
  148      C      -2.6263258526     1.0504309189     1.5205626741
  149      C      -8.3517014366     0.0383380298    -1.5492855966
  150      C      -3.1875706564    -1.5920664847     2.4952183785
  151      C      -2.2049268702    -0.9603168490    -1.3812145936
  152      C      -7.3560397874    -2.7991537161     1.7541653978
  153      C      -7.2283689754    -1.7369465960     2.6194105640
  154      C      -2.4183078880    -2.2672196262    -0.8775989941
  155      C      -7.4755152202     1.5753081029     1.5918958226
  156      C      -4.8299907013     1.4882306855     2.5571597986
  157      C      -8.5414143139    -0.4342216461     1.1565128765
  158      C      -5.0396770362     2.8607296752    -0.6974441964
  159      C      -3.6594912187    -2.0367082983    -2.8122135467
  160      C      -3.6313436255     0.7741148682     2.4895300193
  161      C      -2.4541835722    -2.5455817629     0.5193524926
  162      C      -8.1784487952     1.0736608612    -0.6492477324
  163      C      -4.2775039766    -3.7432168009    -1.2269129565
  164      C      -7.4847984841     0.2591387308    -2.5429984934
  165      C      -6.4939813202    -3.9971651028    -0.6218183810
  166      C      -2.9333349336    -0.8068804410    -2.5537537025
  167      C      -3.2868053892    -2.8974202170    -1.7360489378
  168      C      -4.5745633647     2.1698995285    -1.7652892137
  169      C      -6.4271248973     2.7579342501    -0.3210195249
  170      C      -8.1183007705    -2.6930217893     0.6120444726
  171      C      -4.9380994237    -1.9884936523    -3.3655619054
  172      C      -3.8990258376    -2.7974937508     2.2552649842
  173      C      -7.8741947636    -0.5292893524     2.3755929406
  174      C      -6.1631165554    -3.5334115888     1.7279063233
  175      C      -7.3376310705     2.0765224458    -1.1820546354
  176      C      -8.6703396983    -1.2463372272    -1.1039181727
 ----------------------------------------------------------------

    9   -5804.2558757841      7.95E-06 Convergence criterion met
 Total energy in the final basis set = -5804.2558757841

                    Orbital Energies (a.u.)
 --------------------------------------------------------------

 Alpha MOs
 -- Occupied --
-19.200 -19.190 -19.134 -19.133 -10.317 -10.314 -10.250 -10.241
-10.238 -10.238 -10.236 -10.235 -10.234 -10.233 -10.230 -10.229
-10.228 -10.226 -10.226 -10.226 -10.225 -10.225 -10.224 -10.223
-10.222 -10.222 -10.222 -10.222 -10.222 -10.221 -10.220 -10.220
-10.220 -10.220 -10.220 -10.219 -10.219 -10.218 -10.218 -10.218
-10.218 -10.218 -10.217 -10.217 -10.217 -10.217 -10.217 -10.216
-10.216 -10.216 -10.216 -10.216 -10.216 -10.216 -10.216 -10.215
-10.215 -10.215 -10.215 -10.215 -10.215 -10.215 -10.215 -10.215
-10.215 -10.215 -10.214 -10.214 -10.214 -10.214 -10.214 -10.214
-10.213 -10.213 -10.213 -10.213 -10.213 -10.213 -10.213 -10.213
-10.213 -10.213 -10.212 -10.212 -10.212 -10.212 -10.212 -10.212
-10.211 -10.211 -10.211 -10.211 -10.211 -10.211 -10.211 -10.211
-10.210 -10.210 -10.210 -10.210 -10.210 -10.210 -10.210 -10.209
-10.209 -10.209 -10.209 -10.209 -10.209 -10.208 -10.208 -10.208
-10.208 -10.207 -10.207 -10.207 -10.207 -10.207 -10.207 -10.207
-10.207 -10.206 -10.206 -10.206 -10.206 -10.206 -10.206 -10.205
-10.205 -10.205 -10.205 -10.205 -10.204 -10.204 -10.203 -10.202
-10.202 -10.201 -10.200 -10.199 -10.198 -10.197 -10.196 -10.195
-10.194 -10.193 -10.191 -10.190  -1.099  -1.092  -1.011  -1.005
 -0.989  -0.980  -0.973  -0.969  -0.965  -0.963  -0.959  -0.955
 -0.944  -0.933  -0.929  -0.929  -0.926  -0.924  -0.923  -0.921
 -0.919  -0.915  -0.902  -0.896  -0.892  -0.889  -0.885  -0.881
 -0.877  -0.870  -0.854  -0.851  -0.847  -0.843  -0.841  -0.838
 -0.836  -0.833  -0.827  -0.817  -0.812  -0.802  -0.798  -0.797
 -0.795  -0.795  -0.794  -0.793  -0.790  -0.788  -0.787  -0.780
 -0.775  -0.773  -0.772  -0.769  -0.767  -0.765  -0.763  -0.760
 -0.749  -0.748  -0.743  -0.741  -0.737  -0.732  -0.721  -0.718
 -0.716  -0.714  -0.714  -0.712  -0.710  -0.709  -0.709  -0.708
 -0.707  -0.706  -0.706  -0.703  -0.701  -0.701  -0.677  -0.671
 -0.664  -0.663  -0.656  -0.652  -0.650  -0.645  -0.638  -0.629
 -0.629  -0.628  -0.623  -0.622  -0.621  -0.620  -0.619  -0.617
 -0.616  -0.614  -0.614  -0.614  -0.611  -0.610  -0.609  -0.608
 -0.608  -0.607  -0.605  -0.598  -0.570  -0.567  -0.564  -0.563
 -0.563  -0.562  -0.561  -0.559  -0.556  -0.555  -0.554  -0.549
 -0.538  -0.535  -0.534  -0.530  -0.529  -0.528  -0.524  -0.523
 -0.523  -0.521  -0.519  -0.519  -0.517  -0.517  -0.510  -0.509
 -0.509  -0.505  -0.504  -0.495  -0.491  -0.490  -0.489  -0.487
 -0.485  -0.483  -0.483  -0.481  -0.479  -0.479  -0.477  -0.474
 -0.473  -0.472  -0.471  -0.469  -0.468  -0.468  -0.467  -0.466
 -0.465  -0.464  -0.462  -0.461  -0.460  -0.459  -0.458  -0.457
 -0.456  -0.456  -0.451  -0.450  -0.449  -0.446  -0.445  -0.444
 -0.443  -0.441  -0.439  -0.439  -0.437  -0.437  -0.434  -0.433
 -0.432  -0.430  -0.429  -0.427  -0.426  -0.425  -0.424  -0.423
 -0.422  -0.422  -0.421  -0.420  -0.420  -0.419  -0.419  -0.418
 -0.417  -0.416  -0.415  -0.415  -0.414  -0.413  -0.412  -0.411
 -0.410  -0.408  -0.407  -0.405  -0.401  -0.399  -0.398  -0.396
 -0.394  -0.393  -0.392  -0.389  -0.388  -0.387  -0.385  -0.384
 -0.382  -0.379  -0.376  -0.372  -0.371  -0.368  -0.366  -0.364
 -0.362  -0.362  -0.361  -0.361  -0.360  -0.359  -0.358  -0.357
 -0.356  -0.355  -0.354  -0.353  -0.352  -0.351  -0.350  -0.350
 -0.349  -0.349  -0.349  -0.348  -0.346  -0.346  -0.345  -0.343
 -0.343  -0.342  -0.341  -0.340  -0.337  -0.336  -0.335  -0.334
 -0.332  -0.331  -0.329  -0.329  -0.327  -0.326  -0.325  -0.321
 -0.314  -0.307  -0.299  -0.297  -0.289  -0.284  -0.275  -0.270
 -0.268  -0.267  -0.267  -0.266  -0.265  -0.264  -0.263  -0.262
 -0.262  -0.259  -0.259  -0.259  -0.257  -0.255  -0.255  -0.251
 -0.250  -0.246  -0.246  -0.241  -0.223  -0.222  -0.215  -0.210
 -0.209  -0.207  -0.207  -0.204  -0.202  -0.195

          Ground-State Mulliken Net Atomic Charges

     Atom                 Charge (a.u.)
  ----------------------------------------
      1 O                    -0.479031
      2 C                    -0.083307
      3 H                     0.125002
      4 H                     0.137940
      5 H                     0.127968
      6 O                    -0.459999
      7 C                     0.602862
      8 C                    -0.249158
      9 H                     0.133377
     10 H                     0.113937
     11 C                    -0.196078
     12 H                     0.120198
     13 H                     0.105428
     14 C                    -0.188422
     15 H                     0.104384
     16 H                     0.143634
     17 C                     0.012505
     18 C                     0.082539
     19 C                    -0.105376
     20 H                     0.095311
     21 C                    -0.096500
     22 H                     0.088166
     23 C                    -0.075737
     24 H                     0.090375
     25 C                    -0.088286
     26 H                     0.095913
     27 C                    -0.100629
     28 H                     0.099805
     29 C                    -0.003766
     30 C                    -0.009730
     31 C                     0.001596
     32 C                    -0.018211
     33 C                     0.003751
     34 C                     0.006579
     35 C                    -0.005104
     36 C                    -0.000898
     37 C                    -0.017457
     38 C                     0.006043
     39 C                    -0.073806
     40 C                     0.013587
     41 C                    -0.017078
     42 C                     0.014700
     43 C                    -0.009311
     44 C                    -0.007319
     45 C                    -0.100756
     46 C                     0.015545
     47 C                    -0.034472
     48 C                    -0.002269
     49 C                     0.007432
     50 C                    -0.003474
     51 C                     0.013169
     52 C                    -0.001059
     53 C                     0.023726
     54 C                     0.007255
     55 C                     0.008763
     56 C                    -0.007524
     57 C                    -0.019695
     58 C                     0.021957
     59 C                    -0.017889
     60 C                     0.025542
     61 C                    -0.008873
     62 C                    -0.005619
     63 C                    -0.014217
     64 C                    -0.011623
     65 C                     0.007863
     66 C                    -0.000205
     67 C                     0.001649
     68 C                     0.025665
     69 C                    -0.014442
     70 C                     0.021341
     71 C                     0.000461
     72 C                     0.007088
     73 C                    -0.010200
     74 C                    -0.012810
     75 C                     0.017194
     76 C                    -0.010735
     77 C                     0.009655
     78 C                     0.005534
     79 C                     0.011772
     80 C                     0.026752
     81 C                     0.004065
     82 C                     0.001048
     83 C                     0.005828
     84 C                     0.020812
     85 C                    -0.014797
     86 C                    -0.001468
     87 C                     0.003458
     88 C                    -0.005240
     89 O                    -0.436809
     90 C                    -0.095284
     91 H                     0.121979
     92 H                     0.132571
     93 H                     0.122482
     94 O                    -0.486517
     95 C                     0.584092
     96 C                    -0.242658
     97 H                     0.124026
     98 H                     0.127672
     99 C                    -0.198331
    100 H                     0.128153
    101 H                     0.120030
    102 C                    -0.183663
    103 H                     0.110095
    104 H                     0.104278
    105 C                     0.011449
    106 C                     0.083610
    107 C                    -0.090770
    108 H                     0.091987
    109 C                    -0.105289
    110 H                     0.092781
    111 C                    -0.082629
    112 H                     0.096897
    113 C                    -0.095369
    114 H                     0.084281
    115 C                    -0.100388
    116 H                     0.093005
    117 C                    -0.029428
    118 C                     0.011024
    119 C                    -0.021977
    120 C                    -0.000994
    121 C                     0.014940
    122 C                    -0.011545
    123 C                    -0.003065
    124 C                     0.008263
    125 C                     0.038950
    126 C                    -0.001098
    127 C                    -0.050096
    128 C                    -0.005526
    129 C                    -0.018192
    130 C                     0.003675
    131 C                     0.011976
    132 C                    -0.004107
    133 C                    -0.092325
    134 C                     0.008601
    135 C                    -0.004077
    136 C                     0.037696
    137 C                     0.006493
    138 C                     0.003637
    139 C                    -0.024643
    140 C                     0.012329
    141 C                     0.011331
    142 C                     0.004201
    143 C                     0.006714
    144 C                    -0.010604
    145 C                    -0.017217
    146 C                    -0.015034
    147 C                     0.010515
    148 C                     0.006225
    149 C                     0.037419
    150 C                    -0.028429
    151 C                     0.018804
    152 C                     0.020954
    153 C                     0.001634
    154 C                     0.008130
    155 C                     0.006924
    156 C                    -0.017287
    157 C                    -0.000697
    158 C                     0.006719
    159 C                    -0.018583
    160 C                     0.029651
    161 C                    -0.022548
    162 C                     0.019503
    163 C                    -0.003616
    164 C                     0.012530
    165 C                    -0.001748
    166 C                    -0.024914
    167 C                     0.010354
    168 C                     0.049570
    169 C                    -0.010765
    170 C                    -0.029785
    171 C                    -0.010690
    172 C                     0.007257
    173 C                    -0.030608
    174 C                     0.001635
    175 C                    -0.039518
    176 C                    -0.026822
  ----------------------------------------
  Sum of atomic charges =     0.000000

                    Cartesian Multipole Moments
 -----------------------------------------------------------------
    Charge (ESU x 10^10)
                 0.0000
    Dipole Moment (Debye)
         X       3.0828      Y      -1.1279      Z      -0.3617
       Tot       3.3025
    Quadrupole Moments (Debye-Ang)
        XX    -804.5931     XY     -25.3645     YY    -752.8033
        XZ      -4.6111     YZ     -21.3846     ZZ    -816.9500

 Total job time:  885.24s(wall), 8487.26s(cpu)
        *  Thank you very much for using Q-Chem.  Have a nice day.  *
