 Q-Chem 4.4, Q-Chem, Inc., Pleasanton, CA (2016)
 Q-Chem 4.4.2 for Intel X86 Linux

User input:
--------------------------------------------------------------
$comment
SP
$end

$rem
MEM_STATIC 5000
MEM_TOTAL 20000
JOBTYPE SP
EXCHANGE B3LYP
BASIS 6-31g(d,p)
$end

$molecule
0 1
O          11.571000     -7.117000      8.775000
C          10.459000     -7.625000      7.960000
H           9.562000     -6.993000      7.947000
H          10.193000     -8.642000      8.274000
H          10.866000     -7.723000      6.946000
O          11.949000     -5.169000      7.686000
C          12.328000     -6.138000      8.337000
C          13.702000     -6.122000      8.993000
H          13.622000     -6.756000      9.885000
H          13.839000     -5.067000      9.261000
C          14.889000     -6.601000      8.104000
H          14.724000     -7.629000      7.760000
H          14.969000     -5.973000      7.209000
C          16.243000     -6.551000      8.893000
H          16.174000     -5.695000      9.576000
H          16.262000     -7.473000      9.487000
C          17.418000     -6.423000      8.013000
C          17.727000     -7.722000      7.345000
C          18.539000     -8.564000      8.105000
H          18.829000     -8.359000      9.132000
C          19.005000     -9.689000      7.455000
H          19.692000    -10.329000      8.001000
C          18.680000     -9.991000      6.143000
H          19.188000    -10.875000      5.768000
C          17.766000     -9.232000      5.427000
H          17.454000     -9.417000      4.403000
C          17.273000     -8.099000      6.082000
H          16.584000     -7.472000      5.523000
C          22.621000     -4.273000      7.737000
C          21.765000     -3.829000      5.491000
C          21.259000      0.628000      5.849000
C          19.434000     -2.357000     11.182000
C          17.755000      0.387000      6.372000
C          21.816000     -4.647000      6.655000
C          18.099000     -0.084000      9.984000
C          23.079000     -0.828000      6.679000
C          17.760000     -3.566000      5.500000
C          18.124000     -2.443000     10.561000
C          17.672000     -5.070000      7.298000
C          16.836000     -3.084000      6.415000
C          16.714000     -1.803000      8.890000
C          18.003000      0.744000      8.815000
C          19.776000     -4.925000      5.786000
C          19.766000      1.410000      7.397000
C          18.599000     -5.500000      8.422000
C          18.658000     -4.634000      9.701000
C          19.059000      0.953000      6.263000
C          22.081000     -0.472000     10.017000
C          22.063000      0.801000      8.180000
C          22.977000     -0.206000      7.957000
C          23.241000     -2.244000      6.554000
C          19.972000     -4.472000     10.183000
C          18.371000     -4.752000      5.996000
C          22.479000     -2.632000      5.410000
C          17.487000     -1.326000      9.978000
C          20.507000     -4.052000      4.936000
C          16.679000     -1.613000      6.522000
C          21.607000     -2.747000     10.772000
C          22.233000     -0.437000      5.601000
C          16.839000     -3.864000      7.552000
C          23.216000     -2.386000      9.021000
C          16.540000     -0.976000      7.752000
C          18.530000     -2.686000      4.716000
C          20.133000      0.891000      9.711000
C          19.436000     -0.032000     10.500000
C          18.376000     -1.346000      4.867000
C          20.365000     -3.348000     10.890000
C          17.737000     -3.579000      9.838000
C          21.385000     -1.345000     10.898000
C          20.116000     -5.559000      8.135000
C          20.523000     -1.733000      4.347000
C          16.883000     -3.161000      8.791000
C          17.479000     -0.785000      5.727000
C          22.475000     -3.260000      9.809000
C          19.940000      0.440000      5.354000
C          23.277000     -3.065000      7.707000
C          21.128000      1.170000      7.127000
C          19.877000     -2.933000      4.427000
C          19.574000     -0.679000      4.600000
C          20.644000     -5.358000      6.832000
C          20.866000     -5.006000      9.236000
C          21.465000      0.712000      9.494000
C          21.854000     -1.567000      4.787000
C          17.189000      0.255000      7.681000
C          20.036000     -1.100000     11.140000
C          19.291000      1.358000      8.692000
C          22.117000     -4.385000      9.016000
C          22.987000     -0.983000      9.068000
O          13.622000      9.799000     11.307000
C          14.620000     10.800000     11.009000
H          14.186000     11.667000     10.495000
H          15.332000     10.429000     10.262000
H          15.248000     11.135000     11.843000
O          14.974000      8.562000     12.635000
C          13.901000      8.818000     12.202000
C          12.737000      8.079000     12.609000
H          12.165000      8.824000     13.174000
H          12.939000      7.257000     13.308000
C          11.971000      7.543000     11.297000
H          11.794000      8.425000     10.670000
H          12.676000      6.892000     10.764000
C          10.702000      6.741000     11.600000
H          10.841000      6.201000     12.544000
H           9.847000      7.385000     11.838000
C          10.364000      5.958000     10.342000
C           9.677000      6.805000      9.294000
C          10.347000      7.230000      8.141000
H          11.324000      6.791000      7.961000
C           9.734000      8.109000      7.199000
H          10.362000      8.413000      6.367000
C           8.327000      8.411000      7.319000
H           7.759000      8.902000      6.535000
C           7.631000      7.823000      8.410000
H           6.576000      8.053000      8.528000
C           8.296000      7.030000      9.400000
H           7.749000      6.768000     10.301000
C           7.681000      1.306000      9.144000
C           9.224000      1.499000      7.311000
C          11.896000     -2.035000      8.496000
C          10.206000      1.536000     13.510000
C          14.289000      0.043000      9.935000
C           8.356000      2.121000      8.243000
C          12.777000      0.310000     13.095000
C           9.426000     -1.781000      8.516000
C          12.540000      3.404000      8.401000
C          11.320000      2.316000     13.282000
C          11.200000      4.705000      9.906000
C          13.289000      3.492000      9.646000
C          13.221000      2.492000     12.132000
C          13.651000     -0.345000     12.174000
C          10.115000      3.493000      7.887000
C          13.040000     -1.934000     10.489000
C           9.902000      4.575000     10.622000
C          10.022000      3.818000     11.914000
C          13.709000     -1.146000      9.508000
C           9.326000     -1.516000     12.061000
C          10.698000     -2.560000     10.521000
C           9.493000     -2.181000      9.861000
C           8.635000     -0.678000      8.138000
C           8.931000      2.974000     12.107000
C          11.295000      4.073000      8.461000
C           9.327000      0.077000      7.158000
C          12.564000      1.717000     13.061000
C          10.335000      2.352000      7.119000
C          14.078000      2.339000      9.924000
C           8.361000      0.707000     12.514000
C          10.672000     -1.717000      7.801000
C          12.455000      4.178000     10.535000
C           7.817000     -0.501000     10.444000
C          14.079000      1.888000     11.239000
C          12.648000      2.268000      7.599000
C          11.741000     -1.587000     12.512000
C          11.616000     -0.495000     13.333000
C          13.498000      1.189000      7.921000
C           8.974000      1.875000     12.952000
C          11.240000      3.471000     12.478000
C           9.175000     -0.372000     12.895000
C           8.811000      3.801000      9.934000
C          11.724000      0.335000      6.895000
C          12.369000      3.582000     11.757000
C          14.179000      1.228000      9.122000
C           7.645000      0.649000     11.311000
C          13.009000     -1.205000      8.308000
C           7.789000     -0.055000      9.084000
C          11.912000     -2.478000      9.862000
C          11.574000      1.742000      6.991000
C          12.924000     -0.017000      7.530000
C           8.926000      3.331000      8.648000
C           8.221000      2.968000     10.869000
C          10.634000     -2.098000     11.874000
C          10.595000     -0.570000      6.973000
C          14.231000      0.504000     11.206000
C          10.340000      0.131000     13.501000
C          12.963000     -1.509000     11.809000
C           7.528000      1.771000     10.475000
C           8.729000     -1.501000     10.804000
$end

--------------------------------------------------------------

             Standard Nuclear Orientation (Angstroms)
    I     Atom           X                Y                Z
 ----------------------------------------------------------------
    1      O       1.6996302397     7.3783655183    -0.1532312521
    2      C       1.3669842317     8.4758385086     0.7653179676
    3      H       0.3043412245     8.5622432821     1.0251757254
    4      H       1.7303486079     9.4296946317     0.3631167412
    5      H       1.9616986084     8.2869214347     1.6675785449
    6      O       1.0151329419     5.6331625469     1.1153266055
    7      C       1.7557085388     6.1396653727     0.2778269501
    8      C       2.6269448351     5.2528022118    -0.6013141363
    9      H       2.7606527220     5.7956721157    -1.5454722102
   10      H       2.0119576074     4.3546225221    -0.7379960840
   11      C       4.0150463203     4.8595294926    -0.0120418434
   12      H       4.6093905661     5.7544801081     0.2074195726
   13      H       3.8857526355     4.3212637236     0.9341939122
   14      C       4.8201129865     3.9598544813    -1.0124365340
   15      H       4.0811290533     3.3481737759    -1.5451047808
   16      H       5.2746093497     4.6598304949    -1.7242986248
   17      C       5.8191069129     3.1071737451    -0.3443379655
   18      C       7.0104188703     3.9065655513     0.0690076047
   19      C       7.9716414519     4.0393057608    -0.9331596395
   20      H       7.8294478934     3.7008454585    -1.9559399755
   21      C       9.1681149073     4.6046185612    -0.5405355087
   22      H       9.9581692290     4.6608004010    -1.2837331741
   23      C       9.4088181199     5.0388300752     0.7524050640
   24      H      10.4245871631     5.3930642493     0.9036545298
   25      C       8.4129611143     5.0352893927     1.7180081335
   26      H       8.5255406004     5.3724208708     2.7445621874
   27      C       7.1901515058     4.4810838958     1.3264012788
   28      H       6.4096298164     4.4361264664     2.0807856118
   29      C       8.4396075800    -1.8710964379    -0.6902963998
   30      C       8.0286351291    -1.6759514625     1.7112464549
   31      C       4.7926512005    -4.7811008342     2.0793556684
   32      C       4.0815471983    -1.2953207944    -3.2145472030
   33      C       2.2000110005    -2.3557576727     2.1538764170
   34      C       8.3137066645    -1.0739531248     0.4530917660
   35      C       1.9360508264    -2.1972046495    -1.4919303477
   36      C       6.8755902427    -4.8192510807     0.7447600348
   37      C       4.8627588623     0.6792302092     2.4458359704
   38      C       3.2939555514    -0.3953064571    -2.3906475791
   39      C       5.3279483401     1.9006643306     0.4979495680
   40      C       3.6639276553     0.9023601077     1.7852742508
   41      C       2.2161697095     0.0052956215    -0.4239659440
   42      C       1.6121705203    -2.7781839086    -0.2195602570
   43      C       7.1548453685     0.4388965034     1.6202984740
   44      C       2.8379038579    -4.4227138693     0.9447197753
   45      C       6.0365541668     1.6445066771    -0.8210902491
   46      C       5.2527402016     0.9459944067    -1.9555479503
   47      C       2.8488442342    -3.6245071620     2.1097950350
   48      C       5.1530814818    -4.4413230597    -2.2809825153
   49      C       4.7611757205    -5.4174739545    -0.3089375603
   50      C       6.1233841670    -5.2271880220    -0.3946896006
   51      C       7.9071424345    -3.8335800407     0.6385636295
   52      C       6.0273534363    -0.0156662475    -2.6340368029
   53      C       5.9472581617     1.2038945712     1.6878639545
   54      C       7.8361616418    -3.0533930601     1.8327972759
   55      C       2.2525899119    -0.8506493284    -1.5530513312
   56      C       7.3504373348    -0.7034284303     2.4423857738
   57      C       2.6059239827    -0.1289071183     1.9158695697
   58      C       6.0447138662    -2.3846351636    -3.2532749555
   59      C       6.2415719431    -4.5846058701     1.9992094841
   60      C       3.8954666893     1.5056501072     0.5672394187
   61      C       7.4202071966    -3.6975677916    -1.7803767878
   62      C       1.8274898846    -0.5249691292     0.8318191841
   63      C       5.0683120949    -0.4930980844     3.1977337299
   64      C       2.9139530929    -4.2475785989    -1.4473902035
   65      C       2.7887376386    -3.0887549561    -2.2230885050
   66      C       4.0842246440    -1.4252792783     3.2664877162
   67      C       5.4620930303    -1.1285047415    -3.2338243982
   68      C       3.8747951999     0.7228651309    -1.7780207738
   69      C       4.9767121060    -3.3212132130    -3.1394426336
   70      C       7.2744034029     0.7199234128    -0.8173411123
   71      C       6.0508673909    -2.5007794219     3.3399298529
   72      C       3.2109717006     0.9419768308    -0.5485585235
   73      C       2.8688211328    -1.2804249427     2.6658700954
   74      C       7.2317371708    -2.5483582187    -2.5404408685
   75      C       4.0334208213    -3.7962960056     2.7677296081
   76      C       8.1853286038    -3.2197423522    -0.6066519130
   77      C       4.0685524452    -5.1089556819     0.9337548691
   78      C       6.2963719661    -1.1644573241     3.2069382949
   79      C       4.6263968847    -2.7047522340     3.4092470145
   80      C       7.8387246935     0.2223833417     0.3872290844
   81      C       7.2433227887    -0.1797623069    -1.9443325058
   82      C       4.0721749065    -4.9613733257    -1.4961069225
   83      C       6.8452002484    -3.4765575791     2.6999225879
   84      C       1.5628924801    -1.8870233960     0.9598792776
   85      C       3.7590049993    -2.6472429683    -3.1027886888
   86      C       2.2222793803    -4.0737150656    -0.2404217089
   87      C       7.8432430929    -1.4574761957    -1.8631854371
   88      C       6.3641647338    -4.6307902707    -1.5882072757
   89      O      -7.8719817095    -6.9378407227    -0.5995098208
   90      C      -7.6806705223    -8.3467582518    -0.3442444181
   91      H      -8.4298241593    -8.7390476607     0.3551259044
   92      H      -6.7476897011    -8.5191934466     0.2056709307
   93      H      -7.6071037432    -9.0019430478    -1.2203070939
   94      O      -6.3883878205    -6.8434877906    -2.3058813210
   95      C      -7.2538951330    -6.3571794535    -1.6587682757
   96      C      -7.7573414348    -5.0434001849    -1.9540509446
   97      H      -8.7773426030    -5.2489692842    -2.2986854788
   98      H      -7.2517454459    -4.5367805528    -2.7863959718
   99      C      -7.7012245662    -4.1475006884    -0.6162875166
  100      H      -8.2417127477    -4.7159428762     0.1499552679
  101      H      -6.6473682059    -4.0990602878    -0.3130461944
  102      C      -8.2206151670    -2.7186432205    -0.8006071854
  103      H      -7.9931448363    -2.3877329509    -1.8208094409
  104      H      -9.3159077564    -2.6671973866    -0.7909910654
  105      C      -7.7022294063    -1.9057459102     0.3742847952
  106      C      -8.5079478202    -2.1234145446     1.6356809277
  107      C      -8.0106297410    -2.8833553897     2.7006216021
  108      H      -6.9647280534    -3.1702108119     2.6418540371
  109      C      -8.8047670618    -3.1724416508     3.8502080710
  110      H      -8.3359724115    -3.8110459290     4.5927982350
  111      C     -10.0738961551    -2.5058299970     4.0239701133
  112      H     -10.6282993406    -2.5243813641     4.9570585093
  113      C     -10.4751709243    -1.6041217987     3.0010615716
  114      H     -11.4353285151    -1.1068938196     3.1045542657
  115      C      -9.7064803637    -1.4142127023     1.8076532772
  116      H     -10.1563304899    -0.8593531095     0.9894725537
  117      C      -6.5440316178     3.3822416390     1.3594561317
  118      C      -5.0948305788     2.2403801059     2.9002207432
  119      C      -1.1594421256     3.2588086361     0.7769011603
  120      C      -5.7810408493     1.6118873114    -3.3068241473
  121      C      -0.9859578217     0.1378570931    -0.7543789129
  122      C      -6.3427528795     2.3200880082     2.2329362598
  123      C      -2.9978884622     0.9117292746    -3.5285977119
  124      C      -3.1723710080     4.6407368842     1.2287945453
  125      C      -4.0434469880    -1.3383787374     1.5217945801
  126      C      -5.3809759612     0.2992678304    -3.1713317728
  127      C      -6.1971584625    -1.4772738649     0.4751518388
  128      C      -3.8181300075    -1.8789612858     0.1892133381
  129      C      -3.8071317467    -1.0551422410    -2.3614770037
  130      C      -1.7273987650     0.8536326961    -2.8777346565
  131      C      -5.7994000321     0.1394552772     2.4627396010
  132      C      -0.8151194349     2.4592475888    -1.3522136831
  133      C      -7.2500371331    -0.5452243144    -0.0117671899
  134      C      -6.9801574786    -0.0336712481    -1.3981983756
  135      C      -0.5834660573     1.4213536763    -0.4035414852
  136      C      -4.2122400079     4.5161479772    -2.1697934067
  137      C      -2.1867408872     4.4366839672    -1.0585064126
  138      C      -3.1765191250     4.9116408592    -0.1496494432
  139      C      -4.3666297110     4.2954047937     1.8918676164
  140      C      -7.3152319944     1.3133584604    -1.5126624892
  141      C      -5.4062849685    -1.0579007056     1.7771192999
  142      C      -4.0974183208     3.2682225987     2.8308622733
  143      C      -4.0261603574    -0.0351424308    -3.2597764275
  144      C      -4.7506062072     0.8736572195     3.0114508372
  145      C      -2.5716613225    -1.4943117495    -0.3831279512
  146      C      -6.4219702206     3.4236744914    -2.1278759910
  147      C      -2.1175595994     3.7926876896     1.7146159691
  148      C      -5.0707456200    -1.8704035469    -0.4331642743
  149      C      -5.6099483482     4.6916285147    -0.1854514562
  150      C      -2.5867120017    -1.1421456966    -1.7278879849
  151      C      -3.0739916713    -0.5366514932     2.1240850541
  152      C      -2.4607740948     3.0305729890    -3.0450654271
  153      C      -3.4198440964     2.2736443806    -3.6690636754
  154      C      -1.8378509889    -0.2477093791     1.5085416617
  155      C      -6.7891442352     2.1353129776    -2.4982067253
  156      C      -5.9789118939    -0.5419742151    -2.2113185222
  157      C      -5.2261089271     3.7358632951    -2.7945482623
  158      C      -7.4299231339     0.7440904364     0.7418968601
  159      C      -2.4032551073     1.5378457722     2.7006737788
  160      C      -5.0396632514    -1.3515035618    -1.6923992372
  161      C      -1.6230214916    -0.7073528950     0.2239175434
  162      C      -6.6507311966     3.9202809795    -0.8378064534
  163      C      -0.8002959467     1.9085254511     0.8806428711
  164      C      -5.6018543158     4.3603554324     1.2072052250
  165      C      -1.1797474938     3.5954623166    -0.6190619450
  166      C      -3.4136689328     0.5513109316     2.8317383027
  167      C      -1.4283989376     1.0451950713     1.8208557661
  168      C      -6.7608517120     1.0267208751     1.9082520665
  169      C      -7.5639908375     1.7659645590    -0.1822314472
  170      C      -2.8277446414     4.1279346096    -2.3002539801
  171      C      -2.7028498889     2.9555813998     2.6963543948
  172      C      -1.6033416757    -0.1743123157    -1.9174410080
  173      C      -4.8034887175     2.6074803439    -3.5195407271
  174      C      -1.4353683949     2.1871286767    -2.5647302913
  175      C      -7.2486071919     3.1279216191     0.1552594750
  176      C      -4.3851471473     4.8803507246    -0.8378240077
 ----------------------------------------------------------------

    9   -5804.2811076841      8.51E-06 Convergence criterion met
 Total energy in the final basis set = -5804.2811076841

                    Orbital Energies (a.u.)
 --------------------------------------------------------------

 Alpha MOs
 -- Occupied --
-19.198 -19.190 -19.128 -19.126 -10.313 -10.303 -10.257 -10.245
-10.245 -10.241 -10.240 -10.239 -10.237 -10.236 -10.231 -10.230
-10.228 -10.228 -10.225 -10.224 -10.224 -10.222 -10.222 -10.221
-10.220 -10.220 -10.219 -10.219 -10.219 -10.219 -10.219 -10.219
-10.218 -10.217 -10.217 -10.216 -10.216 -10.216 -10.216 -10.215
-10.215 -10.215 -10.215 -10.215 -10.215 -10.215 -10.215 -10.215
-10.215 -10.215 -10.215 -10.214 -10.214 -10.214 -10.214 -10.213
-10.213 -10.213 -10.213 -10.213 -10.213 -10.212 -10.212 -10.212
-10.212 -10.212 -10.212 -10.212 -10.212 -10.212 -10.212 -10.212
-10.212 -10.212 -10.212 -10.211 -10.211 -10.211 -10.211 -10.211
-10.211 -10.210 -10.210 -10.210 -10.210 -10.210 -10.210 -10.210
-10.209 -10.209 -10.209 -10.209 -10.209 -10.209 -10.209 -10.209
-10.209 -10.209 -10.209 -10.209 -10.208 -10.208 -10.208 -10.208
-10.208 -10.207 -10.207 -10.207 -10.207 -10.206 -10.206 -10.206
-10.206 -10.206 -10.206 -10.205 -10.205 -10.205 -10.205 -10.204
-10.204 -10.204 -10.204 -10.203 -10.203 -10.203 -10.203 -10.203
-10.203 -10.203 -10.202 -10.201 -10.201 -10.201 -10.201 -10.201
-10.201 -10.200 -10.200 -10.200 -10.199 -10.199 -10.198 -10.196
-10.195 -10.195 -10.194 -10.193  -1.104  -1.098  -1.018  -1.005
 -0.978  -0.978  -0.961  -0.961  -0.957  -0.956  -0.956  -0.956
 -0.929  -0.929  -0.923  -0.922  -0.921  -0.920  -0.918  -0.918
 -0.916  -0.913  -0.891  -0.890  -0.887  -0.884  -0.884  -0.878
 -0.874  -0.868  -0.856  -0.846  -0.841  -0.839  -0.835  -0.834
 -0.831  -0.831  -0.819  -0.818  -0.803  -0.801  -0.795  -0.794
 -0.793  -0.791  -0.789  -0.787  -0.786  -0.785  -0.783  -0.779
 -0.768  -0.767  -0.766  -0.765  -0.764  -0.763  -0.762  -0.759
 -0.757  -0.748  -0.745  -0.743  -0.732  -0.729  -0.716  -0.713
 -0.711  -0.710  -0.709  -0.708  -0.707  -0.706  -0.706  -0.705
 -0.704  -0.703  -0.702  -0.701  -0.700  -0.696  -0.669  -0.668
 -0.656  -0.654  -0.653  -0.652  -0.645  -0.645  -0.630  -0.627
 -0.626  -0.623  -0.622  -0.621  -0.620  -0.616  -0.616  -0.615
 -0.613  -0.612  -0.611  -0.610  -0.609  -0.606  -0.605  -0.604
 -0.603  -0.602  -0.598  -0.597  -0.570  -0.570  -0.564  -0.564
 -0.559  -0.557  -0.557  -0.553  -0.553  -0.550  -0.548  -0.548
 -0.537  -0.532  -0.531  -0.528  -0.528  -0.524  -0.521  -0.521
 -0.520  -0.519  -0.517  -0.516  -0.513  -0.511  -0.509  -0.507
 -0.505  -0.504  -0.496  -0.494  -0.492  -0.489  -0.488  -0.484
 -0.483  -0.481  -0.480  -0.479  -0.478  -0.476  -0.475  -0.473
 -0.472  -0.470  -0.468  -0.465  -0.465  -0.464  -0.463  -0.462
 -0.461  -0.461  -0.461  -0.459  -0.458  -0.457  -0.456  -0.455
 -0.453  -0.453  -0.451  -0.450  -0.447  -0.446  -0.442  -0.441
 -0.441  -0.438  -0.438  -0.437  -0.435  -0.432  -0.431  -0.429
 -0.428  -0.427  -0.425  -0.423  -0.423  -0.422  -0.421  -0.421
 -0.420  -0.419  -0.418  -0.418  -0.417  -0.416  -0.416  -0.415
 -0.414  -0.414  -0.413  -0.412  -0.411  -0.410  -0.410  -0.410
 -0.409  -0.407  -0.405  -0.405  -0.401  -0.398  -0.396  -0.394
 -0.391  -0.389  -0.388  -0.387  -0.387  -0.385  -0.383  -0.381
 -0.380  -0.378  -0.375  -0.370  -0.368  -0.366  -0.365  -0.363
 -0.362  -0.361  -0.360  -0.358  -0.358  -0.357  -0.356  -0.355
 -0.355  -0.353  -0.352  -0.352  -0.350  -0.349  -0.348  -0.348
 -0.347  -0.346  -0.346  -0.345  -0.343  -0.342  -0.340  -0.340
 -0.339  -0.338  -0.337  -0.335  -0.335  -0.334  -0.334  -0.333
 -0.331  -0.329  -0.328  -0.326  -0.325  -0.323  -0.323  -0.320
 -0.306  -0.304  -0.298  -0.298  -0.286  -0.284  -0.268  -0.268
 -0.266  -0.265  -0.264  -0.263  -0.262  -0.261  -0.260  -0.259
 -0.258  -0.258  -0.255  -0.255  -0.254  -0.253  -0.252  -0.251
 -0.249  -0.249  -0.243  -0.241  -0.220  -0.216  -0.211  -0.208
 -0.207  -0.205  -0.202  -0.200  -0.198  -0.194

          Ground-State Mulliken Net Atomic Charges

     Atom                 Charge (a.u.)
  ----------------------------------------
      1 O                    -0.443667
      2 C                    -0.090697
      3 H                     0.142468
      4 H                     0.130841
      5 H                     0.128175
      6 O                    -0.474427
      7 C                     0.572365
      8 C                    -0.250128
      9 H                     0.118272
     10 H                     0.136389
     11 C                    -0.196574
     12 H                     0.110176
     13 H                     0.119687
     14 C                    -0.185374
     15 H                     0.110842
     16 H                     0.114194
     17 C                     0.013962
     18 C                     0.087902
     19 C                    -0.090435
     20 H                     0.099048
     21 C                    -0.091796
     22 H                     0.084831
     23 C                    -0.078003
     24 H                     0.085927
     25 C                    -0.088246
     26 H                     0.098569
     27 C                    -0.115196
     28 H                     0.090247
     29 C                    -0.000128
     30 C                     0.026585
     31 C                    -0.025909
     32 C                    -0.030174
     33 C                    -0.037338
     34 C                     0.007373
     35 C                    -0.030760
     36 C                     0.004373
     37 C                    -0.006587
     38 C                    -0.020299
     39 C                    -0.104717
     40 C                     0.000410
     41 C                     0.004867
     42 C                    -0.010255
     43 C                    -0.003958
     44 C                     0.030535
     45 C                    -0.076282
     46 C                     0.017253
     47 C                     0.019000
     48 C                    -0.002980
     49 C                    -0.024961
     50 C                     0.024164
     51 C                    -0.005935
     52 C                     0.024348
     53 C                     0.035393
     54 C                    -0.003856
     55 C                     0.014476
     56 C                    -0.029976
     57 C                    -0.024215
     58 C                    -0.004442
     59 C                    -0.018969
     60 C                     0.044176
     61 C                    -0.025490
     62 C                     0.000338
     63 C                     0.006336
     64 C                     0.042655
     65 C                     0.037528
     66 C                     0.018405
     67 C                     0.022518
     68 C                    -0.022684
     69 C                    -0.021039
     70 C                     0.018691
     71 C                     0.005705
     72 C                     0.011122
     73 C                     0.033400
     74 C                     0.008802
     75 C                     0.012643
     76 C                    -0.021256
     77 C                    -0.003195
     78 C                     0.011786
     79 C                    -0.026498
     80 C                    -0.006460
     81 C                    -0.011590
     82 C                    -0.036226
     83 C                    -0.005029
     84 C                     0.002594
     85 C                     0.002338
     86 C                    -0.031479
     87 C                     0.011454
     88 C                     0.032922
     89 O                    -0.472285
     90 C                    -0.092186
     91 H                     0.122242
     92 H                     0.122466
     93 H                     0.133432
     94 O                    -0.457049
     95 C                     0.597555
     96 C                    -0.251128
     97 H                     0.123338
     98 H                     0.129313
     99 C                    -0.202010
    100 H                     0.136421
    101 H                     0.115860
    102 C                    -0.188456
    103 H                     0.109645
    104 H                     0.111762
    105 C                     0.002709
    106 C                     0.097652
    107 C                    -0.105015
    108 H                     0.097831
    109 C                    -0.101873
    110 H                     0.095903
    111 C                    -0.084967
    112 H                     0.099094
    113 C                    -0.099035
    114 H                     0.090859
    115 C                    -0.101555
    116 H                     0.092235
    117 C                     0.004610
    118 C                    -0.004131
    119 C                     0.039919
    120 C                    -0.005916
    121 C                     0.016605
    122 C                    -0.001407
    123 C                    -0.020279
    124 C                    -0.015126
    125 C                    -0.002721
    126 C                    -0.017409
    127 C                    -0.087032
    128 C                    -0.001616
    129 C                    -0.003385
    130 C                    -0.030033
    131 C                    -0.013402
    132 C                    -0.016471
    133 C                    -0.098636
    134 C                     0.028816
    135 C                    -0.000330
    136 C                    -0.026728
    137 C                    -0.011195
    138 C                     0.019937
    139 C                     0.008926
    140 C                     0.025822
    141 C                    -0.000655
    142 C                    -0.011515
    143 C                     0.017797
    144 C                    -0.011467
    145 C                     0.003415
    146 C                     0.024269
    147 C                     0.006243
    148 C                     0.031630
    149 C                    -0.028076
    150 C                    -0.014182
    151 C                     0.014004
    152 C                     0.030251
    153 C                    -0.009702
    154 C                    -0.030662
    155 C                    -0.025012
    156 C                    -0.014378
    157 C                    -0.018115
    158 C                     0.047589
    159 C                    -0.013218
    160 C                     0.030681
    161 C                    -0.001276
    162 C                    -0.004943
    163 C                     0.015503
    164 C                     0.006219
    165 C                    -0.007472
    166 C                     0.031468
    167 C                     0.005902
    168 C                     0.028305
    169 C                    -0.011505
    170 C                    -0.012390
    171 C                    -0.026530
    172 C                     0.014502
    173 C                     0.011052
    174 C                     0.007192
    175 C                    -0.023941
    176 C                     0.028587
  ----------------------------------------
  Sum of atomic charges =     0.000000

                    Cartesian Multipole Moments
 -----------------------------------------------------------------
    Charge (ESU x 10^10)
                 0.0000
    Dipole Moment (Debye)
         X      -0.8795      Y       3.1258      Z       1.6302
       Tot       3.6334
    Quadrupole Moments (Debye-Ang)
        XX    -749.6838     XY      52.3778     YY    -768.8168
        XZ     -11.2745     YZ     -11.4498     ZZ    -810.2687

 Total job time:  862.30s(wall), 8227.68s(cpu)
        *  Thank you very much for using Q-Chem.  Have a nice day.  *
