 Q-Chem 4.4, Q-Chem, Inc., Pleasanton, CA (2016)
 Q-Chem 4.4.2 for Intel X86 Linux

User input:
--------------------------------------------------------------
$comment
SP
$end

$rem
MEM_STATIC 5000
MEM_TOTAL 20000
JOBTYPE SP
EXCHANGE B3LYP
BASIS 6-31g(d,p)
$end

$molecule
0 1
O         -12.114000    -11.398000    -10.603000
C         -11.392000    -11.471000     -9.347000
H         -11.674000    -12.316000     -8.707000
H         -11.552000    -10.584000     -8.722000
H         -10.322000    -11.493000     -9.588000
O         -11.214000     -9.489000    -11.073000
C         -11.912000    -10.388000    -11.412000
C         -12.525000    -10.674000    -12.728000
H         -12.132000    -11.577000    -13.213000
H         -12.154000    -10.023000    -13.530000
C         -14.073000    -10.793000    -12.607000
H         -14.327000    -11.268000    -13.563000
H         -14.267000    -11.425000    -11.731000
C         -14.768000     -9.393000    -12.403000
H         -14.001000     -8.843000    -11.844000
H         -14.752000     -8.795000    -13.322000
C         -16.129000     -9.492000    -11.721000
C         -17.305000     -9.883000    -12.627000
C         -18.140000     -8.850000    -13.129000
H         -17.926000     -7.796000    -12.983000
C         -19.221000     -9.230000    -13.954000
H         -19.958000     -8.516000    -14.308000
C         -19.461000    -10.566000    -14.263000
H         -20.378000    -10.763000    -14.810000
C         -18.717000    -11.560000    -13.687000
H         -18.845000    -12.594000    -13.992000
C         -17.635000    -11.212000    -12.850000
H         -17.107000    -12.022000    -12.354000
C         -19.549000     -6.967000     -8.172000
C         -19.889000     -9.311000     -7.781000
C         -17.903000     -9.525000     -3.746000
C         -14.565000     -5.906000     -7.761000
C         -14.913000    -10.957000     -4.868000
C         -19.595000     -8.240000     -8.626000
C         -13.520000     -7.725000     -5.807000
C         -19.364000     -7.781000     -4.654000
C         -16.691000    -11.498000     -8.488000
C         -13.879000     -7.083000     -8.145000
C         -16.084000    -10.000000    -10.264000
C         -15.313000    -11.231000     -8.416000
C         -13.500000     -9.251000     -7.620000
C         -13.778000     -8.781000     -4.963000
C         -18.416000    -10.099000     -9.301000
C         -15.665000     -9.103000     -3.425000
C         -16.374000     -8.497000    -10.547000
C         -15.482000     -7.490000     -9.968000
C         -15.793000    -10.464000     -3.925000
C         -16.829000     -5.408000     -5.026000
C         -17.236000     -7.156000     -3.646000
C         -18.482000     -6.748000     -4.242000
C         -19.937000     -7.751000     -5.949000
C         -16.217000     -6.401000     -9.499000
C         -17.214000    -10.748000     -9.517000
C         -20.011000     -9.085000     -6.417000
C         -13.348000     -7.947000     -7.168000
C         -19.197000    -10.495000     -8.187000
C         -14.682000    -11.241000     -7.133000
C         -16.602000     -5.050000     -7.460000
C         -19.062000     -9.155000     -4.415000
C         -14.925000    -10.260000     -9.369000
C         -18.748000     -5.731000     -6.399000
C         -13.660000    -10.323000     -6.731000
C         -17.423000    -11.869000     -7.363000
C         -14.940000     -6.893000     -4.263000
C         -14.257000     -6.613000     -5.444000
C         -16.804000    -11.912000     -6.135000
C         -15.723000     -5.615000     -8.422000
C         -14.349000     -7.879000     -9.137000
C         -16.077000     -5.080000     -6.160000
C         -17.697000     -7.947000    -10.165000
C         -18.821000    -11.073000     -5.866000
C         -14.047000     -9.233000     -8.917000
C         -15.427000    -11.547000     -6.015000
C         -18.017000     -5.402000     -7.563000
C         -17.178000    -10.684000     -4.089000
C         -19.635000     -6.718000     -6.796000
C         -16.955000     -8.514000     -3.411000
C         -18.680000    -11.329000     -7.282000
C         -17.654000    -11.443000     -5.190000
C         -18.675000     -8.753000     -9.585000
C         -17.569000     -6.674000     -9.566000
C         -16.212000     -6.333000     -4.121000
C         -19.477000     -9.917000     -5.451000
C         -13.918000    -10.107000     -5.369000
C         -14.782000     -5.715000     -6.363000
C         -14.688000     -8.274000     -3.989000
C         -18.469000     -6.198000     -8.605000
C         -18.226000     -5.654000     -5.078000
O         -16.693000    -12.994000     -1.204000
C         -17.914000    -12.930000     -1.779000
H         -18.122000    -13.796000     -2.421000
H         -18.078000    -11.928000     -2.194000
H         -18.646000    -13.073000     -0.975000
O         -16.939000    -10.997000     -0.039000
C         -16.268000    -11.937000     -0.427000
C         -14.834000    -12.229000     -0.074000
H         -14.729000    -13.316000      0.027000
H         -14.866000    -11.756000      0.916000
C         -13.916000    -11.585000     -1.090000
H         -13.850000    -12.271000     -1.944000
H         -14.293000    -10.685000     -1.591000
C         -12.526000    -11.265000     -0.532000
H         -12.161000    -10.338000     -0.990000
H         -12.572000    -11.161000      0.559000
C         -11.434000    -12.301000     -0.874000
C         -11.520000    -13.607000     -0.165000
C         -10.994000    -13.725000      1.112000
H         -10.494000    -12.860000      1.538000
C         -11.114000    -14.873000      1.869000
H         -10.596000    -14.900000      2.823000
C         -11.712000    -16.068000      1.306000
H         -11.714000    -17.020000      1.828000
C         -12.279000    -15.922000      0.020000
H         -12.757000    -16.807000     -0.390000
C         -12.355000    -14.639000     -0.619000
H         -12.773000    -14.585000     -1.620000
C          -5.996000    -13.244000     -1.459000
C          -7.064000    -14.833000     -3.009000
C          -5.887000    -12.821000     -6.798000
C          -7.697000     -8.557000     -2.471000
C          -8.938000    -11.251000     -7.300000
C          -7.063000    -14.098000     -1.780000
C          -8.239000     -8.394000     -5.221000
C          -4.591000    -13.149000     -4.747000
C         -10.552000    -13.379000     -4.323000
C          -9.011000     -8.722000     -2.903000
C         -10.790000    -12.347000     -2.302000
C         -11.052000    -12.176000     -4.650000
C         -10.320000     -9.458000     -4.531000
C          -8.173000     -9.075000     -6.436000
C          -9.193000    -14.305000     -2.552000
C          -6.607000    -10.729000     -7.277000
C          -9.971000    -11.831000     -1.179000
C          -9.469000    -10.397000     -1.196000
C          -7.641000    -11.613000     -7.652000
C          -4.734000     -9.783000     -3.848000
C          -4.706000    -10.935000     -5.735000
C          -4.246000    -11.759000     -4.728000
C          -4.954000    -13.794000     -3.596000
C          -8.132000    -10.344000     -0.840000
C         -10.310000    -13.574000     -2.994000
C          -5.979000    -14.671000     -3.875000
C          -9.285000     -8.596000     -4.280000
C          -8.382000    -14.952000     -3.476000
C         -10.607000    -11.534000     -5.848000
C          -5.919000     -9.717000     -1.741000
C          -5.405000    -13.617000     -5.775000
C         -11.111000    -11.468000     -3.446000
C          -4.669000    -11.695000     -2.383000
C         -10.211000    -10.176000     -5.772000
C          -9.748000    -14.144000     -5.212000
C          -6.076000     -8.967000     -5.704000
C          -6.901000     -8.294000     -4.790000
C          -9.392000    -13.535000     -6.460000
C          -7.251000     -9.392000     -1.479000
C          -9.850000     -9.607000     -2.329000
C          -5.584000     -9.074000     -2.959000
C          -8.723000    -12.615000     -0.885000
C          -7.592000    -14.684000     -5.706000
C         -10.736000    -10.082000     -3.361000
C          -9.839000    -12.194000     -6.759000
C          -5.484000    -11.043000     -1.476000
C          -7.165000    -12.955000     -7.348000
C          -4.968000    -13.039000     -2.393000
C          -5.532000    -11.456000     -6.765000
C          -8.624000    -14.850000     -4.801000
C          -8.077000    -13.906000     -6.750000
C          -8.375000    -13.788000     -1.535000
C          -7.633000    -11.676000     -0.684000
C          -4.934000     -9.646000     -5.188000
C          -6.251000    -14.638000     -5.256000
C          -9.207000     -9.984000     -6.703000
C          -6.620000     -8.358000     -3.397000
C          -6.864000     -9.444000     -6.771000
C          -6.320000    -11.983000     -0.918000
C          -4.282000    -11.031000     -3.584000
$end

--------------------------------------------------------------

             Standard Nuclear Orientation (Angstroms)
    I     Atom           X                Y                Z
 ----------------------------------------------------------------
    1      O       1.5375527827    -4.5019413648    -1.8547779600
    2      C       0.3331893571    -3.7740766703    -1.5028252279
    3      H       0.0307304387    -3.0125417708    -2.2320249259
    4      H       0.4376742057    -3.2273462979    -0.5577523120
    5      H      -0.4607144008    -4.5150723511    -1.3475602150
    6      O       1.5517780280    -5.5124395439     0.0567324565
    7      C       2.0326866465    -5.3826087897    -1.0213198965
    8      C       3.0689642011    -6.1875057296    -1.7051990861
    9      H       2.6999135215    -6.7287255442    -2.5860882438
   10      H       3.3148594880    -7.1174376788    -1.1766084339
   11      C       4.2783716302    -5.2995082139    -2.1222123746
   12      H       4.7930389268    -5.9581389451    -2.8331273722
   13      H       3.8553996420    -4.3958179310    -2.5792403493
   14      C       5.1742385040    -4.8899916590    -0.8916191292
   15      H       4.4330769395    -4.8362520919    -0.0847352501
   16      H       5.7565319120    -5.7389920440    -0.5140562428
   17      C       5.9747095220    -3.6134255005    -1.1300955267
   18      C       7.2647794498    -3.7747828679    -1.9464143255
   19      C       8.4960800569    -3.8741305587    -1.2461666184
   20      H       8.5551246391    -3.9409752796    -0.1644672514
   21      C       9.6723740843    -4.0140439122    -2.0145041840
   22      H      10.6608607397    -4.0088396166    -1.5660088692
   23      C       9.6282366200    -4.0518015305    -3.4054043409
   24      H      10.5922162092    -4.0489066628    -3.9050461840
   25      C       8.4506437883    -3.8463235191    -4.0720391056
   26      H       8.3982590481    -3.9611949390    -5.1502901877
   27      C       7.2587133092    -3.6939610377    -3.3314417742
   28      H       6.3525860540    -3.4644257468    -3.8856501714
   29      C       7.9476695745     0.9511362224     1.3070402737
   30      C       7.3734315548     1.6489040157    -0.9169623800
   31      C       3.7902246444     4.1522980488     0.1623260672
   32      C       3.8826401510    -1.2727713462     3.4668247333
   33      C       1.3802339243     1.8063954982    -0.8063296778
   34      C       7.8255697643     0.6862363960    -0.0134447578
   35      C       1.5798917994     0.0374216205     2.3715410170
   36      C       5.9398503149     3.9580647819     1.3207318316
   37      C       4.3791210777    -0.3817764675    -2.4727462794
   38      C       3.1417250558    -1.8511217094     2.4085541257
   39      C       5.1201300903    -2.3383811455    -1.2940890871
   40      C       3.2666875044    -1.0304077108    -1.9096068161
   41      C       1.9533886433    -1.4116304864     0.5339357550
   42      C       1.1023431828     0.9800071922     1.4897724766
   43      C       6.6066351018    -0.3340414359    -1.6792113784
   44      C       1.8863954220     3.2757520064     1.1093584466
   45      C       5.9296412800    -2.5596316987     0.0169936054
   46      C       5.2069347628    -2.5883175791     1.2905030912
   47      C       1.8287388271     3.0193480344    -0.3222971405
   48      C       4.6710997180     2.1768308466     4.0434539236
   49      C       3.8716106402     3.7123388822     2.5844867249
   50      C       5.3098106129     3.7882766770     2.5812789244
   51      C       7.0245743789     3.1255724049     0.9511589060
   52      C       5.9244013249    -1.9050229472     2.2725708986
   53      C       5.5085342690    -1.0684844508    -2.0883922905
   54      C       6.9147158968     2.8675630671    -0.4364355216
   55      C       1.9964152190    -1.2039759242     1.9061064064
   56      C       6.6355568046     1.0491546177    -1.9853244499
   57      C       2.1445888974    -0.2388881531    -1.5111830392
   58      C       5.7027108064    -0.0643817247     3.9138631346
   59      C       5.1779054398     4.1248863688     0.1258211380
   60      C       3.6605243110    -2.1250590186    -1.1044825498
   61      C       6.8192011361     1.9787914725     3.0342662782
   62      C       1.3682531252    -0.4779440571    -0.3326385794
   63      C       4.3691066767     0.9843706572    -2.7422490539
   64      C       2.3039333550     2.0109814042     3.1921417762
   65      C       2.3544121579     0.6284522965     3.3525012376
   66      C       3.2727783651     1.7371531872    -2.3895782502
   67      C       5.2428871824    -1.2873599576     3.3569102850
   68      C       3.7611366977    -2.4066841978     1.3379190155
   69      C       4.6559847994     0.7964214189     4.2742901233
   70      C       7.0243294645    -1.6135118513     0.3414439300
   71      C       5.0858300243     2.9093351879    -1.9613212731
   72      C       3.0137236674    -2.2578711174     0.1580256181
   73      C       2.1675611090     1.1224367338    -1.7229655450
   74      C       6.8357892091     0.5829345948     3.2551880130
   75      C       3.0029538692     3.5883340642    -0.8617366021
   76      C       7.4598914586     2.1602711515     1.8197177872
   77      C       3.1337745458     3.8849102054     1.3995111824
   78      C       5.5437838671     1.6387818571    -2.4775048756
   79      C       3.6882171492     2.9387823099    -1.9216209144
   80      C       7.3450345220    -0.5588844516    -0.5114507375
   81      C       7.0109703236    -1.2645925647     1.7103087388
   82      C       3.4689782214     2.7238600561     3.4857784344
   83      C       5.7812251114     3.5011219444    -0.9100786239
   84      C       1.0217254042     0.8078032760     0.1089906021
   85      C       3.4779003582     0.0255487760     3.9010188842
   86      C       1.5658510714     2.2335491045     1.9873848873
   87      C       7.4630628884    -0.0247378254     2.1777159897
   88      C       5.7963867076     2.8504979710     3.5005627775
   89      O       0.6001208036     6.0211683143    -2.3457382094
   90      C       1.9078874650     6.1306916602    -2.6671616004
   91      H       2.1262365664     5.7515940427    -3.6741336289
   92      H       2.5269268187     5.7733800779    -1.8351497545
   93      H       2.1115032762     7.2015280895    -2.7877391399
   94      O       0.8507166304     6.9862046958    -0.2453438383
   95      C       0.1929875459     6.3926290761    -1.0816723832
   96      C      -1.2577354000     6.0037426525    -0.9796955040
   97      H      -1.7076352474     6.1267364898    -1.9722969565
   98      H      -1.5485113688     6.8348494647    -0.3242843333
   99      C      -1.3747462749     4.6163718445    -0.3870516852
  100      H      -1.2367920925     3.9028487961    -1.2093177631
  101      H      -0.5669743177     4.2997061473     0.2840349719
  102      C      -2.7051733929     4.3764593028     0.3328577926
  103      H      -2.5322238157     3.7236758180     1.1967328794
  104      H      -3.1376519054     5.3316608804     0.6549839826
  105      C      -3.7653116060     3.6198551205    -0.4956233963
  106      C      -4.3977526298     4.3803782170    -1.6079794414
  107      C      -5.4602802555     5.2280082311    -1.3361570661
  108      H      -5.8248069804     5.2749533289    -0.3140917919
  109      C      -6.0403953630     6.0340658593    -2.2948491762
  110      H      -6.9214029445     6.5998036251    -2.0068640696
  111      C      -5.6263896110     5.9448393569    -3.6816569742
  112      H      -6.1407305656     6.4733388210    -4.4784842447
  113      C      -4.5171848915     5.1076719597    -3.9374237414
  114      H      -4.1842803396     5.0651488751    -4.9704655347
  115      C      -3.7875815260     4.4903728005    -2.8665331414
  116      H      -2.9610951897     3.8319160629    -3.1175233014
  117      C      -8.3352287671     0.4731934027    -0.3626001837
  118      C      -7.1874847286    -0.1999812328    -2.4356569925
  119      C      -5.8509822131    -4.2189986824    -1.0750491262
  120      C      -5.0825514593     0.0699213832     3.5287975098
  121      C      -2.6035915971    -3.2540341036    -0.3342370388
  122      C      -7.5397650417     0.7993818823    -1.4724130227
  123      C      -3.3167587968    -2.0433899720     2.9822406608
  124      C      -7.9764558905    -3.0719414444    -0.6745215496
  125      C      -3.2338132533     0.2928093310    -2.0716579188
  126      C      -3.8288497803     0.3678646320     2.9997352067
  127      C      -3.6631828885     2.0703775136    -0.7071059511
  128      C      -2.3148266947     0.1630214130    -1.1007012764
  129      C      -2.1954888264    -0.3214415220     1.6721245634
  130      C      -3.0114905370    -3.0685740397     2.0877291087
  131      C      -5.4570122836     1.2155890610    -2.2876709774
  132      C      -4.4195642885    -4.4421489035     0.6643621834
  133      C      -4.7169944996     2.5871637497     0.1987412074
  134      C      -4.7145891228     2.2048744978     1.6692846926
  135      C      -3.6356962731    -4.1765790355    -0.4785553900
  136      C      -7.2929523250    -2.4990974000     2.6964246939
  137      C      -6.7836707797    -4.0463715657     1.2013554768
  138      C      -7.8715564014    -3.3411135143     0.7283428394
  139      C      -8.3876764730    -1.8455895258    -1.1212357805
  140      C      -5.9851725827     1.8390136448     2.0802317787
  141      C      -4.1041569219     1.3335351639    -1.9225886756
  142      C      -7.6534408216    -1.5023177198    -2.2350838291
  143      C      -2.9296062169    -0.6926348660     2.7678239557
  144      C      -5.9009991271     0.0660435751    -2.9291745695
  145      C      -1.9517198843    -1.1446095176    -0.6494277522
  146      C      -7.2470873079    -0.0953150729     2.9567262958
  147      C      -6.9565647633    -3.5132226951    -1.5132687978
  148      C      -2.6130843941     1.1730252672    -0.1813017119
  149      C      -8.5753105303    -1.1129610853     1.1996356138
  150      C      -1.9251066644    -1.3875331964     0.7459345029
  151      C      -3.7222375384    -0.8134616520    -2.8197008520
  152      C      -5.0768828382    -3.4947172371     2.7930330273
  153      C      -4.6090057900    -2.3489085323     3.4542164208
  154      C      -3.2710172770    -2.1170189859    -2.4294963507
  155      C      -6.1549836401     0.7701410442     3.0391173655
  156      C      -3.6449951964     1.3542449714     2.0998055883
  157      C      -6.7821577951    -1.3652718858     3.3812828191
  158      C      -6.1271988862     2.2804233818    -0.2205795941
  159      C      -5.4618575576    -2.2734572089    -2.9812779627
  160      C      -2.5648540073     0.9460839106     1.2382113914
  161      C      -2.3693531682    -2.2603892548    -1.3097027086
  162      C      -8.1187044478     0.0235202994     1.8414291535
  163      C      -4.5642928686    -4.0433162875    -1.5920657863
  164      C      -8.7096164587    -0.8627703936    -0.1476592817
  165      C      -5.7681626979    -4.4790665241     0.3090912734
  166      C      -5.0594734429    -0.9636693065    -3.1660688586
  167      C      -4.3493299446    -2.9943753903    -2.5653401235
  168      C      -6.4609919882     1.6414007147    -1.4036963238
  169      C      -6.8621768142     1.8323574969     0.9495769801
  170      C      -6.4696393989    -3.5655898047     2.4986400216
  171      C      -6.7810185689    -2.5597018600    -2.5561012631
  172      C      -2.2844964758    -2.7078531549     0.9440132007
  173      C      -5.5034902745    -1.2831565600     3.7501492516
  174      C      -4.0635105597    -3.9818921614     1.9429158481
  175      C      -7.9459730396     0.9990788689     0.8862802969
  176      C      -8.1557527514    -2.3959682702     1.6589065944
 ----------------------------------------------------------------

    9   -5804.2172474583      7.84E-06 Convergence criterion met
 Total energy in the final basis set = -5804.2172474583

                    Orbital Energies (a.u.)
 --------------------------------------------------------------

 Alpha MOs
 -- Occupied --
-19.187 -19.184 -19.141 -19.123 -10.314 -10.304 -10.248 -10.245
-10.241 -10.240 -10.239 -10.236 -10.235 -10.234 -10.232 -10.228
-10.227 -10.227 -10.226 -10.226 -10.226 -10.225 -10.223 -10.222
-10.222 -10.222 -10.222 -10.221 -10.221 -10.221 -10.221 -10.221
-10.221 -10.220 -10.220 -10.220 -10.219 -10.219 -10.219 -10.218
-10.218 -10.218 -10.218 -10.218 -10.218 -10.217 -10.217 -10.217
-10.217 -10.217 -10.217 -10.217 -10.217 -10.217 -10.217 -10.217
-10.217 -10.216 -10.216 -10.216 -10.216 -10.216 -10.216 -10.215
-10.215 -10.215 -10.215 -10.215 -10.215 -10.215 -10.214 -10.214
-10.214 -10.214 -10.214 -10.214 -10.214 -10.213 -10.213 -10.213
-10.213 -10.213 -10.213 -10.213 -10.213 -10.213 -10.212 -10.212
-10.212 -10.212 -10.212 -10.212 -10.212 -10.211 -10.211 -10.211
-10.211 -10.211 -10.211 -10.211 -10.211 -10.211 -10.210 -10.210
-10.210 -10.210 -10.210 -10.210 -10.210 -10.209 -10.209 -10.209
-10.208 -10.208 -10.208 -10.208 -10.208 -10.208 -10.208 -10.208
-10.208 -10.207 -10.207 -10.207 -10.207 -10.206 -10.206 -10.206
-10.206 -10.206 -10.206 -10.205 -10.205 -10.204 -10.204 -10.204
-10.203 -10.203 -10.203 -10.202 -10.202 -10.200 -10.200 -10.199
-10.198 -10.196 -10.195 -10.194  -1.112  -1.103  -1.021  -1.010
 -0.987  -0.985  -0.971  -0.968  -0.967  -0.965  -0.963  -0.961
 -0.937  -0.931  -0.930  -0.930  -0.929  -0.928  -0.927  -0.926
 -0.923  -0.922  -0.902  -0.895  -0.894  -0.893  -0.892  -0.886
 -0.875  -0.874  -0.856  -0.852  -0.846  -0.845  -0.843  -0.840
 -0.839  -0.839  -0.822  -0.822  -0.810  -0.807  -0.802  -0.801
 -0.800  -0.798  -0.796  -0.796  -0.793  -0.793  -0.785  -0.783
 -0.774  -0.773  -0.772  -0.771  -0.770  -0.768  -0.765  -0.764
 -0.752  -0.750  -0.747  -0.746  -0.732  -0.731  -0.720  -0.717
 -0.717  -0.715  -0.715  -0.714  -0.713  -0.713  -0.712  -0.711
 -0.710  -0.710  -0.708  -0.705  -0.704  -0.698  -0.675  -0.673
 -0.661  -0.660  -0.659  -0.658  -0.649  -0.648  -0.633  -0.633
 -0.630  -0.628  -0.628  -0.625  -0.622  -0.622  -0.621  -0.619
 -0.618  -0.618  -0.615  -0.614  -0.613  -0.612  -0.610  -0.608
 -0.608  -0.608  -0.606  -0.605  -0.569  -0.567  -0.566  -0.566
 -0.564  -0.562  -0.562  -0.560  -0.559  -0.558  -0.555  -0.553
 -0.538  -0.536  -0.534  -0.532  -0.531  -0.530  -0.529  -0.526
 -0.525  -0.523  -0.521  -0.519  -0.518  -0.517  -0.517  -0.516
 -0.514  -0.509  -0.508  -0.501  -0.494  -0.493  -0.490  -0.489
 -0.487  -0.485  -0.485  -0.483  -0.481  -0.479  -0.478  -0.475
 -0.475  -0.474  -0.473  -0.471  -0.469  -0.468  -0.468  -0.468
 -0.467  -0.466  -0.465  -0.464  -0.463  -0.462  -0.460  -0.457
 -0.456  -0.455  -0.453  -0.452  -0.447  -0.446  -0.446  -0.446
 -0.444  -0.444  -0.442  -0.440  -0.440  -0.439  -0.435  -0.433
 -0.432  -0.431  -0.430  -0.429  -0.428  -0.428  -0.426  -0.425
 -0.424  -0.423  -0.422  -0.421  -0.421  -0.420  -0.420  -0.419
 -0.419  -0.418  -0.417  -0.417  -0.416  -0.416  -0.415  -0.413
 -0.413  -0.411  -0.409  -0.407  -0.403  -0.403  -0.400  -0.397
 -0.396  -0.394  -0.394  -0.390  -0.389  -0.388  -0.388  -0.387
 -0.380  -0.379  -0.377  -0.374  -0.373  -0.371  -0.369  -0.367
 -0.366  -0.365  -0.364  -0.363  -0.363  -0.362  -0.360  -0.358
 -0.357  -0.356  -0.355  -0.355  -0.354  -0.354  -0.353  -0.352
 -0.351  -0.348  -0.347  -0.347  -0.346  -0.346  -0.345  -0.344
 -0.342  -0.341  -0.341  -0.340  -0.339  -0.338  -0.336  -0.336
 -0.334  -0.333  -0.332  -0.331  -0.329  -0.328  -0.326  -0.324
 -0.310  -0.303  -0.296  -0.290  -0.287  -0.284  -0.274  -0.273
 -0.272  -0.270  -0.269  -0.268  -0.268  -0.266  -0.265  -0.264
 -0.263  -0.263  -0.262  -0.261  -0.259  -0.256  -0.256  -0.255
 -0.254  -0.249  -0.248  -0.243  -0.221  -0.219  -0.213  -0.213
 -0.212  -0.211  -0.209  -0.207  -0.200  -0.198

          Ground-State Mulliken Net Atomic Charges

     Atom                 Charge (a.u.)
  ----------------------------------------
      1 O                    -0.454495
      2 C                    -0.090000
      3 H                     0.123392
      4 H                     0.134049
      5 H                     0.123570
      6 O                    -0.483738
      7 C                     0.600016
      8 C                    -0.263318
      9 H                     0.128030
     10 H                     0.119567
     11 C                    -0.195212
     12 H                     0.104529
     13 H                     0.131340
     14 C                    -0.199777
     15 H                     0.124696
     16 H                     0.112625
     17 C                     0.023538
     18 C                     0.081582
     19 C                    -0.100913
     20 H                     0.099945
     21 C                    -0.096296
     22 H                     0.090523
     23 C                    -0.073585
     24 H                     0.089284
     25 C                    -0.091281
     26 H                     0.093520
     27 C                    -0.105047
     28 H                     0.095577
     29 C                    -0.038253
     30 C                    -0.021025
     31 C                     0.014896
     32 C                    -0.029057
     33 C                    -0.006974
     34 C                     0.034505
     35 C                     0.003274
     36 C                    -0.009075
     37 C                     0.018364
     38 C                     0.003159
     39 C                    -0.084652
     40 C                    -0.004853
     41 C                    -0.005373
     42 C                     0.033049
     43 C                     0.005661
     44 C                    -0.020978
     45 C                    -0.094596
     46 C                     0.020812
     47 C                    -0.015751
     48 C                     0.012219
     49 C                     0.012062
     50 C                    -0.008878
     51 C                    -0.017772
     52 C                     0.003885
     53 C                     0.016386
     54 C                    -0.000363
     55 C                    -0.017490
     56 C                    -0.011207
     57 C                    -0.013425
     58 C                    -0.031376
     59 C                     0.001983
     60 C                     0.032823
     61 C                     0.033363
     62 C                    -0.034147
     63 C                    -0.004258
     64 C                    -0.004703
     65 C                     0.018715
     66 C                    -0.001151
     67 C                     0.023108
     68 C                     0.013618
     69 C                     0.000348
     70 C                     0.005679
     71 C                    -0.031821
     72 C                     0.015130
     73 C                     0.025469
     74 C                    -0.021259
     75 C                    -0.015678
     76 C                     0.012092
     77 C                     0.006159
     78 C                     0.022806
     79 C                     0.002806
     80 C                     0.018618
     81 C                     0.013123
     82 C                     0.006729
     83 C                     0.030859
     84 C                     0.000235
     85 C                     0.002329
     86 C                    -0.025307
     87 C                     0.017615
     88 C                    -0.029162
     89 O                    -0.438943
     90 C                    -0.083223
     91 H                     0.111944
     92 H                     0.120916
     93 H                     0.103645
     94 O                    -0.467131
     95 C                     0.574971
     96 C                    -0.237852
     97 H                     0.140565
     98 H                     0.125818
     99 C                    -0.198484
    100 H                     0.115960
    101 H                     0.125034
    102 C                    -0.175419
    103 H                     0.108724
    104 H                     0.116769
    105 C                     0.002836
    106 C                     0.101171
    107 C                    -0.093133
    108 H                     0.089973
    109 C                    -0.094687
    110 H                     0.090549
    111 C                    -0.084452
    112 H                     0.098494
    113 C                    -0.099967
    114 H                     0.091974
    115 C                    -0.122264
    116 H                     0.093890
    117 C                    -0.036834
    118 C                    -0.017314
    119 C                     0.023971
    120 C                    -0.013690
    121 C                     0.001624
    122 C                     0.013404
    123 C                     0.022501
    124 C                     0.009032
    125 C                     0.031233
    126 C                     0.007537
    127 C                    -0.094388
    128 C                     0.016799
    129 C                    -0.009593
    130 C                    -0.021022
    131 C                     0.006549
    132 C                     0.007948
    133 C                    -0.090404
    134 C                     0.004827
    135 C                    -0.025619
    136 C                     0.030159
    137 C                    -0.009652
    138 C                    -0.002297
    139 C                     0.012487
    140 C                     0.004575
    141 C                     0.035929
    142 C                     0.004172
    143 C                     0.001072
    144 C                    -0.014441
    145 C                    -0.002264
    146 C                    -0.025452
    147 C                    -0.005486
    148 C                     0.019347
    149 C                     0.001218
    150 C                     0.016024
    151 C                    -0.028120
    152 C                     0.002107
    153 C                    -0.011741
    154 C                    -0.028059
    155 C                    -0.002310
    156 C                     0.021561
    157 C                     0.010289
    158 C                     0.037915
    159 C                     0.031625
    160 C                    -0.030402
    161 C                    -0.012489
    162 C                     0.004993
    163 C                    -0.025139
    164 C                     0.001005
    165 C                     0.012474
    166 C                     0.022180
    167 C                    -0.005454
    168 C                     0.020911
    169 C                    -0.000583
    170 C                    -0.037377
    171 C                    -0.037700
    172 C                     0.010133
    173 C                     0.001781
    174 C                     0.005195
    175 C                     0.004467
    176 C                     0.007693
  ----------------------------------------
  Sum of atomic charges =     0.000000

                    Cartesian Multipole Moments
 -----------------------------------------------------------------
    Charge (ESU x 10^10)
                 0.0000
    Dipole Moment (Debye)
         X       1.4487      Y      -0.8891      Z      -4.5111
       Tot       4.8207
    Quadrupole Moments (Debye-Ang)
        XX    -782.3163     XY     -36.1454     YY    -811.5602
        XZ     -10.4037     YZ      -0.0236     ZZ    -797.2237

 Total job time:  901.54s(wall), 8658.57s(cpu)
        *  Thank you very much for using Q-Chem.  Have a nice day.  *
