 Q-Chem 4.4, Q-Chem, Inc., Pleasanton, CA (2016)
 Q-Chem 4.4.2 for Intel X86 Linux

User input:
--------------------------------------------------------------
$comment
SP
$end

$rem
MEM_STATIC 5000
MEM_TOTAL 20000
JOBTYPE SP
EXCHANGE B3LYP
BASIS 6-31g(d,p)
$end

$molecule
0 1
O          -9.077000     13.992000      9.537000
C         -10.494000     14.511000      9.570000
H         -11.112000     13.947000     10.280000
H         -10.910000     14.307000      8.576000
H         -10.507000     15.578000      9.823000
O          -8.428000     15.178000      7.790000
C          -8.158000     14.453000      8.647000
C          -6.850000     13.671000      8.757000
H          -7.003000     12.585000      8.794000
H          -6.473000     13.853000      9.771000
C          -5.836000     13.951000      7.683000
H          -5.861000     15.006000      7.383000
H          -4.808000     13.875000      8.059000
C          -6.021000     13.054000      6.451000
H          -5.088000     13.083000      5.876000
H          -6.258000     12.038000      6.790000
C          -7.046000     13.464000      5.373000
C          -6.711000     14.676000      4.643000
C          -7.279000     15.888000      4.879000
H          -8.196000     15.927000      5.461000
C          -6.857000     17.109000      4.233000
H          -7.334000     18.067000      4.421000
C          -5.769000     17.099000      3.406000
H          -5.471000     18.011000      2.896000
C          -5.207000     15.817000      3.080000
H          -4.472000     15.687000      2.292000
C          -5.675000     14.675000      3.671000
H          -5.143000     13.742000      3.512000
C         -12.550000     13.661000      4.329000
C         -11.500000     13.450000      2.167000
C         -13.010000      9.199000      1.434000
C         -10.916000     10.006000      7.416000
C          -9.909000      7.745000      2.411000
C         -11.491000     13.958000      3.450000
C         -10.549000      7.666000      5.921000
C         -14.131000     11.038000      2.469000
C          -8.012000     11.300000      2.403000
C          -9.625000      9.579000      7.108000
C          -7.694000     12.342000      4.498000
C          -7.718000     10.267000      3.273000
C          -8.394000      8.749000      5.451000
C         -10.635000      7.181000      4.591000
C          -9.322000     13.349000      2.864000
C         -12.289000      7.504000      2.873000
C          -8.524000     12.979000      5.643000
C          -9.105000     11.930000      6.621000
C         -11.269000      7.858000      2.043000
C         -13.980000      9.763000      5.693000
C         -14.159000      8.890000      3.595000
C         -14.566000     10.264000      3.538000
C         -13.693000     12.348000      2.715000
C         -10.392000     12.342000      6.841000
C          -8.209000     12.513000      3.110000
C         -12.621000     12.679000      1.831000
C          -9.435000      8.443000      6.373000
C         -10.180000     13.033000      1.818000
C          -8.192000      8.986000      3.032000
C         -12.699000     11.343000      7.042000
C         -13.367000     10.525000      1.417000
C          -7.489000     10.811000      4.514000
C         -14.068000     12.045000      5.079000
C          -8.514000      8.230000      4.144000
C          -8.961000     10.992000      1.312000
C         -12.784000      7.759000      5.254000
C         -11.841000      8.076000      6.306000
C          -9.476000      9.710000      1.151000
C         -11.321000     11.378000      7.326000
C          -8.701000     10.561000      6.684000
C         -13.118000     10.025000      6.764000
C          -9.779000     13.751000      5.224000
C         -11.135000     11.068000      0.659000
C          -7.936000     10.049000      5.635000
C          -9.021000      8.725000      1.987000
C         -13.122000     12.353000      6.126000
C         -11.743000      8.797000      1.122000
C         -13.654000     12.882000      4.025000
C         -13.411000      8.350000      2.530000
C         -10.010000     11.874000      0.984000
C         -10.799000      9.751000      0.721000
C         -10.149000     13.919000      3.867000
C         -10.833000     13.364000      6.038000
C         -13.856000      8.615000      4.986000
C         -12.456000     11.491000      1.063000
C          -9.597000      7.477000      3.738000
C         -12.047000      9.232000      7.057000
C         -11.996000      7.220000      4.233000
C         -12.222000     13.340000      5.662000
C         -14.492000     10.745000      4.853000
O           5.428000     10.663000      9.455000
C           6.840000     10.665000      9.814000
H           7.030000      9.906000     10.583000
H           7.125000     11.629000     10.251000
H           7.512000     10.486000      8.965000
O           5.739000     10.678000      7.163000
C           5.023000     10.759000      8.159000
C           3.494000     10.657000      8.012000
H           3.163000      9.788000      8.595000
H           3.353000     10.294000      6.987000
C           2.729000     11.861000      8.417000
H           3.230000     12.238000      9.317000
H           2.837000     12.698000      7.716000
C           1.170000     11.724000      8.749000
H           1.081000     10.916000      9.485000
H           0.744000     12.625000      9.208000
C           0.394000     11.465000      7.462000
C           0.342000     12.635000      6.541000
C           1.342000     12.833000      5.512000
H           2.170000     12.145000      5.373000
C           1.330000     14.035000      4.812000
H           2.016000     14.209000      3.988000
C           0.239000     14.881000      4.959000
H           0.101000     15.681000      4.239000
C          -0.816000     14.646000      5.847000
H          -1.579000     15.418000      5.872000
C          -0.697000     13.611000      6.726000
H          -1.507000     13.503000      7.441000
C          -4.185000      9.522000      5.230000
C          -2.510000      8.855000      3.598000
C          -2.624000      4.402000      4.525000
C          -2.943000      7.896000      9.809000
C           0.226000      4.481000      6.539000
C          -3.042000      9.795000      4.490000
C          -1.542000      5.433000      9.592000
C          -4.476000      6.039000      4.315000
C           1.026000      8.315000      5.395000
C          -1.558000      7.820000      9.871000
C           0.372000     10.002000      6.932000
C           1.329000      7.889000      6.714000
C           0.347000      6.920000      9.102000
C          -1.042000      4.515000      8.611000
C          -0.723000      9.766000      4.667000
C          -2.056000      3.695000      6.557000
C          -0.877000     10.591000      7.452000
C          -1.514000      9.933000      8.670000
C          -0.879000      3.890000      5.850000
C          -5.117000      6.026000      7.749000
C          -4.339000      4.520000      6.228000
C          -4.972000      5.602000      5.560000
C          -4.421000      7.391000      4.058000
C          -2.854000      9.884000      8.573000
C           0.400000      9.552000      5.509000
C          -3.237000      7.673000      3.336000
C          -0.849000      6.661000      9.787000
C          -1.121000      8.854000      3.715000
C           1.346000      6.508000      6.945000
C          -4.693000      8.334000      8.483000
C          -3.272000      5.416000      3.796000
C           0.953000      8.809000      7.668000
C          -5.419000      7.862000      6.223000
C           0.875000      6.004000      8.201000
C           0.614000      7.360000      4.436000
C          -3.294000      4.578000      8.425000
C          -2.925000      5.519000      9.406000
C           0.627000      5.936000      4.665000
C          -3.622000      8.867000      9.210000
C          -0.833000      8.876000      9.324000
C          -4.746000      6.966000      8.720000
C          -2.056000     10.693000      6.523000
C          -1.151000      6.482000      3.285000
C           0.377000      8.311000      8.844000
C           1.000000      5.506000      5.962000
C          -5.051000      8.802000      7.200000
C          -1.216000      4.377000      4.602000
C          -4.896000      8.355000      4.990000
C          -3.141000      3.988000      5.752000
C          -0.449000      7.644000      3.508000
C          -0.495000      5.397000      3.989000
C          -1.899000     10.315000      5.189000
C          -3.197000     10.370000      7.268000
C          -4.400000      4.835000      7.610000
C          -2.574000      6.441000      3.166000
C           0.081000      4.826000      7.905000
C          -3.671000      6.689000      9.572000
C          -2.109000      3.984000      7.912000
C          -4.293000      9.808000      6.592000
C          -5.455000      6.478000      6.483000
$end

--------------------------------------------------------------

             Standard Nuclear Orientation (Angstroms)
    I     Atom           X                Y                Z
 ----------------------------------------------------------------
    1      O       3.2042805643    -3.6615145217     4.5002018515
    2      C       4.6475290801    -3.8994227257     4.8727235396
    3      H       4.9471967476    -3.2856717232     5.7315768426
    4      H       5.2387185090    -3.5405740876     4.0215885832
    5      H       4.8189550612    -4.9607563447     5.0891746473
    6      O       3.2522408614    -4.8068130858     2.6118700457
    7      C       2.6410502220    -4.2180057091     3.3946381311
    8      C       1.2127014849    -3.7133226151     3.1956334585
    9      H       1.1252340413    -2.6246507063     3.3020144773
   10      H       0.6491770845    -4.0447535768     4.0765663548
   11      C       0.5662228509    -4.0963476040     1.8935469661
   12      H       0.8792888047    -5.0994882527     1.5783509198
   13      H      -0.5148997057    -4.2496215682     2.0013296617
   14      C       0.8526280818    -3.0850743618     0.7746383581
   15      H       0.1115136750    -3.2468651140    -0.0168969782
   16      H       0.7867843543    -2.0728343689     1.1922276305
   17      C       2.1682039058    -3.2030180003    -0.0229571218
   18      C       2.2753038333    -4.3945865066    -0.8492519242
   19      C       3.0071870211    -5.4897113073    -0.5141210987
   20      H       3.7454517736    -5.3980656322     0.2781542484
   21      C       3.0134466248    -6.7135111631    -1.2812688877
   22      H       3.6181950801    -7.5738572278    -1.0079175484
   23      C       2.1777395184    -6.8468298010    -2.3543917945
   24      H       2.2053322112    -7.7554201232    -2.9496650677
   25      C       1.4587286207    -5.6748994375    -2.7730163903
   26      H       0.9238153022    -5.6261095943    -3.7161793099
   27      C       1.5255832071    -4.5151369578    -2.0498632565
   28      H       0.8668485154    -3.6921301829    -2.3097140877
   29      C       7.6807749142    -2.2544342241     0.3437998773
   30      C       7.1601278525    -2.0772696780    -2.0054136849
   31      C       7.8927649463     2.4293940906    -2.2094101698
   32      C       4.6367604555     0.7600015858     3.0281438796
   33      C       4.4169388764     3.1775117925    -2.0001279780
   34      C       6.9483060266    -2.6783043558    -0.7814354048
   35      C       4.1653521277     3.0975719014     1.5588402323
   36      C       9.0866547172     0.7635028827    -0.9809067313
   37      C       3.3516364873    -0.6636202996    -2.5896473335
   38      C       3.3980001949     0.9540977530     2.4184934102
   39      C       2.7617990008    -1.9111804294    -0.6735057776
   40      C       2.6511054844     0.2207913189    -1.7912129887
   41      C       2.4569157724     1.6615998358     0.5307140501
   42      C       4.4662396069     3.6946626714     0.3080523456
   43      C       4.9058540781    -2.4527593461    -1.8752166840
   44      C       6.5142072810     3.8338085618    -0.9481466143
   45      C       3.4055986760    -2.4661090346     0.6239032640
   46      C       3.5059251037    -1.4064867709     1.7471046111
   47      C       5.8187181152     3.3577708797    -2.0178657108
   48      C       7.9069311432     1.7241672530     2.1380639734
   49      C       8.4004416978     2.7799506871     0.1790992793
   50      C       9.0832897187     1.5188196957     0.1855182294
   51      C       8.8819777559    -0.6216369299    -0.8917156949
   52      C       4.7589218341    -1.5796547019     2.2710560031
   53      C       3.6187267443    -1.8686356230    -1.8920601596
   54      C       8.1453808807    -1.0808620426    -2.0260605893
   55      C       3.1601340557     2.0873801635     1.6932957283
   56      C       5.9057572804    -1.8952553256    -2.6623118836
   57      C       2.8947084527     1.5840865621    -1.8673817072
   58      C       6.6934233348    -0.1751514329     3.0746264798
   59      C       8.5086908133     1.2024080418    -2.1754313175
   60      C       2.2480761591    -0.4543879787    -0.6641999990
   61      C       8.6079066949    -0.4419257690     1.4985811386
   62      C       2.7775327769     2.2966449401    -0.6882742402
   63      C       4.4503163035    -0.0928574096    -3.3976562349
   64      C       6.4648508151     3.4894472427     1.4722232379
   65      C       5.3830776540     2.9141482993     2.2437411921
   66      C       4.7134070190     1.2729096531    -3.3860974332
   67      C       5.3252196255    -0.4969230382     3.0021927590
   68      C       2.8255130368    -0.1501486718     1.7470961455
   69      C       6.8861081681     1.2167159564     2.9499399708
   70      C       4.8557730380    -2.9465289326     0.5109384838
   71      C       6.6850844349     0.3028031689    -3.4855488122
   72      C       2.2460864449     0.2873466690     0.5551931916
   73      C       3.8781913580     2.0821411115    -2.6624226123
   74      C       7.5226335078    -1.0085992517     2.2647745041
   75      C       6.6828828807     2.6039701018    -2.8176417077
   76      C       8.6405721740    -1.2560240896     0.3500786828
   77      C       7.8352141223     3.2493777939    -1.0231839566
   78      C       5.7058874401    -0.7277286478    -3.4775851528
   79      C       6.0801338311     1.5214300925    -3.4709821330
   80      C       5.5670869454    -2.9313951112    -0.7139600804
   81      C       5.5805583256    -2.4304014178     1.5746958223
   82      C       7.7224838068     2.8796372981     1.4568906072
   83      C       7.9284389291     0.1107214460    -2.7753655868
   84      C       3.7472461234     3.2737313071    -0.7867235023
   85      C       5.6364023587     1.7631018446     2.9878457904
   86      C       5.8513222989     3.9466950900     0.3024313050
   87      C       6.9835447969    -2.1099297188     1.5605589378
   88      C       8.7965622959     0.9291453822     1.4249267936
   89      O     -11.2221360124    -3.1868680896     0.8756735345
   90      C     -12.6473936650    -3.4888851728     0.8682367860
   91      H     -13.1685748793    -2.8444200420     1.5869695855
   92      H     -12.8240498194    -4.5214426098     1.1908941000
   93      H     -13.1179953520    -3.3751891894    -0.1166658871
   94      O     -10.9639640548    -3.0783329126    -1.4203616036
   95      C     -10.5070930310    -3.0994536464    -0.2792850145
   96      C      -9.0423270465    -2.6940631512    -0.0343908395
   97      H      -9.0472765200    -1.8270162823     0.6385253735
   98      H      -8.7373342209    -2.2300791369    -0.9798924052
   99      C      -8.1657689772    -3.7569901381     0.5139686883
  100      H      -8.7793924202    -4.2938834984     1.2476864744
  101      H      -7.9275395867    -4.5404544218    -0.2161439562
  102      C      -6.7947209178    -3.3498412081     1.2308584759
  103      H      -7.0534009089    -2.6011880922     1.9892015212
  104      H      -6.3151408502    -4.1858737190     1.7552730062
  105      C      -5.8030212167    -2.8446096801     0.1883140855
  106      C      -5.2916006030    -3.9054642144    -0.7243093926
  107      C      -5.9524918733    -4.2091865958    -1.9769148548
  108      H      -6.8463559767    -3.6843053146    -2.2990260239
  109      C      -5.5254684002    -5.3266724748    -2.6867206476
  110      H      -5.9426286325    -5.5629330065    -3.6614033148
  111      C      -4.3514772539    -5.9561813198    -2.2954797978
  112      H      -3.8829403740    -6.6546554470    -2.9810825150
  113      C      -3.6121902466    -5.5944408166    -1.1643774465
  114      H      -2.7353219784    -6.2048749155    -0.9713742049
  115      C      -4.1492783582    -4.6751548582    -0.3132154836
  116      H      -3.5747260339    -4.4709129106     0.5852074978
  117      C      -1.3236911257     0.1141616824    -0.7633097688
  118      C      -2.6583995065     0.5748963770    -2.7432630711
  119      C      -3.6901278736     4.8782845527    -1.6859453390
  120      C      -3.9359312090     1.1002613609     3.4029223624
  121      C      -6.8609165480     4.0924280531    -0.4557153833
  122      C      -2.1741536562    -0.3134768080    -1.7744560518
  123      C      -5.7203301718     3.2573632399     2.9139532170
  124      C      -1.5455658013     3.6498705765    -1.4723437908
  125      C      -6.5554067783     0.2799531297    -1.8769791658
  126      C      -5.2803597892     0.9034370764     3.1172354815
  127      C      -5.9563416975    -1.3671061572    -0.2756138939
  128      C      -7.2471917472     0.5330811891    -0.6643762867
  129      C      -7.0883935871     1.4789627753     1.9213383474
  130      C      -6.1483253416     4.1374742982     1.8664277235
  131      C      -4.4225473432    -0.7449766333    -2.1849006021
  132      C      -4.8623277156     5.2984005191     0.1582203545
  133      C      -4.7749339050    -1.7446527070     0.5237960326
  134      C      -4.5985346685    -1.0758648504     1.8816852447
  135      C      -5.7690342040     4.9378842070    -0.8272309800
  136      C      -1.7643658172     3.5116357501     2.0113932380
  137      C      -2.4476160807     4.9565473888     0.3889998104
  138      C      -1.4638785181     4.0732409852    -0.1302951014
  139      C      -1.2575268516     2.3374242018    -1.7748269752
  140      C      -3.3141469332    -0.7626331006     2.1259064894
  141      C      -5.7340692808    -0.8187360701    -1.6460511308
  142      C      -2.1493504781     1.8916651666    -2.7791244918
  143      C      -6.1715671911     1.9074859270     2.8921726629
  144      C      -4.0043724683     0.2995546992    -2.9789636156
  145      C      -7.6032680587     1.8621291453    -0.4042759395
  146      C      -1.8672866313     1.1140820705     2.5466872317
  147      C      -2.6915285081     4.0692421545    -2.2584754301
  148      C      -6.9299376699    -0.3706644792     0.3258184504
  149      C      -0.7333663158     1.8957189709     0.5565293299
  150      C      -7.5617403312     2.3453488951     0.9441183357
  151      C      -6.1311292075     1.3697925932    -2.6730246965
  152      C      -3.9543270848     4.5235591736     2.2503276040
  153      C      -4.3459769131     3.4539217440     3.0788740308
  154      C      -6.4917894724     2.7418274060    -2.4125815244
  155      C      -2.9479840159     0.3288571389     2.9652251268
  156      C      -5.6192972234    -0.2251193272     2.3746374343
  157      C      -2.1557188254     2.4433903614     2.8297920482
  158      C      -3.4124794481    -1.5436364948    -0.0818410992
  159      C      -4.3613721404     2.6597062012    -3.3172240500
  160      C      -6.7683636302     0.1332555311     1.6230132904
  161      C      -7.2455241916     2.9871695949    -1.2387292409
  162      C      -1.1233134412     0.8275711954     1.3814866435
  163      C      -5.0494690720     4.6259587560    -1.9644075423
  164      C      -0.8320107310     1.4114272143    -0.7823499678
  165      C      -3.5794601873     5.2846320814    -0.3567168601
  166      C      -4.8414644355     1.3704182702    -3.3122221498
  167      C      -5.3761874045     3.5386519980    -2.7687887611
  168      C      -3.3191121448    -1.0975901039    -1.4007096157
  169      C      -2.5754150199    -1.0678765482     0.9351203634
  170      C      -2.6565541140     4.5498371333     1.7320566470
  171      C      -2.9913173941     2.9828229193    -3.0736740987
  172      C      -6.9801466889     3.6737977361     0.8920749681
  173      C      -3.4370842526     2.4396789901     3.3922392614
  174      C      -5.0777309762     4.9177387849     1.4739152581
  175      C      -1.4892163736    -0.2535530778     0.5730626521
  176      C      -1.0467422580     3.2355730926     0.8580893593
 ----------------------------------------------------------------

    9   -5804.2705240710      7.97E-06 Convergence criterion met
 Total energy in the final basis set = -5804.2705240710

                    Orbital Energies (a.u.)
 --------------------------------------------------------------

 Alpha MOs
 -- Occupied --
-19.201 -19.181 -19.140 -19.137 -10.322 -10.313 -10.251 -10.249
-10.243 -10.241 -10.240 -10.238 -10.237 -10.235 -10.229 -10.228
-10.228 -10.226 -10.225 -10.223 -10.223 -10.222 -10.222 -10.222
-10.221 -10.221 -10.221 -10.221 -10.221 -10.221 -10.221 -10.220
-10.220 -10.220 -10.219 -10.219 -10.219 -10.219 -10.219 -10.219
-10.218 -10.218 -10.218 -10.218 -10.218 -10.217 -10.217 -10.217
-10.216 -10.216 -10.216 -10.215 -10.215 -10.215 -10.215 -10.215
-10.215 -10.215 -10.215 -10.214 -10.214 -10.214 -10.214 -10.214
-10.214 -10.214 -10.214 -10.213 -10.213 -10.213 -10.213 -10.213
-10.213 -10.213 -10.213 -10.213 -10.213 -10.213 -10.213 -10.213
-10.213 -10.213 -10.212 -10.212 -10.212 -10.212 -10.212 -10.212
-10.212 -10.212 -10.212 -10.211 -10.211 -10.211 -10.211 -10.211
-10.211 -10.211 -10.211 -10.210 -10.210 -10.210 -10.210 -10.210
-10.210 -10.210 -10.210 -10.209 -10.209 -10.209 -10.209 -10.209
-10.209 -10.209 -10.208 -10.208 -10.208 -10.208 -10.208 -10.207
-10.206 -10.206 -10.206 -10.206 -10.205 -10.205 -10.204 -10.204
-10.203 -10.203 -10.203 -10.202 -10.201 -10.201 -10.200 -10.200
-10.200 -10.199 -10.198 -10.198 -10.196 -10.195 -10.194 -10.194
-10.194 -10.192 -10.191 -10.187  -1.107  -1.092  -1.017  -1.009
 -0.984  -0.981  -0.967  -0.964  -0.963  -0.962  -0.959  -0.956
 -0.933  -0.928  -0.926  -0.926  -0.924  -0.923  -0.923  -0.922
 -0.921  -0.919  -0.898  -0.891  -0.889  -0.886  -0.885  -0.885
 -0.875  -0.873  -0.855  -0.847  -0.844  -0.841  -0.840  -0.839
 -0.837  -0.834  -0.823  -0.819  -0.808  -0.804  -0.800  -0.797
 -0.796  -0.795  -0.794  -0.794  -0.792  -0.789  -0.782  -0.782
 -0.774  -0.771  -0.768  -0.767  -0.766  -0.764  -0.763  -0.762
 -0.760  -0.742  -0.741  -0.740  -0.734  -0.729  -0.716  -0.715
 -0.714  -0.714  -0.712  -0.712  -0.711  -0.710  -0.710  -0.709
 -0.709  -0.707  -0.706  -0.704  -0.702  -0.700  -0.672  -0.670
 -0.661  -0.658  -0.656  -0.651  -0.651  -0.649  -0.629  -0.629
 -0.629  -0.627  -0.626  -0.624  -0.622  -0.620  -0.619  -0.617
 -0.614  -0.614  -0.613  -0.612  -0.612  -0.610  -0.609  -0.607
 -0.605  -0.604  -0.602  -0.600  -0.573  -0.566  -0.562  -0.561
 -0.559  -0.558  -0.558  -0.557  -0.555  -0.553  -0.551  -0.548
 -0.539  -0.534  -0.532  -0.531  -0.530  -0.527  -0.525  -0.523
 -0.522  -0.519  -0.519  -0.518  -0.517  -0.516  -0.513  -0.511
 -0.510  -0.507  -0.502  -0.500  -0.493  -0.492  -0.487  -0.485
 -0.484  -0.483  -0.482  -0.480  -0.478  -0.477  -0.475  -0.475
 -0.475  -0.471  -0.471  -0.469  -0.467  -0.467  -0.466  -0.465
 -0.464  -0.463  -0.462  -0.462  -0.461  -0.460  -0.459  -0.458
 -0.456  -0.454  -0.450  -0.449  -0.448  -0.446  -0.443  -0.443
 -0.442  -0.441  -0.439  -0.438  -0.438  -0.437  -0.435  -0.433
 -0.432  -0.429  -0.429  -0.428  -0.427  -0.426  -0.424  -0.423
 -0.423  -0.422  -0.420  -0.420  -0.420  -0.419  -0.418  -0.418
 -0.417  -0.416  -0.416  -0.415  -0.414  -0.414  -0.414  -0.412
 -0.411  -0.410  -0.410  -0.407  -0.403  -0.401  -0.398  -0.396
 -0.395  -0.394  -0.393  -0.391  -0.390  -0.388  -0.388  -0.382
 -0.381  -0.376  -0.376  -0.372  -0.371  -0.368  -0.367  -0.364
 -0.363  -0.363  -0.362  -0.360  -0.359  -0.359  -0.358  -0.357
 -0.357  -0.356  -0.355  -0.353  -0.353  -0.351  -0.351  -0.349
 -0.348  -0.348  -0.347  -0.346  -0.346  -0.343  -0.342  -0.342
 -0.341  -0.340  -0.340  -0.337  -0.337  -0.336  -0.335  -0.333
 -0.333  -0.332  -0.330  -0.329  -0.327  -0.326  -0.326  -0.323
 -0.303  -0.302  -0.301  -0.297  -0.292  -0.282  -0.277  -0.273
 -0.271  -0.270  -0.269  -0.268  -0.267  -0.265  -0.265  -0.264
 -0.262  -0.262  -0.261  -0.259  -0.257  -0.255  -0.254  -0.249
 -0.247  -0.246  -0.245  -0.241  -0.223  -0.221  -0.213  -0.212
 -0.211  -0.208  -0.204  -0.202  -0.200  -0.194

          Ground-State Mulliken Net Atomic Charges

     Atom                 Charge (a.u.)
  ----------------------------------------
      1 O                    -0.498427
      2 C                    -0.089678
      3 H                     0.133150
      4 H                     0.134335
      5 H                     0.130067
      6 O                    -0.430561
      7 C                     0.606545
      8 C                    -0.271336
      9 H                     0.139679
     10 H                     0.125708
     11 C                    -0.184101
     12 H                     0.125015
     13 H                     0.097928
     14 C                    -0.178954
     15 H                     0.105029
     16 H                     0.105573
     17 C                     0.029974
     18 C                     0.099118
     19 C                    -0.123112
     20 H                     0.116305
     21 C                    -0.091119
     22 H                     0.091266
     23 C                    -0.084938
     24 H                     0.089182
     25 C                    -0.097738
     26 H                     0.088571
     27 C                    -0.103120
     28 H                     0.086325
     29 C                     0.012979
     30 C                    -0.014121
     31 C                     0.008548
     32 C                    -0.003848
     33 C                    -0.021313
     34 C                     0.021713
     35 C                    -0.005466
     36 C                     0.016925
     37 C                    -0.023799
     38 C                    -0.004801
     39 C                    -0.105760
     40 C                     0.032131
     41 C                    -0.012881
     42 C                     0.003019
     43 C                     0.032561
     44 C                    -0.024920
     45 C                    -0.099861
     46 C                     0.038250
     47 C                     0.040801
     48 C                     0.056552
     49 C                    -0.017236
     50 C                    -0.005165
     51 C                    -0.017217
     52 C                     0.023586
     53 C                     0.041507
     54 C                     0.006016
     55 C                    -0.006132
     56 C                    -0.006728
     57 C                     0.024234
     58 C                    -0.060893
     59 C                     0.019376
     60 C                     0.027911
     61 C                    -0.008868
     62 C                     0.005693
     63 C                    -0.030606
     64 C                    -0.000958
     65 C                    -0.022574
     66 C                     0.028756
     67 C                    -0.005372
     68 C                    -0.034503
     69 C                     0.022347
     70 C                     0.021863
     71 C                    -0.003493
     72 C                     0.009574
     73 C                    -0.010184
     74 C                    -0.004582
     75 C                    -0.004953
     76 C                    -0.013786
     77 C                    -0.028544
     78 C                    -0.027063
     79 C                     0.005724
     80 C                    -0.006350
     81 C                     0.003885
     82 C                    -0.016028
     83 C                    -0.014102
     84 C                     0.003991
     85 C                     0.003112
     86 C                    -0.000948
     87 C                    -0.002538
     88 C                    -0.000682
     89 O                    -0.457116
     90 C                    -0.099198
     91 H                     0.129153
     92 H                     0.126215
     93 H                     0.146827
     94 O                    -0.468038
     95 C                     0.571241
     96 C                    -0.230444
     97 H                     0.127825
     98 H                     0.130205
     99 C                    -0.202325
    100 H                     0.111010
    101 H                     0.117513
    102 C                    -0.193670
    103 H                     0.109245
    104 H                     0.110933
    105 C                     0.025766
    106 C                     0.062924
    107 C                    -0.104800
    108 H                     0.105594
    109 C                    -0.086620
    110 H                     0.095650
    111 C                    -0.086942
    112 H                     0.084564
    113 C                    -0.076552
    114 H                     0.096570
    115 C                    -0.102306
    116 H                     0.090614
    117 C                     0.031716
    118 C                     0.015923
    119 C                    -0.003885
    120 C                     0.007442
    121 C                     0.014455
    122 C                    -0.037257
    123 C                    -0.036462
    124 C                    -0.006211
    125 C                     0.008438
    126 C                     0.029499
    127 C                    -0.077919
    128 C                     0.018840
    129 C                     0.007835
    130 C                    -0.001819
    131 C                     0.025994
    132 C                     0.021976
    133 C                    -0.118780
    134 C                     0.052518
    135 C                    -0.016413
    136 C                     0.002089
    137 C                    -0.020420
    138 C                     0.004253
    139 C                     0.001290
    140 C                     0.006535
    141 C                     0.017866
    142 C                    -0.007056
    143 C                     0.004090
    144 C                     0.002631
    145 C                     0.002302
    146 C                    -0.000696
    147 C                    -0.002645
    148 C                     0.036408
    149 C                    -0.008061
    150 C                    -0.036069
    151 C                    -0.006989
    152 C                     0.003597
    153 C                     0.023106
    154 C                    -0.013483
    155 C                    -0.003840
    156 C                    -0.028797
    157 C                     0.009589
    158 C                     0.040153
    159 C                     0.009067
    160 C                    -0.021961
    161 C                    -0.013250
    162 C                    -0.006162
    163 C                     0.003579
    164 C                    -0.003576
    165 C                     0.020309
    166 C                    -0.010927
    167 C                     0.002376
    168 C                    -0.007664
    169 C                    -0.019711
    170 C                    -0.013642
    171 C                    -0.012970
    172 C                     0.014133
    173 C                    -0.032722
    174 C                    -0.006230
    175 C                    -0.008617
    176 C                     0.016916
  ----------------------------------------
  Sum of atomic charges =     0.000000

                    Cartesian Multipole Moments
 -----------------------------------------------------------------
    Charge (ESU x 10^10)
                 0.0000
    Dipole Moment (Debye)
         X      -2.6888      Y      -4.2200      Z       2.6982
       Tot       5.6850
    Quadrupole Moments (Debye-Ang)
        XX    -795.5294     XY      10.1049     YY    -790.2062
        XZ     -12.6141     YZ      -7.3917     ZZ    -801.8356

 Total job time:  877.18s(wall), 8411.09s(cpu)
        *  Thank you very much for using Q-Chem.  Have a nice day.  *
