 Q-Chem 4.4, Q-Chem, Inc., Pleasanton, CA (2016)
 Q-Chem 4.4.2 for Intel X86 Linux

User input:
--------------------------------------------------------------
$comment
SP
$end

$rem
MEM_STATIC 5000
MEM_TOTAL 20000
JOBTYPE SP
EXCHANGE B3LYP
BASIS 6-31g(d,p)
$end

$molecule
0 1
O         -10.516000      7.048000     -1.959000
C         -11.117000      8.236000     -2.478000
H         -10.711000      8.445000     -3.475000
H         -10.888000      9.011000     -1.736000
H         -12.213000      8.250000     -2.458000
O         -12.518000      6.320000     -1.116000
C         -11.302000      6.188000     -1.229000
C         -10.486000      5.152000     -0.498000
H          -9.579000      5.568000     -0.041000
H         -10.171000      4.548000     -1.358000
C         -11.232000      4.224000      0.508000
H         -11.598000      4.784000      1.378000
H         -12.143000      3.761000      0.110000
C         -10.307000      2.989000      0.870000
H         -10.221000      2.398000     -0.050000
H          -9.325000      3.274000      1.269000
C         -11.026000      2.083000      1.852000
C         -12.236000      1.366000      1.209000
C         -12.008000      0.413000      0.227000
H         -11.040000      0.062000     -0.118000
C         -13.101000     -0.224000     -0.403000
H         -12.862000     -1.046000     -1.072000
C         -14.397000      0.078000      0.013000
H         -15.236000     -0.435000     -0.447000
C         -14.621000      1.070000      0.974000
H         -15.620000      1.435000      1.193000
C         -13.530000      1.806000      1.503000
H         -13.545000      2.637000      2.203000
C         -12.963000      1.397000      7.005000
C         -12.373000     -0.897000      6.268000
C          -8.803000     -1.380000      8.966000
C          -8.890000      4.571000      6.381000
C          -6.571000     -0.655000      6.462000
C         -12.803000      0.406000      5.984000
C          -6.610000      2.919000      6.820000
C         -10.964000     -0.322000      9.382000
C          -9.391000     -0.863000      3.724000
C          -8.209000      4.080000      5.252000
C         -10.269000      1.201000      2.813000
C          -8.316000     -0.061000      3.530000
C          -7.076000      2.212000      4.551000
C          -6.130000      1.657000      7.087000
C         -11.670000     -0.384000      4.216000
C          -7.051000      0.019000      8.734000
C         -11.069000      2.440000      3.307000
C         -10.259000      3.531000      3.979000
C          -6.991000     -0.996000      7.787000
C          -9.629000      2.972000      9.477000
C          -8.931000      0.848000      9.896000
C         -10.334000      0.781000      9.884000
C         -12.091000     -0.175000      8.604000
C         -10.999000      3.946000      5.179000
C         -10.563000     -0.130000      3.433000
C         -11.944000     -1.188000      7.602000
C          -7.114000      3.213000      5.538000
C         -11.653000     -1.434000      5.179000
C          -7.122000     -0.221000      4.274000
C         -10.712000      4.080000      7.613000
C         -10.213000     -1.419000      8.981000
C          -8.743000      1.219000      3.110000
C         -11.907000      2.281000      8.798000
C          -6.605000      0.920000      4.838000
C          -9.424000     -1.924000      4.688000
C          -7.383000      2.404000      8.851000
C          -7.383000      3.438000      7.870000
C          -8.307000     -1.988000      5.524000
C         -10.304000      4.501000      6.330000
C          -8.846000      3.472000      4.141000
C          -9.623000      4.006000      8.496000
C         -12.077000      2.111000      4.310000
C         -10.110000     -2.503000      6.786000
C          -8.174000      2.377000      3.656000
C          -7.138000     -1.208000      5.314000
C         -11.881000      3.311000      7.845000
C          -8.057000     -1.834000      7.890000
C         -12.537000      1.118000      8.289000
C          -8.131000     -0.243000      9.515000
C         -10.527000     -2.178000      5.440000
C          -8.692000     -2.368000      6.810000
C         -12.393000      0.765000      4.675000
C         -12.064000      3.054000      5.368000
C          -8.529000      2.156000      9.654000
C         -10.857000     -2.022000      7.878000
C          -6.138000      0.607000      6.126000
C          -8.500000      4.227000      7.666000
C          -6.633000      1.319000      8.362000
C         -12.552000      2.760000      6.694000
C         -10.750000      2.109000      9.560000
O           5.428000     10.663000      9.455000
C           6.840000     10.665000      9.814000
H           7.030000      9.906000     10.583000
H           7.125000     11.629000     10.251000
H           7.512000     10.486000      8.965000
O           5.739000     10.678000      7.163000
C           5.023000     10.759000      8.159000
C           3.494000     10.657000      8.012000
H           3.163000      9.788000      8.595000
H           3.353000     10.294000      6.987000
C           2.729000     11.861000      8.417000
H           3.230000     12.238000      9.317000
H           2.837000     12.698000      7.716000
C           1.170000     11.724000      8.749000
H           1.081000     10.916000      9.485000
H           0.744000     12.625000      9.208000
C           0.394000     11.465000      7.462000
C           0.342000     12.635000      6.541000
C           1.342000     12.833000      5.512000
H           2.170000     12.145000      5.373000
C           1.330000     14.035000      4.812000
H           2.016000     14.209000      3.988000
C           0.239000     14.881000      4.959000
H           0.101000     15.681000      4.239000
C          -0.816000     14.646000      5.847000
H          -1.579000     15.418000      5.872000
C          -0.697000     13.611000      6.726000
H          -1.507000     13.503000      7.441000
C          -4.185000      9.522000      5.230000
C          -2.510000      8.855000      3.598000
C          -2.624000      4.402000      4.525000
C          -2.943000      7.896000      9.809000
C           0.226000      4.481000      6.539000
C          -3.042000      9.795000      4.490000
C          -1.542000      5.433000      9.592000
C          -4.476000      6.039000      4.315000
C           1.026000      8.315000      5.395000
C          -1.558000      7.820000      9.871000
C           0.372000     10.002000      6.932000
C           1.329000      7.889000      6.714000
C           0.347000      6.920000      9.102000
C          -1.042000      4.515000      8.611000
C          -0.723000      9.766000      4.667000
C          -2.056000      3.695000      6.557000
C          -0.877000     10.591000      7.452000
C          -1.514000      9.933000      8.670000
C          -0.879000      3.890000      5.850000
C          -5.117000      6.026000      7.749000
C          -4.339000      4.520000      6.228000
C          -4.972000      5.602000      5.560000
C          -4.421000      7.391000      4.058000
C          -2.854000      9.884000      8.573000
C           0.400000      9.552000      5.509000
C          -3.237000      7.673000      3.336000
C          -0.849000      6.661000      9.787000
C          -1.121000      8.854000      3.715000
C           1.346000      6.508000      6.945000
C          -4.693000      8.334000      8.483000
C          -3.272000      5.416000      3.796000
C           0.953000      8.809000      7.668000
C          -5.419000      7.862000      6.223000
C           0.875000      6.004000      8.201000
C           0.614000      7.360000      4.436000
C          -3.294000      4.578000      8.425000
C          -2.925000      5.519000      9.406000
C           0.627000      5.936000      4.665000
C          -3.622000      8.867000      9.210000
C          -0.833000      8.876000      9.324000
C          -4.746000      6.966000      8.720000
C          -2.056000     10.693000      6.523000
C          -1.151000      6.482000      3.285000
C           0.377000      8.311000      8.844000
C           1.000000      5.506000      5.962000
C          -5.051000      8.802000      7.200000
C          -1.216000      4.377000      4.602000
C          -4.896000      8.355000      4.990000
C          -3.141000      3.988000      5.752000
C          -0.449000      7.644000      3.508000
C          -0.495000      5.397000      3.989000
C          -1.899000     10.315000      5.189000
C          -3.197000     10.370000      7.268000
C          -4.400000      4.835000      7.610000
C          -2.574000      6.441000      3.166000
C           0.081000      4.826000      7.905000
C          -3.671000      6.689000      9.572000
C          -2.109000      3.984000      7.912000
C          -4.293000      9.808000      6.592000
C          -5.455000      6.478000      6.483000
$end

--------------------------------------------------------------

             Standard Nuclear Orientation (Angstroms)
    I     Atom           X                Y                Z
 ----------------------------------------------------------------
    1      O      -3.9358284824     8.6804653930    -0.3643208289
    2      C      -3.7883127325     9.8829552221     0.3934148205
    3      H      -3.5073900289    10.7044735081    -0.2764479568
    4      H      -3.0262308296     9.6460443923     1.1462324823
    5      H      -4.6399691106    10.1356184307     1.0357968850
    6      O      -5.8073052563     8.0844024289     0.8150521519
    7      C      -4.9464378424     7.8147464878    -0.0186396192
    8      C      -4.7996534197     6.4715210568    -0.6877530437
    9      H      -3.7634231537     6.1099769807    -0.6959210775
   10      H      -5.0509738393     6.7661945065    -1.7142259389
   11      C      -5.7740263863     5.3365882271    -0.2492775098
   12      H      -5.5873786249     5.0222964409     0.7855361383
   13      H      -6.8316811485     5.6260926051    -0.2335415927
   14      C      -5.7199406007     4.1584305920    -1.3080094470
   15      H      -6.1537159398     4.5631896224    -2.2305527156
   16      H      -4.7119427923     3.7553346554    -1.4698862029
   17      C      -6.6639023663     3.0483047979    -0.8853063520
   18      C      -8.1480077766     3.4703112558    -0.9900903238
   19      C      -8.6951256177     3.6963797227    -2.2447106313
   20      H      -8.1976221217     3.5554093014    -3.1996282256
   21      C     -10.0374280824     4.1230686373    -2.3608082775
   22      H     -10.4468837305     4.1640999162    -3.3663074105
   23      C     -10.8107744939     4.2584660667    -1.2086455876
   24      H     -11.8515599624     4.5539867930    -1.2987738783
   25      C     -10.2407714685     4.0694181845     0.0551259303
   26      H     -10.7749762026     4.3271493504     0.9647340592
   27      C      -8.8577464647     3.7781461824     0.1743754990
   28      H      -8.2614463984     3.6635061051     1.0755247007
   29      C      -7.7545309239    -1.0239032350     2.7207475973
   30      C      -8.7730991240    -1.8042985720     0.5977292414
   31      C      -5.8070537412    -5.0959730164    -0.1927434905
   32      C      -2.7629988998     0.2186637737     1.9502826202
   33      C      -4.0277840520    -3.2139665943    -2.4443465194
   34      C      -8.3841584914    -0.7705682088     1.4599889008
   35      C      -1.8768056832    -1.5693209853    -0.0839241254
   36      C      -6.8125932354    -4.3472361074     1.9026381852
   37      C      -6.8201403013    -0.4408842807    -2.5155438444
   38      C      -2.7029005277     0.7043365290     0.6311946169
   39      C      -6.4344974011     1.6161954108    -1.2987432459
   40      C      -5.5287229115    -0.1084834138    -2.7568233281
   41      C      -3.0348306075    -0.0051948157    -1.5254003133
   42      C      -2.2047879883    -2.5791528987    -0.9597095525
   43      C      -8.2501532264    -0.0372421136    -0.6561132770
   44      C      -3.6339711686    -4.5727611395    -0.4834159248
   45      C      -6.2477937800     2.0749027132     0.1756672697
   46      C      -4.8518215300     1.9262265784     0.7476129700
   47      C      -4.3445198992    -4.3683160449    -1.6598328172
   48      C      -3.7887478977    -2.9683876626     3.1662925445
   49      C      -4.4322516956    -4.6172406501     1.7375421507
   50      C      -5.5790614863    -4.3091467512     2.4878403937
   51      C      -7.7401326269    -3.3706293522     2.1906172170
   52      C      -4.9919297087     1.3563108564     2.0949773483
   53      C      -7.3553789703     0.4684394487    -1.5762867325
   54      C      -8.3899620850    -3.1413980635     0.9348478545
   55      C      -2.3087306505    -0.2547513434    -0.3472176484
   56      C      -8.7030696440    -1.3850227693    -0.7483739022
   57      C      -4.5616941425    -1.0805856168    -3.1098738442
   58      C      -4.2883074968    -0.6070647091     3.3890998972
   59      C      -6.9383287312    -4.7929526261     0.5935398810
   60      C      -5.1733192399     1.0220585731    -1.9869583750
   61      C      -6.1044835542    -2.2486727380     3.6634693708
   62      C      -3.3844532365    -1.0452004287    -2.4026838149
   63      C      -7.3188093833    -1.7834768074    -2.5854040898
   64      C      -2.4595074277    -3.3037945797     1.1966128820
   65      C      -2.0056492784    -1.9541358062     1.2594696670
   66      C      -6.3403562987    -2.7598768226    -2.7852879849
   67      C      -3.9266314530     0.5592836391     2.6829724513
   68      C      -3.7474610946     1.4266675204     0.0012063942
   69      C      -3.3301639642    -1.6201592953     3.2257403853
   70      C      -7.0731760516     1.3274301352     1.1192470760
   71      C      -7.8600521757    -3.6273049289    -1.3546339659
   72      C      -3.9479656292     1.0687490655    -1.3093378864
   73      C      -4.9905869498    -2.4488022156    -3.1021732851
   74      C      -5.6279451273    -0.9299955918     3.7250056340
   75      C      -5.6651135380    -4.6487046954    -1.4966652779
   76      C      -7.3748032817    -2.3134161313     3.0384525047
   77      C      -4.5125588633    -5.0875713404     0.4155051616
   78      C      -8.2155017374    -2.2650583140    -1.6850424543
   79      C      -6.6590699663    -3.9120535442    -2.0660304508
   80      C      -8.0619898536     0.3829277256     0.7009655163
   81      C      -6.3297534875     0.9770999194     2.2739650637
   82      C      -3.3781648584    -3.8131110212     2.1538455013
   83      C      -7.9841243943    -4.0727256783    -0.0249571478
   84      C      -2.9919766751    -2.3660302436    -2.1263276156
   85      C      -2.4500761981    -1.0980787918     2.2501649285
   86      C      -2.5932902070    -3.6716903673    -0.1545350957
   87      C      -6.6719640159    -0.1365359121     3.1257650337
   88      C      -5.1707827416    -3.2329636515     3.3344538844
   89      O      12.6359070345    -2.3984402264    -0.8049899030
   90      C      13.8079276159    -3.0241230147    -1.4029178295
   91      H      13.6324222931    -4.0996497540    -1.5293382188
   92      H      14.6765250206    -2.9261079742    -0.7415392689
   93      H      14.0920643490    -2.5945769344    -2.3720321064
   94      O      12.5150201128    -0.6121506509    -2.2694918336
   95      C      12.1620450647    -1.2027850721    -1.2507707746
   96      C      10.8731287646    -0.7743962593    -0.5261799959
   97      H      10.1915097882    -1.6346315013    -0.5275582292
   98      H      10.3788384586    -0.1078780221    -1.2429125351
   99      C      11.0520556005    -0.2709530111     0.8570756143
  100      H      11.8177717810    -0.9147334979     1.3069149365
  101      H      11.5197296273     0.7205785086     0.8992686239
  102      C       9.7970367335    -0.2413798899     1.8488049494
  103      H       9.3672779947    -1.2501102843     1.8329487893
  104      H      10.0718001634    -0.0255685986     2.8889436633
  105      C       8.8215448852     0.8442731310     1.4067651637
  106      C       9.3250482938     2.2310767852     1.6143824616
  107      C      10.0620568834     2.9309229476     0.5823559659
  108      H      10.2827764990     2.4753611759    -0.3778499097
  109      C      10.6522097227     4.1468149107     0.9114066612
  110      H      11.1611631873     4.7429170485     0.1594248714
  111      C      10.3195123487     4.7436971614     2.1199802155
  112      H      10.5683425178     5.7893054980     2.2690800249
  113      C       9.4941498919     4.1509914898     3.0813702518
  114      H       9.3558876597     4.7284258482     3.9903428129
  115      C       9.1167483423     2.8548590923     2.8925955751
  116      H       8.5315145406     2.4119530327     3.6927984367
  117      C       3.6957893903     2.6934269839     1.5844576943
  118      C       4.3519961067     3.2538650736    -0.6891385524
  119      C       1.7684361902     0.1338194449    -2.7608690929
  120      C       4.4567735637    -2.1789717953     2.4978657212
  121      C       4.3894111182    -2.1307600395    -3.1934279742
  122      C       4.6372361125     3.1660061739     0.6795129565
  123      C       4.0616001786    -3.6639755315     0.1072881970
  124      C       1.2478804488     1.6266169139    -0.8492335532
  125      C       7.1100837538     0.6677730206    -2.0041235045
  126      C       5.5126309714    -2.6001922385     1.7006308293
  127      C       7.8484537937     0.4899971570     0.2451562528
  128      C       7.3113289996    -0.6998656583    -1.6845757068
  129      C       6.3526812147    -2.9175235643    -0.3546069716
  130      C       3.7496734084    -3.4847120663    -1.2803901879
  131      C       6.4754642578     2.4544886812    -0.5552303948
  132      C       2.1280516921    -2.0245543514    -2.3563987645
  133      C       7.2996249390     0.6846945388     1.6009592687
  134      C       6.6061620766    -0.5021577951     2.2587949594
  135      C       3.0553370008    -1.6287555319    -3.3086005556
  136      C       1.2967588028    -1.0028677772     1.4500765968
  137      C       0.7661954446    -0.7701120984    -0.7524420335
  138      C       0.8011748338     0.5033424457    -0.1241690303
  139      C       2.0523454009     2.5492894111    -0.2179732235
  140      C       5.5057682248    -0.1306942486     2.9359642178
  141      C       7.3705155223     1.3910308766    -0.8447640401
  142      C       3.0343745702     3.0023935687    -1.1306502382
  143      C       5.3688141555    -3.3254781497     0.5576981671
  144      C       5.4645510656     2.8276301281    -1.4127104111
  145      C       6.5420946894    -1.6343074198    -2.3887831838
  146      C       3.1218108393    -0.4542472526     3.0036520163
  147      C       1.7412314697     1.4235296517    -2.1992210844
  148      C       7.7176954880    -0.8857928805    -0.3814297652
  149      C       1.9000769817     1.2911421979     1.8554176992
  150      C       6.0770765313    -2.8085128912    -1.7117361960
  151      C       6.0614547310     1.0267529178    -2.8833052865
  152      C       1.9829429414    -2.7635840558    -0.0684880262
  153      C       2.9929841241    -3.1376320313     0.8392057114
  154      C       5.2631984169     0.0717246833    -3.6120672012
  155      C       4.4008633246    -1.0100913337     3.1249825458
  156      C       6.6215513450    -1.7622779856     1.6102687256
  157      C       2.3061461504    -1.3698492510     2.3503786463
  158      C       6.2797070734     1.7715002321     1.8061590062
  159      C       3.9615110340     1.9049266819    -3.0563870867
  160      C       7.1604601382    -1.9670805035     0.3135967389
  161      C       5.5136044967    -1.2969761402    -3.3471278667
  162      C       2.9080824605     0.9200268318     2.7608189029
  163      C       2.8751585962    -0.2775423434    -3.5322088334
  164      C       2.4032778938     2.4284388742     1.1552662069
  165      C       1.3159105830    -0.9575153107    -2.0203132031
  166      C       5.2411840003     2.1831068954    -2.6346882982
  167      C       3.9487511190     0.5952787750    -3.6791523270
  168      C       5.9606971522     2.6086255444     0.7363258969
  169      C       5.3109502562     1.2674772313     2.6829178350
  170      C       1.1312404776    -1.7028435563     0.2523585195
  171      C       2.7968992073     2.3182657078    -2.3397273747
  172      C       4.7035008346    -3.0143792302    -2.1320275898
  173      C       3.1276005560    -2.4638725116     2.0561274533
  174      C       2.4795376701    -2.9513736578    -1.3869563576
  175      C       4.0033180339     1.7724468915     2.5873165093
  176      C       1.0920576842     0.3442828317     1.1959374830
 ----------------------------------------------------------------

    9   -5804.2972713763      9.55E-06 Convergence criterion met
 Total energy in the final basis set = -5804.2972713763

                    Orbital Energies (a.u.)
 --------------------------------------------------------------

 Alpha MOs
 -- Occupied --
-19.200 -19.191 -19.136 -19.135 -10.320 -10.320 -10.250 -10.244
-10.243 -10.242 -10.241 -10.238 -10.236 -10.234 -10.233 -10.230
-10.229 -10.228 -10.227 -10.225 -10.225 -10.223 -10.222 -10.221
-10.220 -10.220 -10.220 -10.220 -10.220 -10.219 -10.219 -10.219
-10.219 -10.219 -10.219 -10.218 -10.218 -10.218 -10.218 -10.218
-10.218 -10.218 -10.217 -10.217 -10.217 -10.217 -10.216 -10.216
-10.216 -10.216 -10.216 -10.216 -10.215 -10.215 -10.215 -10.215
-10.215 -10.215 -10.215 -10.215 -10.214 -10.214 -10.214 -10.214
-10.214 -10.214 -10.213 -10.213 -10.213 -10.213 -10.213 -10.213
-10.213 -10.213 -10.213 -10.213 -10.213 -10.213 -10.212 -10.212
-10.212 -10.212 -10.212 -10.212 -10.211 -10.211 -10.211 -10.211
-10.211 -10.211 -10.211 -10.211 -10.211 -10.211 -10.211 -10.211
-10.211 -10.210 -10.210 -10.210 -10.210 -10.210 -10.210 -10.210
-10.210 -10.210 -10.210 -10.210 -10.209 -10.209 -10.209 -10.209
-10.209 -10.209 -10.209 -10.208 -10.208 -10.208 -10.208 -10.208
-10.208 -10.207 -10.207 -10.207 -10.207 -10.207 -10.207 -10.207
-10.206 -10.206 -10.205 -10.205 -10.205 -10.204 -10.204 -10.203
-10.203 -10.202 -10.201 -10.201 -10.200 -10.200 -10.200 -10.199
-10.197 -10.196 -10.194 -10.193  -1.091  -1.090  -1.008  -1.007
 -0.982  -0.981  -0.964  -0.963  -0.962  -0.961  -0.960  -0.957
 -0.933  -0.931  -0.926  -0.924  -0.924  -0.922  -0.922  -0.920
 -0.919  -0.917  -0.897  -0.896  -0.887  -0.886  -0.883  -0.883
 -0.873  -0.873  -0.854  -0.853  -0.842  -0.839  -0.839  -0.837
 -0.837  -0.834  -0.822  -0.821  -0.806  -0.804  -0.798  -0.794
 -0.794  -0.793  -0.793  -0.792  -0.792  -0.789  -0.781  -0.780
 -0.771  -0.769  -0.769  -0.766  -0.766  -0.765  -0.763  -0.762
 -0.758  -0.751  -0.746  -0.740  -0.734  -0.732  -0.715  -0.714
 -0.713  -0.713  -0.712  -0.710  -0.709  -0.709  -0.708  -0.708
 -0.707  -0.707  -0.705  -0.704  -0.703  -0.702  -0.672  -0.670
 -0.659  -0.657  -0.656  -0.654  -0.649  -0.645  -0.634  -0.627
 -0.627  -0.625  -0.625  -0.622  -0.622  -0.621  -0.618  -0.617
 -0.615  -0.615  -0.612  -0.611  -0.610  -0.610  -0.609  -0.609
 -0.607  -0.605  -0.602  -0.600  -0.572  -0.564  -0.563  -0.563
 -0.560  -0.559  -0.558  -0.557  -0.555  -0.553  -0.552  -0.550
 -0.536  -0.536  -0.534  -0.530  -0.528  -0.525  -0.524  -0.524
 -0.523  -0.520  -0.517  -0.517  -0.515  -0.515  -0.513  -0.512
 -0.507  -0.505  -0.500  -0.500  -0.492  -0.490  -0.487  -0.485
 -0.483  -0.482  -0.480  -0.480  -0.478  -0.477  -0.476  -0.475
 -0.473  -0.470  -0.469  -0.468  -0.467  -0.467  -0.465  -0.464
 -0.463  -0.462  -0.462  -0.461  -0.460  -0.460  -0.459  -0.458
 -0.456  -0.454  -0.453  -0.451  -0.449  -0.444  -0.444  -0.442
 -0.441  -0.440  -0.440  -0.439  -0.436  -0.436  -0.435  -0.432
 -0.432  -0.431  -0.429  -0.427  -0.427  -0.425  -0.424  -0.422
 -0.422  -0.421  -0.421  -0.420  -0.419  -0.418  -0.417  -0.416
 -0.416  -0.415  -0.415  -0.414  -0.414  -0.413  -0.413  -0.412
 -0.410  -0.409  -0.408  -0.407  -0.402  -0.401  -0.396  -0.396
 -0.393  -0.393  -0.392  -0.389  -0.388  -0.386  -0.384  -0.382
 -0.380  -0.375  -0.374  -0.373  -0.372  -0.370  -0.368  -0.366
 -0.364  -0.363  -0.362  -0.361  -0.360  -0.358  -0.358  -0.356
 -0.355  -0.355  -0.354  -0.353  -0.353  -0.352  -0.351  -0.350
 -0.349  -0.349  -0.347  -0.346  -0.345  -0.344  -0.343  -0.343
 -0.341  -0.341  -0.340  -0.340  -0.339  -0.338  -0.335  -0.333
 -0.332  -0.331  -0.330  -0.329  -0.326  -0.325  -0.324  -0.322
 -0.317  -0.300  -0.299  -0.294  -0.290  -0.284  -0.273  -0.271
 -0.269  -0.268  -0.267  -0.267  -0.264  -0.263  -0.263  -0.262
 -0.261  -0.260  -0.259  -0.259  -0.258  -0.257  -0.257  -0.254
 -0.252  -0.244  -0.244  -0.241  -0.223  -0.219  -0.211  -0.210
 -0.209  -0.207  -0.205  -0.203  -0.198  -0.196

          Ground-State Mulliken Net Atomic Charges

     Atom                 Charge (a.u.)
  ----------------------------------------
      1 O                    -0.470196
      2 C                    -0.097092
      3 H                     0.124836
      4 H                     0.121598
      5 H                     0.145908
      6 O                    -0.475585
      7 C                     0.591763
      8 C                    -0.257232
      9 H                     0.138418
     10 H                     0.136602
     11 C                    -0.183639
     12 H                     0.115705
     13 H                     0.132390
     14 C                    -0.184662
     15 H                     0.113157
     16 H                     0.106350
     17 C                     0.013665
     18 C                     0.084816
     19 C                    -0.109199
     20 H                     0.091824
     21 C                    -0.088544
     22 H                     0.092651
     23 C                    -0.079967
     24 H                     0.092646
     25 C                    -0.101948
     26 H                     0.097071
     27 C                    -0.095114
     28 H                     0.101643
     29 C                    -0.019005
     30 C                    -0.009317
     31 C                    -0.016067
     32 C                    -0.014364
     33 C                     0.018638
     34 C                     0.008401
     35 C                     0.006836
     36 C                     0.021934
     37 C                     0.020031
     38 C                     0.000399
     39 C                    -0.087341
     40 C                     0.034660
     41 C                    -0.016292
     42 C                    -0.010374
     43 C                    -0.025589
     44 C                     0.021562
     45 C                    -0.082090
     46 C                     0.000833
     47 C                    -0.010234
     48 C                    -0.001776
     49 C                     0.003476
     50 C                     0.000181
     51 C                    -0.002622
     52 C                    -0.024669
     53 C                     0.035584
     54 C                    -0.004772
     55 C                     0.000674
     56 C                    -0.008170
     57 C                    -0.051399
     58 C                     0.028131
     59 C                     0.004985
     60 C                     0.003002
     61 C                    -0.005548
     62 C                     0.022515
     63 C                    -0.007220
     64 C                    -0.023597
     65 C                     0.005836
     66 C                    -0.004767
     67 C                    -0.014445
     68 C                     0.016324
     69 C                    -0.018800
     70 C                     0.026301
     71 C                    -0.019715
     72 C                     0.005811
     73 C                    -0.017316
     74 C                    -0.012819
     75 C                     0.031324
     76 C                     0.019718
     77 C                    -0.027525
     78 C                     0.019591
     79 C                     0.013376
     80 C                     0.014182
     81 C                     0.031013
     82 C                     0.012198
     83 C                    -0.013637
     84 C                    -0.016930
     85 C                     0.028028
     86 C                     0.008239
     87 C                    -0.036251
     88 C                    -0.010472
     89 O                    -0.457140
     90 C                    -0.098825
     91 H                     0.128952
     92 H                     0.125990
     93 H                     0.146531
     94 O                    -0.467945
     95 C                     0.570884
     96 C                    -0.231007
     97 H                     0.128025
     98 H                     0.130384
     99 C                    -0.201959
    100 H                     0.110613
    101 H                     0.117190
    102 C                    -0.194142
    103 H                     0.109289
    104 H                     0.111317
    105 C                     0.027030
    106 C                     0.061915
    107 C                    -0.104934
    108 H                     0.105209
    109 C                    -0.086383
    110 H                     0.094928
    111 C                    -0.087267
    112 H                     0.083773
    113 C                    -0.074113
    114 H                     0.092606
    115 C                    -0.100894
    116 H                     0.093079
    117 C                     0.027268
    118 C                     0.014865
    119 C                    -0.003324
    120 C                     0.006619
    121 C                     0.014856
    122 C                    -0.031918
    123 C                    -0.037148
    124 C                    -0.016160
    125 C                     0.008613
    126 C                     0.029820
    127 C                    -0.077614
    128 C                     0.019865
    129 C                     0.007808
    130 C                    -0.002177
    131 C                     0.025251
    132 C                     0.024434
    133 C                    -0.118399
    134 C                     0.052927
    135 C                    -0.018441
    136 C                     0.012086
    137 C                    -0.013960
    138 C                     0.019160
    139 C                     0.003173
    140 C                     0.009054
    141 C                     0.018466
    142 C                    -0.008467
    143 C                     0.004632
    144 C                     0.001970
    145 C                     0.001533
    146 C                     0.005074
    147 C                    -0.004052
    148 C                     0.036689
    149 C                    -0.014626
    150 C                    -0.036959
    151 C                    -0.007531
    152 C                    -0.006333
    153 C                     0.023914
    154 C                    -0.013322
    155 C                    -0.004531
    156 C                    -0.028607
    157 C                     0.003215
    158 C                     0.041160
    159 C                     0.007790
    160 C                    -0.022776
    161 C                    -0.013084
    162 C                    -0.007663
    163 C                     0.003807
    164 C                    -0.012930
    165 C                     0.002428
    166 C                    -0.010939
    167 C                     0.001170
    168 C                    -0.007439
    169 C                    -0.014487
    170 C                    -0.003194
    171 C                    -0.015497
    172 C                     0.015403
    173 C                    -0.031528
    174 C                    -0.006815
    175 C                    -0.011409
    176 C                     0.016649
  ----------------------------------------
  Sum of atomic charges =     0.000000

                    Cartesian Multipole Moments
 -----------------------------------------------------------------
    Charge (ESU x 10^10)
                 0.0000
    Dipole Moment (Debye)
         X       2.3902      Y       2.0137      Z       0.2636
       Tot       3.1365
    Quadrupole Moments (Debye-Ang)
        XX    -761.8007     XY     -21.1783     YY    -785.7450
        XZ      38.5055     YZ      -2.3928     ZZ    -809.3202

 Total job time:  863.76s(wall), 8250.50s(cpu)
        *  Thank you very much for using Q-Chem.  Have a nice day.  *
