 Q-Chem 4.4, Q-Chem, Inc., Pleasanton, CA (2016)
 Q-Chem 4.4.2 for Intel X86 Linux

User input:
--------------------------------------------------------------
$comment
SP
$end

$rem
MEM_STATIC 5000
MEM_TOTAL 20000
JOBTYPE SP
EXCHANGE B3LYP
BASIS 6-31g(d,p)
$end

$molecule
0 1
O           9.875000    -22.252000     10.349000
C           8.935000    -23.174000      9.811000
H           9.412000    -23.932000      9.178000
H           8.423000    -22.536000      9.081000
H           8.321000    -23.595000     10.617000
O          11.074000    -21.870000      8.379000
C          10.722000    -21.521000      9.494000
C          11.167000    -20.319000     10.117000
H          11.818000    -19.872000      9.355000
H          11.797000    -20.736000     10.911000
C          10.037000    -19.415000     10.681000
H           9.103000    -19.685000     10.173000
H          10.013000    -19.609000     11.761000
C          10.229000    -17.877000     10.627000
H           9.500000    -17.388000     11.284000
H          11.149000    -17.595000     11.155000
C          10.131000    -17.231000      9.188000
C           8.949000    -17.698000      8.409000
C           9.000000    -18.633000      7.451000
H           9.957000    -19.089000      7.214000
C           7.833000    -19.152000      6.912000
H           7.864000    -19.985000      6.217000
C           6.588000    -18.710000      7.335000
H           5.747000    -19.211000      6.865000
C           6.558000    -17.627000      8.210000
H           5.578000    -17.265000      8.506000
C           7.708000    -17.082000      8.731000
H           7.633000    -16.391000      9.565000
C          13.039000    -15.933000      4.671000
C          11.359000    -14.134000      4.836000
C          14.213000    -10.775000      6.115000
C          15.387000    -16.242000      9.083000
C          13.335000    -10.977000      9.490000
C          11.696000    -15.499000      4.985000
C          15.610000    -13.719000     10.182000
C          14.480000    -12.584000      4.438000
C          10.220000    -13.431000      8.553000
C          14.507000    -15.853000     10.127000
C          10.472000    -15.741000      9.110000
C          10.896000    -13.517000      9.807000
C          13.339000    -14.161000     11.068000
C          15.283000    -12.376000     10.019000
C          10.268000    -14.844000      6.671000
C          15.279000    -11.040000      8.024000
C          11.404000    -16.866000      8.463000
C          12.775000    -17.102000      9.013000
C          13.952000    -10.554000      8.277000
C          16.726000    -14.347000      6.415000
C          16.230000    -12.207000      6.138000
C          15.737000    -12.929000      4.996000
C          13.596000    -13.606000      4.117000
C          13.612000    -17.289000      7.904000
C          10.023000    -14.687000      8.084000
C          12.291000    -13.208000      4.389000
C          14.584000    -14.589000     10.624000
C          10.489000    -13.751000      5.817000
C          11.783000    -12.463000     10.172000
C          15.695000    -16.506000      6.862000
C          13.736000    -11.514000      4.994000
C          11.126000    -14.867000     10.196000
C          15.196000    -15.292000      4.816000
C          12.984000    -12.801000     10.800000
C          10.465000    -12.295000      7.745000
C          16.758000    -12.938000      8.424000
C          16.526000    -14.112000      9.200000
C          11.282000    -11.226000      8.171000
C          14.955000    -16.978000      7.973000
C          13.204000    -16.270000     10.086000
C          16.604000    -15.521000      7.244000
C          11.659000    -16.874000      6.994000
C          11.437000    -11.512000      5.906000
C          12.418000    -15.232000     10.698000
C          11.913000    -11.274000      9.412000
C          15.029000    -16.466000      5.630000
C          13.274000    -10.386000      7.064000
C          13.942000    -14.960000      4.240000
C          15.431000    -11.146000      6.647000
C          10.435000    -12.415000      6.321000
C          11.885000    -10.758000      7.020000
C          11.026000    -15.904000      6.173000
C          12.992000    -17.144000      6.693000
C          16.906000    -13.072000      7.001000
C          12.354000    -11.913000      4.935000
C          13.937000    -11.926000     10.312000
C          16.455000    -15.396000      8.594000
C          15.989000    -11.838000      8.911000
C          13.668000    -16.797000      5.570000
C          16.037000    -14.273000      5.217000
O           8.586000    -14.875000     -2.606000
C           7.495000    -14.919000     -3.545000
H           7.782000    -15.004000     -4.600000
H           6.913000    -13.990000     -3.502000
H           6.910000    -15.828000     -3.356000
O           9.800000    -13.203000     -3.771000
C           9.626000    -13.967000     -2.828000
C          10.579000    -13.923000     -1.596000
H          10.833000    -14.938000     -1.267000
H           9.850000    -13.522000     -0.881000
C          11.913000    -13.112000     -1.822000
H          11.609000    -12.317000     -2.514000
H          12.146000    -12.682000     -0.840000
C          13.129000    -13.896000     -2.394000
H          13.422000    -14.731000     -1.745000
H          12.798000    -14.468000     -3.270000
C          14.369000    -13.089000     -2.770000
C          14.024000    -12.138000     -3.846000
C          13.964000    -10.775000     -3.560000
H          14.109000    -10.409000     -2.548000
C          13.599000     -9.913000     -4.613000
H          13.563000     -8.833000     -4.498000
C          13.127000    -10.428000     -5.809000
H          12.674000     -9.716000     -6.493000
C          13.117000    -11.764000     -6.025000
H          12.793000    -12.176000     -6.976000
C          13.604000    -12.642000     -5.082000
H          13.581000    -13.725000     -5.155000
C          19.770000    -13.292000     -4.053000
C          19.639000    -11.155000     -2.967000
C          21.700000    -12.344000      0.820000
C          17.823000    -16.902000     -1.095000
C          18.755000    -12.828000      2.577000
C          19.029000    -12.150000     -3.812000
C          18.256000    -16.291000      1.590000
C          22.265000    -12.881000     -1.510000
C          16.593000    -11.144000     -0.374000
C          16.775000    -16.372000     -0.333000
C          15.405000    -12.695000     -1.754000
C          15.999000    -12.075000      0.470000
C          16.224000    -14.847000      1.200000
C          18.766000    -15.270000      2.423000
C          17.390000    -11.229000     -2.608000
C          20.775000    -13.927000      2.163000
C          15.751000    -13.720000     -2.782000
C          16.051000    -15.134000     -2.311000
C          20.153000    -12.743000      2.438000
C          21.292000    -16.265000     -1.120000
C          22.112000    -14.656000      0.202000
C          22.318000    -14.226000     -1.081000
C          21.627000    -12.515000     -2.692000
C          17.213000    -15.546000     -2.954000
C          16.372000    -11.503000     -1.699000
C          20.917000    -11.291000     -2.396000
C          16.982000    -16.024000      0.980000
C          18.586000    -10.588000     -2.263000
C          16.698000    -12.458000      1.602000
C          19.394000    -16.502000     -2.629000
C          21.926000    -11.928000     -0.518000
C          15.363000    -13.115000     -0.305000
C          21.104000    -14.851000     -3.052000
C          16.845000    -13.819000      1.959000
C          17.759000    -10.493000      0.031000
C          20.483000    -16.121000      1.198000
C          19.313000    -16.891000      0.825000
C          18.433000    -10.768000      1.252000
C          17.995000    -16.566000     -2.398000
C          15.909000    -15.466000     -0.904000
C          20.085000    -16.877000     -1.483000
C          16.950000    -13.381000     -3.644000
C          20.022000    -10.395000     -0.334000
C          15.640000    -14.455000      0.001000
C          17.910000    -11.866000      1.991000
C          19.926000    -15.450000     -3.414000
C          20.654000    -11.757000      1.521000
C          21.019000    -13.493000     -3.438000
C          21.750000    -13.651000      1.140000
C          18.765000    -10.219000     -0.951000
C          19.842000    -10.749000      0.983000
C          17.642000    -12.195000     -3.636000
C          17.704000    -14.541000     -3.814000
C          21.481000    -15.877000      0.204000
C          21.104000    -10.959000     -1.044000
C          18.052000    -14.060000      2.589000
C          19.055000    -17.245000     -0.499000
C          20.142000    -15.196000      2.170000
C          19.075000    -14.503000     -4.075000
C          21.808000    -15.260000     -1.890000
$end

--------------------------------------------------------------

             Standard Nuclear Orientation (Angstroms)
    I     Atom           X                Y                Z
 ----------------------------------------------------------------
    1      O      10.3145118040     1.2647878897     5.5331906156
    2      C      10.5727242046     2.4544528773     6.2688206677
    3      H       9.9840460133     2.5078162899     7.1926130325
    4      H      10.0845250579     3.1974190345     5.6271424910
    5      H      11.6524451589     2.5696364960     6.4263274767
    6      O       7.9834240853     1.3148218260     5.7003780943
    7      C       9.0013138786     0.9449024644     5.1382481853
    8      C       9.0021389533     0.0803600363     4.0053211314
    9      H       7.9334880059    -0.0929257806     3.8258464024
   10      H       9.4301990286    -0.8234868303     4.4537075870
   11      C       9.8359266788     0.5844740715     2.7958257538
   12      H       9.9620844815     1.6690741510     2.9009298760
   13      H      10.7840024841     0.0331697673     2.8385788993
   14      C       9.3299931403     0.2589260423     1.3663944910
   15      H      10.1316701309     0.4344618308     0.6392685118
   16      H       9.2246998599    -0.8267111819     1.2438663612
   17      C       8.0423839111     1.0509310959     0.9054916075
   18      C       8.1194110720     2.5146876707     1.1766696052
   19      C       7.5240829836     3.1211254687     2.2122407830
   20      H       6.9432812921     2.5217157205     2.9074611430
   21      C       7.8034144587     4.4467532286     2.5062747422
   22      H       7.4110738479     4.9114750174     3.4051504310
   23      C       8.6891503690     5.1826533876     1.7328144308
   24      H       8.8531647116     6.1992538560     2.0774951280
   25      C       9.1703780006     4.5857407274     0.5702615319
   26      H       9.8338044400     5.1835955875    -0.0473912230
   27      C       8.8788422070     3.2807221503     0.2494821769
   28      H       9.4418644400     2.7937588063    -0.5407928808
   29      C       2.5161355599     0.9806723990     0.9196293726
   30      C       3.0934844191     2.0434809628    -1.2305176576
   31      C       1.8854943032    -1.4446828566    -3.9576977119
   32      C       5.0151811392    -3.3491856757     1.2049874732
   33      C       5.1665980811    -2.5575954154    -4.4027781932
   34      C       3.3644180599     1.8585029658     0.1447543530
   35      C       5.2112403843    -4.4627549718    -1.3138581344
   36      C       0.7924122783    -0.5074774724    -1.9370748488
   37      C       6.5775457771     0.8409401532    -2.6527803109
   38      C       6.2371260243    -3.2499464155     0.4889851919
   39      C       7.4512319451     0.6219924642    -0.4395050480
   40      C       7.2829555068    -0.3970670405    -2.5713966414
   41      C       7.2154165971    -3.0235448619    -1.5369118666
   42      C       4.9288042617    -4.2754726835    -2.6637848662
   43      C       5.3350036449     2.0209806822    -1.0389679304
   44      C       2.9719525905    -3.3425645726    -3.6959432811
   45      C       6.7031370530     0.3551687530     0.9468632795
   46      C       6.5057465713    -1.0478706442     1.4268158267
   47      C       3.7494681668    -2.4509239296    -4.5093192658
   48      C       1.6801456395    -3.2232831939     0.0371446838
   49      C       1.2029606648    -2.9359790649    -2.1057729155
   50      C       0.6860326178    -1.8070171827    -1.3800129947
   51      C       1.2241693240     0.5291155391    -1.1197366190
   52      C       5.2047744482    -1.1016980661     1.9464244712
   53      C       6.5886006354     1.4230574978    -1.4291287317
   54      C       2.0267518685     1.4034213622    -1.8455903143
   55      C       6.3090754455    -3.7496515382    -0.7742456149
   56      C       4.2597764934     2.1700121302    -1.9303052404
   57      C       6.8783688112    -1.4645129860    -3.4244961428
   58      C       3.0885120857    -2.3436081208     1.8166745989
   59      C       1.3816364621    -0.3383150221    -3.2144827424
   60      C       7.8032472250    -0.6282250172    -1.2665658027
   61      C       1.3733828763    -0.9590082149     0.7919171176
   62      C       6.8568709231    -2.7574283054    -2.8963514489
   63      C       5.5177263816     0.9392997905    -3.5857825781
   64      C       2.9870752672    -4.5388153372    -1.5702432993
   65      C       4.0227851305    -4.6253597283    -0.5934674051
   66      C       5.1959311181    -0.1060439569    -4.4776515472
   67      C       4.4964996833    -2.2863551959     1.9545079322
   68      C       6.9728546938    -2.1001164873     0.5888524101
   69      C       2.7028656729    -3.4297204991     1.0330504887
   70      C       5.3631199890     0.9566549743     1.2030245448
   71      C       3.3170049895     1.0527148992    -3.8751895014
   72      C       7.6374047626    -1.9231427439    -0.6748079479
   73      C       5.9048520680    -1.3046651350    -4.4418136032
   74      C       2.4069231453    -1.1200854633     1.7791403105
   75      C       3.0595465876    -1.2444023952    -4.6754246588
   76      C       1.4664483443     0.3496579421     0.2503936111
   77      C       1.7839079748    -2.6944046807    -3.3814472626
   78      C       4.3880057475     1.7651689815    -3.2946685657
   79      C       3.8264976519    -0.0278149128    -4.6387918537
   80      C       4.7840058530     1.8069950503     0.2246695108
   81      C       4.4920445166     0.0588718684     1.8158891432
   82      C       1.7697844628    -3.8583875166    -1.2238185911
   83      C       2.1389849639     0.8842416023    -3.1482668317
   84      C       5.7575555006    -3.3856327715    -3.4520876729
   85      C       3.8626367130    -4.0678891409     0.7044201203
   86      C       3.5252463423    -4.3148219140    -2.8735962217
   87      C       3.1366011744     0.0770020380     1.7849271825
   88      C       1.0304085669    -2.0039260395    -0.0429232042
   89      O      -1.4360281594     8.5301071571    -0.2160372900
   90      C      -1.6374349096     9.9529463957    -0.3103867587
   91      H      -2.6346258086    10.3094852496    -0.0255897143
   92      H      -1.5211695001    10.2897565778    -1.3480067546
   93      H      -0.9660690175    10.4472409049     0.4031731736
   94      O      -3.4155463280     7.9582405352    -1.3912314811
   95      C      -2.3687392201     7.6791997839    -0.8171651627
   96      C      -1.8547943211     6.2084036495    -0.7929087872
   97      H      -1.4752736317     5.9476394783     0.2025549708
   98      H      -0.9845790564     6.3632137936    -1.4426981472
   99      C      -2.9193873703     5.1298601958    -1.2307885174
  100      H      -3.5204276796     5.6603293134    -1.9795595518
  101      H      -2.3315449181     4.3408696190    -1.7160184844
  102      C      -3.8323549606     4.5439104886    -0.1155983454
  103      H      -3.2516541410     4.0513603940     0.6746269151
  104      H      -4.2488923971     5.3733686170     0.4697364111
  105      C      -4.9711912508     3.6261124023    -0.5525463707
  106      C      -5.9043211317     4.3822660337    -1.4120243000
  107      C      -5.9590102616     4.0991996739    -2.7758598968
  108      H      -5.2860283551     3.3743757621    -3.2240235392
  109      C      -6.8419055069     4.8705502616    -3.5572639258
  110      H      -6.9831649631     4.6983364624    -4.6208941122
  111      C      -7.4629434207     5.9854730145    -3.0190407707
  112      H      -7.9610717105     6.6449517630    -3.7239982071
  113      C      -7.3208748940     6.2841373168    -1.7066886197
  114      H      -7.8405369763     7.1287050691    -1.2642209577
  115      C      -6.5877013483     5.4749995384    -0.8670133209
  116      H      -6.3807312305     5.6730420952     0.1802161268
  117      C      -8.7628594342    -0.0906927837     1.0804602417
  118      C      -8.3041691567    -0.8558955262    -1.1483048855
  119      C      -5.9648881984    -4.4915807021    -0.0027181801
  120      C      -4.4713944027     0.3442252387     3.7199388260
  121      C      -2.8858546368    -2.9721863069    -0.4558439882
  122      C      -8.4517307409     0.2405870792    -0.2252114585
  123      C      -2.6258704738    -1.5724971791     2.8891250072
  124      C      -8.0494197557    -3.6026516675     0.9465064289
  125      C      -4.6008717514     0.2219788602    -2.2092766735
  126      C      -3.4285270477     0.7194442098     2.8646690418
  127      C      -4.7604993679     2.1612487759    -0.8181993147
  128      C      -3.3799251022     0.3650790182    -1.5606283676
  129      C      -2.2408681152     0.1321335448     1.0691614694
  130      C      -2.4428125560    -2.5832838499     1.9189548651
  131      C      -6.8323479441     0.8088187327    -1.6531085645
  132      C      -4.0085403633    -4.2674973949     1.1320297299
  133      C      -5.5442624912     2.5747482103     0.3825748456
  134      C      -4.9773717408     2.2488605677     1.7550431044
  135      C      -3.7405948409    -4.0584259144    -0.1904147162
  136      C      -6.4291528727    -2.5823122611     3.9270982701
  137      C      -6.1414220231    -4.1937547686     2.4008515655
  138      C      -7.4061651466    -3.7106627217     2.1996752603
  139      C      -8.7810723231    -2.4715762307     0.5951136617
  140      C      -6.0087158158     1.6989094593     2.5082497012
  141      C      -5.4942838645     1.1812488873    -1.7456358520
  142      C      -8.4599181410    -2.2067014764    -0.7892971717
  143      C      -2.5351988859    -0.2202573843     2.4098639086
  144      C      -7.3152429788    -0.4492939375    -2.0329597124
  145      C      -2.7168916618    -0.7864955024    -1.1720710614
  146      C      -6.6390657619    -0.1551867437     3.9015580717
  147      C      -7.2819573073    -3.9928264844    -0.1786420069
  148      C      -3.4458018665     1.4501288094    -0.6092881538
  149      C      -8.2576894627    -1.5425365813     2.7683556435
  150      C      -2.1776206892    -0.9301883669     0.1278974686
  151      C      -5.0212262872    -1.0458016455    -2.6135249309
  152      C      -4.1361811968    -3.2131767371     3.3004948019
  153      C      -3.6593462481    -1.9445054903     3.8143339784
  154      C      -4.2974302862    -2.2397272095    -2.3463113528
  155      C      -5.7129469636     0.8784195380     3.6038669131
  156      C      -3.6665139549     1.6320441118     1.8609974566
  157      C      -5.9622601151    -1.3089193186     4.2787281422
  158      C      -6.9521568327     2.0188961860     0.4491184421
  159      C      -6.5108608981    -2.7218180928    -2.1277723249
  160      C      -3.0204756051     1.2247575996     0.7076288479
  161      C      -3.1602202778    -2.0757922596    -1.5065895364
  162      C      -7.8079758755    -0.2952595883     3.1141688766
  163      C      -4.9867544320    -4.0916555626    -0.9046052118
  164      C      -8.8520894504    -1.4335490928     1.4896080601
  165      C      -5.4188677756    -4.5418435115     1.2271128439
  166      C      -6.4132650604    -1.3680614078    -2.5144658600
  167      C      -5.2494075656    -3.2548380429    -1.9980409758
  168      C      -7.5815954027     1.2922184792    -0.5313256395
  169      C      -7.2072312343     1.6400325176     1.7660904883
  170      C      -5.5269161710    -3.5183772510     3.4281070188
  171      C      -7.5203775207    -3.1493913193    -1.2384032650
  172      C      -2.2234255380    -2.2415841226     0.5637564911
  173      C      -4.5340528364    -0.9559376310     4.2643095021
  174      C      -3.3775696683    -3.5870786262     2.2044127218
  175      C      -8.1375194345     0.6493865945     2.0860756746
  176      C      -7.5663813593    -2.7114531107     3.1792914700
 ----------------------------------------------------------------

    9   -5804.2737964052      8.45E-06 Convergence criterion met
 Total energy in the final basis set = -5804.2737964052

                    Orbital Energies (a.u.)
 --------------------------------------------------------------

 Alpha MOs
 -- Occupied --
-19.200 -19.182 -19.146 -19.141 -10.326 -10.316 -10.249 -10.249
-10.244 -10.241 -10.240 -10.236 -10.236 -10.234 -10.231 -10.231
-10.230 -10.225 -10.224 -10.224 -10.224 -10.223 -10.223 -10.223
-10.222 -10.222 -10.222 -10.221 -10.220 -10.220 -10.220 -10.219
-10.219 -10.219 -10.218 -10.218 -10.218 -10.218 -10.217 -10.217
-10.217 -10.217 -10.217 -10.217 -10.217 -10.217 -10.217 -10.217
-10.216 -10.216 -10.216 -10.216 -10.216 -10.216 -10.216 -10.216
-10.216 -10.216 -10.216 -10.215 -10.215 -10.215 -10.215 -10.215
-10.215 -10.215 -10.214 -10.214 -10.214 -10.214 -10.214 -10.213
-10.213 -10.213 -10.213 -10.213 -10.213 -10.213 -10.213 -10.213
-10.213 -10.213 -10.213 -10.213 -10.213 -10.213 -10.212 -10.212
-10.212 -10.212 -10.212 -10.212 -10.212 -10.211 -10.211 -10.211
-10.211 -10.211 -10.211 -10.210 -10.210 -10.210 -10.210 -10.210
-10.210 -10.210 -10.210 -10.210 -10.210 -10.209 -10.209 -10.209
-10.209 -10.209 -10.208 -10.208 -10.208 -10.208 -10.208 -10.208
-10.207 -10.207 -10.207 -10.206 -10.206 -10.206 -10.205 -10.205
-10.205 -10.204 -10.203 -10.203 -10.203 -10.202 -10.202 -10.199
-10.199 -10.198 -10.197 -10.196 -10.195 -10.195 -10.192 -10.190
-10.189 -10.187 -10.185 -10.183  -1.085  -1.084  -1.017  -1.014
 -0.980  -0.980  -0.964  -0.963  -0.960  -0.959  -0.959  -0.958
 -0.932  -0.929  -0.925  -0.925  -0.923  -0.922  -0.921  -0.920
 -0.920  -0.918  -0.897  -0.894  -0.888  -0.887  -0.884  -0.883
 -0.878  -0.874  -0.859  -0.854  -0.841  -0.838  -0.837  -0.837
 -0.834  -0.834  -0.821  -0.818  -0.811  -0.796  -0.796  -0.795
 -0.794  -0.793  -0.793  -0.792  -0.790  -0.789  -0.785  -0.779
 -0.770  -0.769  -0.768  -0.767  -0.767  -0.766  -0.763  -0.762
 -0.757  -0.749  -0.747  -0.740  -0.732  -0.731  -0.715  -0.714
 -0.713  -0.712  -0.712  -0.711  -0.711  -0.708  -0.707  -0.706
 -0.706  -0.705  -0.704  -0.704  -0.701  -0.701  -0.673  -0.672
 -0.658  -0.657  -0.654  -0.654  -0.648  -0.643  -0.631  -0.627
 -0.627  -0.625  -0.625  -0.624  -0.622  -0.619  -0.619  -0.615
 -0.615  -0.613  -0.613  -0.611  -0.611  -0.611  -0.609  -0.608
 -0.606  -0.604  -0.601  -0.600  -0.564  -0.563  -0.562  -0.562
 -0.559  -0.558  -0.557  -0.556  -0.555  -0.554  -0.552  -0.550
 -0.537  -0.534  -0.532  -0.530  -0.528  -0.527  -0.524  -0.524
 -0.522  -0.520  -0.518  -0.516  -0.516  -0.514  -0.513  -0.512
 -0.509  -0.504  -0.502  -0.498  -0.491  -0.489  -0.487  -0.485
 -0.483  -0.482  -0.481  -0.480  -0.479  -0.478  -0.475  -0.472
 -0.471  -0.471  -0.469  -0.468  -0.467  -0.466  -0.465  -0.465
 -0.463  -0.462  -0.460  -0.460  -0.460  -0.460  -0.459  -0.458
 -0.457  -0.451  -0.450  -0.449  -0.445  -0.444  -0.443  -0.442
 -0.441  -0.441  -0.439  -0.438  -0.437  -0.437  -0.436  -0.434
 -0.431  -0.429  -0.429  -0.428  -0.425  -0.425  -0.424  -0.423
 -0.423  -0.422  -0.421  -0.421  -0.419  -0.418  -0.417  -0.416
 -0.416  -0.415  -0.415  -0.414  -0.413  -0.413  -0.412  -0.411
 -0.410  -0.409  -0.407  -0.404  -0.403  -0.399  -0.398  -0.396
 -0.394  -0.391  -0.391  -0.390  -0.390  -0.388  -0.386  -0.383
 -0.380  -0.377  -0.374  -0.371  -0.369  -0.368  -0.367  -0.365
 -0.363  -0.362  -0.360  -0.359  -0.359  -0.358  -0.358  -0.357
 -0.356  -0.355  -0.353  -0.352  -0.352  -0.351  -0.351  -0.350
 -0.349  -0.348  -0.346  -0.346  -0.345  -0.344  -0.343  -0.343
 -0.341  -0.340  -0.340  -0.339  -0.337  -0.335  -0.334  -0.334
 -0.330  -0.329  -0.329  -0.328  -0.327  -0.326  -0.324  -0.320
 -0.315  -0.307  -0.305  -0.290  -0.285  -0.282  -0.274  -0.271
 -0.271  -0.268  -0.267  -0.267  -0.266  -0.265  -0.264  -0.264
 -0.262  -0.261  -0.260  -0.258  -0.258  -0.255  -0.254  -0.251
 -0.250  -0.249  -0.245  -0.238  -0.219  -0.218  -0.213  -0.211
 -0.208  -0.206  -0.205  -0.204  -0.203  -0.196

          Ground-State Mulliken Net Atomic Charges

     Atom                 Charge (a.u.)
  ----------------------------------------
      1 O                    -0.488694
      2 C                    -0.075517
      3 H                     0.128713
      4 H                     0.116058
      5 H                     0.126359
      6 O                    -0.470284
      7 C                     0.592466
      8 C                    -0.247852
      9 H                     0.138765
     10 H                     0.140272
     11 C                    -0.187290
     12 H                     0.125214
     13 H                     0.114456
     14 C                    -0.190056
     15 H                     0.111246
     16 H                     0.110931
     17 C                     0.010081
     18 C                     0.082867
     19 C                    -0.109036
     20 H                     0.105932
     21 C                    -0.103899
     22 H                     0.092535
     23 C                    -0.068653
     24 H                     0.091306
     25 C                    -0.102221
     26 H                     0.086904
     27 C                    -0.093951
     28 H                     0.092547
     29 C                    -0.029145
     30 C                     0.015211
     31 C                    -0.001831
     32 C                    -0.017456
     33 C                    -0.029864
     34 C                    -0.018136
     35 C                     0.019276
     36 C                    -0.001228
     37 C                     0.024323
     38 C                     0.010387
     39 C                    -0.085715
     40 C                    -0.005250
     41 C                    -0.044141
     42 C                    -0.024592
     43 C                     0.010527
     44 C                     0.021109
     45 C                    -0.091713
     46 C                     0.015365
     47 C                     0.006450
     48 C                    -0.006550
     49 C                    -0.007749
     50 C                    -0.017614
     51 C                     0.018353
     52 C                     0.001661
     53 C                     0.031983
     54 C                    -0.002539
     55 C                     0.027994
     56 C                     0.008986
     57 C                     0.010591
     58 C                     0.000387
     59 C                    -0.023988
     60 C                     0.015281
     61 C                    -0.017659
     62 C                    -0.000712
     63 C                     0.006653
     64 C                    -0.017706
     65 C                     0.003191
     66 C                     0.052951
     67 C                    -0.016158
     68 C                     0.016818
     69 C                     0.006883
     70 C                     0.000614
     71 C                    -0.002957
     72 C                    -0.025387
     73 C                    -0.043980
     74 C                    -0.027371
     75 C                     0.001979
     76 C                     0.021651
     77 C                     0.015028
     78 C                    -0.052286
     79 C                    -0.007888
     80 C                    -0.012932
     81 C                     0.074472
     82 C                    -0.008850
     83 C                     0.006631
     84 C                     0.031922
     85 C                    -0.008946
     86 C                    -0.013582
     87 C                     0.012349
     88 C                     0.045818
     89 O                    -0.472372
     90 C                    -0.088913
     91 H                     0.128822
     92 H                     0.126946
     93 H                     0.126268
     94 O                    -0.458736
     95 C                     0.592668
     96 C                    -0.266595
     97 H                     0.126457
     98 H                     0.138541
     99 C                    -0.182256
    100 H                     0.144807
    101 H                     0.101379
    102 C                    -0.183804
    103 H                     0.099006
    104 H                     0.112410
    105 C                     0.007336
    106 C                     0.095841
    107 C                    -0.104436
    108 H                     0.094864
    109 C                    -0.103351
    110 H                     0.084522
    111 C                    -0.068607
    112 H                     0.087096
    113 C                    -0.082483
    114 H                     0.084906
    115 C                    -0.086670
    116 H                     0.086892
    117 C                    -0.014729
    118 C                     0.016048
    119 C                     0.009092
    120 C                     0.034421
    121 C                     0.002483
    122 C                    -0.002886
    123 C                    -0.006778
    124 C                     0.010632
    125 C                     0.027985
    126 C                     0.005281
    127 C                    -0.099979
    128 C                    -0.041451
    129 C                    -0.047200
    130 C                    -0.024471
    131 C                    -0.024150
    132 C                     0.009364
    133 C                    -0.097548
    134 C                     0.000712
    135 C                    -0.037521
    136 C                     0.013599
    137 C                     0.001666
    138 C                     0.011520
    139 C                    -0.023600
    140 C                     0.021331
    141 C                     0.051639
    142 C                    -0.028350
    143 C                     0.005079
    144 C                     0.005806
    145 C                     0.027336
    146 C                    -0.017750
    147 C                    -0.020460
    148 C                     0.012410
    149 C                     0.008966
    150 C                    -0.010826
    151 C                     0.005910
    152 C                     0.013192
    153 C                    -0.017530
    154 C                    -0.043399
    155 C                    -0.013232
    156 C                    -0.025268
    157 C                     0.000950
    158 C                     0.060654
    159 C                     0.008849
    160 C                     0.063958
    161 C                     0.004057
    162 C                     0.006697
    163 C                     0.011116
    164 C                     0.025133
    165 C                    -0.001928
    166 C                    -0.009849
    167 C                    -0.004922
    168 C                    -0.001744
    169 C                     0.024542
    170 C                    -0.008938
    171 C                     0.022888
    172 C                     0.028053
    173 C                    -0.027828
    174 C                     0.018169
    175 C                    -0.034580
    176 C                    -0.023279
  ----------------------------------------
  Sum of atomic charges =     0.000000

                    Cartesian Multipole Moments
 -----------------------------------------------------------------
    Charge (ESU x 10^10)
                 0.0000
    Dipole Moment (Debye)
         X       5.1638      Y       5.3168      Z       0.1877
       Tot       7.4141
    Quadrupole Moments (Debye-Ang)
        XX    -766.3851     XY      12.8582     YY    -772.8645
        XZ      14.8935     YZ       6.8290     ZZ    -814.3888

 Total job time:  845.44s(wall), 8035.56s(cpu)
        *  Thank you very much for using Q-Chem.  Have a nice day.  *
