 Q-Chem 4.4, Q-Chem, Inc., Pleasanton, CA (2016)
 Q-Chem 4.4.2 for Intel X86 Linux

User input:
--------------------------------------------------------------
$comment
SP
$end

$rem
MEM_STATIC 5000
MEM_TOTAL 20000
JOBTYPE SP
EXCHANGE B3LYP
BASIS 6-31g(d,p)
$end

$molecule
0 1
O          22.663000      6.280000     -0.755000
C          24.002000      6.711000     -0.826000
H          24.466000      6.817000      0.162000
H          24.046000      7.738000     -1.211000
H          24.564000      6.046000     -1.493000
O          22.044000      8.316000      0.039000
C          21.767000      7.173000     -0.351000
C          20.397000      6.674000     -0.618000
H          20.239000      6.533000     -1.695000
H          19.709000      7.436000     -0.232000
C          20.084000      5.405000      0.147000
H          20.647000      5.314000      1.084000
H          19.038000      5.390000      0.477000
C          20.308000      4.096000     -0.737000
H          19.646000      4.047000     -1.610000
H          21.352000      4.137000     -1.072000
C          20.024000      2.756000      0.011000
C          20.721000      2.689000      1.257000
C          22.089000      2.535000      1.230000
H          22.649000      2.392000      0.310000
C          22.809000      2.547000      2.431000
H          23.889000      2.473000      2.341000
C          22.194000      2.898000      3.612000
H          22.823000      3.051000      4.485000
C          20.839000      3.145000      3.655000
H          20.232000      3.424000      4.512000
C          20.105000      2.968000      2.453000
H          19.080000      3.323000      2.514000
C          19.958000     -2.637000     -0.386000
C          18.395000     -2.226000      1.413000
C          14.634000     -3.225000     -0.746000
C          18.766000     -0.017000     -4.505000
C          13.857000      0.099000     -1.556000
C          19.592000     -1.924000      0.787000
C          15.975000      0.239000     -4.450000
C          16.774000     -4.284000     -0.831000
C          16.688000      1.321000      0.983000
C          18.179000      1.130000     -4.051000
C          18.738000      2.037000     -0.086000
C          16.372000      2.054000     -0.185000
C          16.414000      2.045000     -2.923000
C          14.747000     -0.008000     -3.840000
C          18.631000     -0.006000      1.444000
C          14.126000     -2.009000     -2.682000
C          19.886000      1.469000     -0.795000
C          19.772000      1.322000     -2.201000
C          13.694000     -1.330000     -1.553000
C          17.660000     -3.373000     -4.010000
C          15.748000     -3.823000     -2.909000
C          16.816000     -4.376000     -2.216000
C          17.937000     -3.994000     -0.131000
C          20.353000      0.105000     -2.629000
C          18.081000      1.273000      1.055000
C          17.553000     -3.318000      1.041000
C          16.783000      1.280000     -3.990000
C          17.826000     -1.067000      1.811000
C          15.176000      1.805000     -0.828000
C          19.680000     -1.946000     -3.795000
C          15.632000     -3.787000     -0.078000
C          17.543000      2.445000     -0.810000
C          19.174000     -3.695000     -2.167000
C          15.175000      1.776000     -2.221000
C          15.839000      0.347000      1.423000
C          15.681000     -1.981000     -4.500000
C          16.505000     -0.979000     -4.895000
C          14.695000     -0.004000      0.715000
C          19.846000     -0.548000     -3.785000
C          18.624000      1.746000     -2.844000
C          18.518000     -2.314000     -4.508000
C          20.328000      0.137000     -0.378000
C          15.601000     -1.949000      1.442000
C          17.562000      2.362000     -2.219000
C          14.393000      0.716000     -0.426000
C          19.966000     -2.613000     -2.618000
C          13.975000     -2.031000     -0.353000
C          19.115000     -3.707000     -0.795000
C          14.690000     -3.209000     -2.218000
C          16.462000     -0.862000      1.868000
C          14.448000     -1.372000      0.804000
C          19.800000     -0.495000      0.750000
C          20.767000     -0.609000     -1.520000
C          16.242000     -3.180000     -4.056000
C          16.180000     -3.136000      1.032000
C          14.364000      0.716000     -2.693000
C          17.947000     -1.083000     -4.914000
C          14.591000     -1.390000     -3.848000
C          20.541000     -1.991000     -1.465000
C          17.994000     -4.054000     -2.879000
O           1.724000     -0.463000      0.469000
C           0.959000      0.783000      0.520000
H           1.182000      1.187000     -0.475000
H           1.348000      1.401000      1.338000
H          -0.096000      0.566000      0.727000
O           0.001000     -1.834000     -0.294000
C           1.106000     -1.673000      0.201000
C           2.100000     -2.773000      0.625000
H           1.671000     -3.748000      0.363000
H           2.072000     -2.782000      1.722000
C           3.576000     -2.562000      0.142000
H           3.992000     -1.576000      0.382000
H           4.148000     -3.306000      0.710000
C           3.744000     -2.891000     -1.386000
H           3.437000     -3.927000     -1.577000
H           3.106000     -2.331000     -2.081000
C           5.144000     -2.659000     -1.906000
C           5.441000     -1.240000     -2.253000
C           5.819000     -0.280000     -1.304000
H           5.795000     -0.503000     -0.241000
C           6.098000      1.024000     -1.651000
H           6.428000      1.722000     -0.887000
C           6.112000      1.440000     -2.961000
H           6.485000      2.424000     -3.231000
C           5.656000      0.530000     -3.946000
H           5.567000      0.919000     -4.956000
C           5.300000     -0.801000     -3.575000
H           4.803000     -1.413000     -4.322000
C           9.462000     -4.246000     -4.895000
C          10.518000     -3.631000     -2.798000
C          11.518000     -7.773000     -1.331000
C           5.879000     -7.538000     -4.032000
C           8.754000     -7.964000      0.845000
C           9.564000     -3.413000     -3.779000
C           6.468000     -9.164000     -1.777000
C          11.721000     -6.768000     -3.548000
C           7.919000     -4.087000      0.197000
C           5.189000     -7.297000     -2.850000
C           6.185000     -3.572000     -1.366000
C           6.869000     -5.059000      0.348000
C           5.637000     -7.220000     -0.696000
C           7.444000     -9.330000     -0.770000
C           8.605000     -2.948000     -1.763000
C           9.897000     -9.281000     -0.913000
C           5.891000     -3.660000     -2.802000
C           5.349000     -4.905000     -3.384000
C           9.928000     -8.370000      0.173000
C           9.091000     -8.614000     -4.841000
C          10.643000     -8.948000     -3.187000
C          11.083000     -7.901000     -4.063000
C          11.383000     -5.502000     -4.028000
C           6.052000     -5.254000     -4.498000
C           7.563000     -3.227000     -0.836000
C          11.467000     -4.641000     -2.930000
C           5.521000     -8.102000     -1.773000
C           9.899000     -3.344000     -1.606000
C           7.230000     -6.291000      0.850000
C           7.423000     -7.025000     -5.607000
C          11.944000     -6.692000     -2.128000
C           5.829000     -4.801000     -0.571000
C           9.752000     -6.411000     -5.518000
C           6.525000     -7.429000      0.411000
C           9.237000     -4.416000      0.358000
C           8.396000     -9.789000     -2.768000
C           7.089000     -9.392000     -3.011000
C           9.549000     -5.663000      0.877000
C           6.323000     -6.553000     -4.901000
C           5.019000     -5.984000     -2.510000
C           7.737000     -8.303000     -5.111000
C           7.092000     -3.443000     -3.676000
C          11.211000     -5.050000     -0.526000
C           5.269000     -5.963000     -1.146000
C           8.526000     -6.618000      1.162000
C           8.442000     -6.053000     -5.823000
C          10.939000     -7.475000     -0.027000
C          10.379000     -5.308000     -4.946000
C          10.904000     -8.878000     -1.855000
C          10.278000     -4.005000     -0.459000
C          10.798000     -6.080000      0.355000
C           8.353000     -3.072000     -3.144000
C           7.085000     -4.312000     -4.742000
C           9.403000     -9.344000     -3.678000
C          11.798000     -5.347000     -1.764000
C           7.499000     -8.437000      0.319000
C           6.771000     -8.619000     -4.133000
C           8.641000     -9.747000     -1.383000
C           8.259000     -4.722000     -5.411000
C          10.090000     -7.724000     -5.048000
$end

--------------------------------------------------------------

             Standard Nuclear Orientation (Angstroms)
    I     Atom           X                Y                Z
 ----------------------------------------------------------------
    1      O      12.8467223313    -2.8414309751     1.0780285884
    2      C      14.2177066500    -2.5511613649     1.2189844371
    3      H      14.7676409516    -2.6334300094     0.2737436561
    4      H      14.7030469425    -3.3200491687     1.8339204871
    5      H      14.3354232955    -1.5715887491     1.6980859729
    6      O      13.3356357163    -5.0419634403     0.7996159964
    7      C      12.5183968067    -4.1178607931     0.9155162210
    8      C      11.0564435096    -4.2917999968     1.0876432391
    9      H      10.7501984098    -4.0138606561     2.1043721419
   10      H      10.8473454548    -5.3532603343     0.9071883825
   11      C      10.2569936794    -3.5284026113     0.0524334048
   12      H      10.7963669828    -3.3846214855    -0.8918242017
   13      H       9.3631007579    -4.0883383981    -0.2486784674
   14      C       9.7548656526    -2.1159107736     0.5981872442
   15      H       9.0688040372    -2.2019292723     1.4494770173
   16      H      10.6587596173    -1.5779622597     0.9103235878
   17      C       8.9458774817    -1.2745434288    -0.4378625280
   18      C       9.6431851770    -1.1540338354    -1.6796569618
   19      C      10.7686632823    -0.3618512948    -1.7198422446
   20      H      11.1062967297     0.2276787377    -0.8719584105
   21      C      11.5190706063    -0.2877518052    -2.8998181400
   22      H      12.4235197416     0.3120915350    -2.8536041954
   23      C      11.2555322471    -1.1371781368    -3.9511075580
   24      H      11.9615413028    -1.1554248500    -4.7771809632
   25      C      10.1866992426    -2.0057055246    -3.9048562326
   26      H       9.8658505877    -2.7197542523    -4.6584672430
   27      C       9.3463225713    -1.9459549598    -2.7624526610
   28      H       8.6195473914    -2.7521606007    -2.7155346215
   29      C       6.3146010582     3.3669695391    -1.3205605237
   30      C       5.3055210896     1.8782692310    -2.9372917970
   31      C       1.3323709794     1.3947468392    -0.9918645178
   32      C       6.1132449856     1.4613152263     3.3247987059
   33      C       2.1374514836    -1.6289178101     0.5949884907
   34      C       6.4390385776     2.3306656057    -2.2843257760
   35      C       3.7896670742    -0.1053862934     3.3931656402
   36      C       2.7042623445     3.3390836604    -1.2058140629
   37      C       5.4351204470    -1.8630406079    -1.6466475020
   38      C       6.1802147411     0.1060238858     3.1667024242
   39      C       7.4701704315    -1.2580117590    -0.4845680501
   40      C       5.3926625109    -2.3844200959    -0.3322161599
   41      C       5.1677712454    -1.7625156737     2.3250658741
   42      C       2.6533052945    -0.6159412228     2.7693799641
   43      C       6.5594693789     0.0963905177    -2.4498710969
   44      C       1.2763264670     0.5372284330     1.1867444869
   45      C       8.1437719046    -0.0711050630     0.0452645182
   46      C       7.8423726996     0.3044067367     1.3792774145
   47      C       1.3227217016    -0.4922265488     0.2591799756
   48      C       3.6111371830     3.6784998717     2.0779844484
   49      C       1.8252780889     2.9063913723     0.9444057078
   50      C       2.5675933213     3.7379904152     0.1173064831
   51      C       3.9270145702     3.4976648940    -1.8433075819
   52      C       7.7396662020     1.7107200146     1.4957606313
   53      C       6.6416932679    -1.1705218882    -1.7586155813
   54      C       4.0181638391     2.4844251877    -2.8144167974
   55      C       5.0314831261    -0.7035476637     3.1735276012
   56      C       5.3886620464     0.5335459180    -3.0385478724
   57      C       4.1655933659    -2.6060509263     0.2602761087
   58      C       6.0749676574     3.3858002315     2.1605696431
   59      C       2.0066769544     2.2058921506    -1.7952490682
   60      C       6.5453104186    -2.0203944199     0.3413082331
   61      C       4.9616083640     4.2777363594     0.1780707080
   62      C       4.0200642824    -2.2795916255     1.6069522430
   63      C       4.2734795987    -1.5368012767    -2.2847975145
   64      C       2.4830361608     1.6528304248     2.9254845224
   65      C       3.6401383899     1.2810348930     3.5270553943
   66      C       3.0379628242    -1.6326614327    -1.6543134701
   67      C       6.8789751072     2.2740920610     2.4763812392
   68      C       6.9738978106    -0.4666458040     2.1291829731
   69      C       4.8151912896     3.2968613989     2.7923056539
   70      C       7.9444873968     1.1830729798    -0.6832957894
   71      C       2.9867404008     0.2979109816    -2.8386514355
   72      C       6.3904335838    -1.6349528481     1.6903741917
   73      C       3.0042162842    -2.1421359906    -0.3694859152
   74      C       6.1229827903     3.8347193821     0.8535959849
   75      C       1.3525242055    -0.0217750123    -1.0780369711
   76      C       5.0332317228     3.9619632550    -1.1565327691
   77      C       1.2505908551     1.7273800139     0.4409101268
   78      C       4.2934979542    -0.3066079851    -3.0155907349
   79      C       2.1862954399    -0.6067550049    -2.0574668752
   80      C       7.2900585823     1.2229093734    -1.9164737930
   81      C       7.8715057620     2.2756886768     0.2409691183
   82      C       2.4532572182     2.8450341918     2.1993843967
   83      C       2.8980791169     1.6738439499    -2.7325493920
   84      C       2.7655524504    -1.6641031413     1.8338420607
   85      C       4.8548168860     2.0644039580     3.4892392723
   86      C       1.8657849508     0.4865147528     2.4551721823
   87      C       7.0284849317     3.3309405574    -0.1329083323
   88      C       3.6903630408     4.1723027432     0.8113511205
   89      O      -8.5832101545    -7.4026343498    -1.2374332290
   90      C      -8.6637862420    -8.8399518201    -0.9767265281
   91      H      -8.3717048118    -8.8608345291     0.0802608657
   92      H      -7.9548895497    -9.3567387312    -1.6345758786
   93      H      -9.6721343087    -9.2056989151    -1.2056942964
   94      O     -10.8116267814    -6.8963747380    -0.7809252417
   95      C      -9.7197122463    -6.6113744519    -1.2483313659
   96      C      -9.3248559044    -5.2916061574    -1.9412325984
   97      H     -10.1844369428    -4.6109856715    -1.9067914509
   98      H      -9.2504832925    -5.5354070175    -3.0086143741
   99      C      -7.9758555565    -4.6591855617    -1.4547880984
  100      H      -7.1245786296    -5.3506158099    -1.4649766012
  101      H      -7.7703587289    -3.8756170063    -2.1944740944
  102      C      -8.1268553031    -3.9673094933    -0.0513082865
  103      H      -8.9013871501    -3.1917683374    -0.1029060921
  104      H      -8.4887372290    -4.5984370032     0.7699033415
  105      C      -6.8381506044    -3.3811293188     0.4777068387
  106      C      -5.9428906963    -4.3704765667     1.1424479312
  107      C      -5.0705026014    -5.2118452706     0.4380881396
  108      H      -5.0964497786    -5.2643357275    -0.6467369596
  109      C      -4.2451158681    -6.1120028555     1.0761469637
  110      H      -3.5554516701    -6.7133795409     0.4909039576
  111      C      -4.1604177049    -6.1748603758     2.4466312406
  112      H      -3.3957807851    -6.7745217557     2.9324517941
  113      C      -5.0811253636    -5.4055729616     3.1994627500
  114      H      -5.0712917792    -5.5599060950     4.2743704598
  115      C      -5.9845197592    -4.5245453680     2.5334245038
  116      H      -6.7786884780    -4.0800056543     3.1260816466
  117      C      -4.0764560266     0.6858153121     2.9130340095
  118      C      -2.6633776793     0.2135708899     0.9970578118
  119      C      -3.5956400466     3.8972435562    -1.4256876486
  120      C      -8.6874517193     1.5821053662     1.3783337583
  121      C      -5.9062394948     2.2634253608    -3.5240015655
  122      C      -3.4902751567    -0.2159900029     2.0225913320
  123      C      -8.7231259602     2.7579287528    -1.2085540847
  124      C      -3.1534242365     3.6207695357     0.9605919439
  125      C      -4.8767736557    -1.2935280059    -1.9630592754
  126      C      -9.0684361088     0.7900931533     0.3018243298
  127      C      -6.3032057150    -2.2230687117    -0.2849068220
  128      C      -6.2410347628    -1.0025674917    -2.3155058826
  129      C      -8.4365143375     0.4718105413    -1.7828147407
  130      C      -7.8500252375     3.1481586087    -2.2475905555
  131      C      -3.9235360788    -1.5083613797     0.1944165051
  132      C      -5.6878984058     4.3126209000    -2.1511844579
  133      C      -6.7376340985    -1.9774581263     1.0961157773
  134      C      -7.8534362195    -1.0518853144     1.3803931007
  135      C      -5.1301633988     3.3169704481    -2.9925463536
  136      C      -6.4509564442     4.2115462896     1.8402107058
  137      C      -5.0905586057     4.8802050489     0.1202719905
  138      C      -4.2944986728     4.3905540607     1.2082588897
  139      C      -2.8998399266     2.4862191785     1.7325313746
  140      C      -7.5054349225    -0.1765422957     2.3651142271
  141      C      -4.8819141047    -1.9713827484    -0.7490116964
  142      C      -2.3179803789     1.5558816297     0.8665680314
  143      C      -9.0543542513     1.4001230516    -0.9414951081
  144      C      -2.9594870798    -0.5857237595    -0.0799014662
  145      C      -6.4563789039     0.1093086456    -3.1013222455
  146      C      -7.2394720027     2.2271944544     2.9954128561
  147      C      -2.7884468827     3.3548248555    -0.4061450309
  148      C      -7.1187572228    -1.5208020390    -1.3388988802
  149      C      -4.8986489952     2.8013546465     3.0021746096
  150      C      -7.6514498337     0.8347580230    -2.9271996630
  151      C      -3.8597818857    -0.4172476159    -2.2260163399
  152      C      -7.4183924954     4.4281674829    -0.4353379633
  153      C      -8.4014673704     3.5171131531    -0.0769376311
  154      C      -4.1235788276     0.6802243505    -3.0308023092
  155      C      -7.9163784619     1.1455853452     2.4448319078
  156      C      -8.5682058374    -0.4818874688     0.2843895198
  157      C      -7.5182546619     3.3569822442     2.2056307476
  158      C      -5.6639021564    -1.3970348151     1.9699432754
  159      C      -2.5088515366     1.2594639413    -1.5598980729
  160      C      -8.2106659838    -0.6759662284    -1.0414821513
  161      C      -5.4435500274     0.9405827683    -3.5100397513
  162      C      -5.9085271189     1.9354880077     3.4116988936
  163      C      -3.8409425025     3.0834515868    -2.6097612678
  164      C      -3.7759735106     2.0394482392     2.6923030510
  165      C      -4.7033338766     4.6566629873    -1.1632119229
  166      C      -2.8298635307    -0.0908464361    -1.3583634993
  167      C      -3.2727542778     1.7465050530    -2.6493353393
  168      C      -4.3328648975    -1.2239457930     1.5125965733
  169      C      -6.1789456415    -0.4299498973     2.8012332188
  170      C      -6.4110680824     4.7295429169     0.5314321100
  171      C      -2.2498513140     2.0619161632    -0.4398930210
  172      C      -7.2794121907     2.1786641581    -3.0966348778
  173      C      -8.4225442024     2.9507720850     1.2022615566
  174      C      -7.0533899944     4.2092751786    -1.7765588002
  175      C      -5.4044683625     0.6263463840     3.3288316554
  176      C      -5.1752752601     3.9780505100     2.2288843959
 ----------------------------------------------------------------

    9   -5804.2480480113      8.68E-06 Convergence criterion met
 Total energy in the final basis set = -5804.2480480113

                    Orbital Energies (a.u.)
 --------------------------------------------------------------

 Alpha MOs
 -- Occupied --
-19.207 -19.186 -19.141 -19.137 -10.321 -10.319 -10.249 -10.247
-10.236 -10.235 -10.233 -10.232 -10.229 -10.228 -10.228 -10.225
-10.224 -10.223 -10.222 -10.222 -10.221 -10.221 -10.220 -10.219
-10.219 -10.218 -10.218 -10.218 -10.218 -10.217 -10.217 -10.217
-10.217 -10.217 -10.217 -10.217 -10.217 -10.216 -10.216 -10.216
-10.216 -10.216 -10.216 -10.216 -10.216 -10.216 -10.215 -10.215
-10.215 -10.215 -10.215 -10.215 -10.214 -10.214 -10.214 -10.214
-10.214 -10.214 -10.214 -10.214 -10.214 -10.213 -10.213 -10.213
-10.213 -10.213 -10.213 -10.213 -10.213 -10.213 -10.213 -10.213
-10.212 -10.212 -10.212 -10.212 -10.212 -10.212 -10.212 -10.212
-10.212 -10.212 -10.212 -10.212 -10.212 -10.211 -10.211 -10.211
-10.211 -10.211 -10.211 -10.211 -10.211 -10.211 -10.211 -10.210
-10.210 -10.210 -10.210 -10.210 -10.209 -10.209 -10.209 -10.209
-10.209 -10.209 -10.209 -10.209 -10.209 -10.209 -10.208 -10.208
-10.208 -10.208 -10.208 -10.208 -10.208 -10.207 -10.207 -10.206
-10.206 -10.206 -10.206 -10.206 -10.206 -10.205 -10.205 -10.204
-10.204 -10.203 -10.203 -10.203 -10.203 -10.203 -10.203 -10.202
-10.202 -10.201 -10.200 -10.199 -10.198 -10.196 -10.196 -10.195
-10.195 -10.195 -10.194 -10.191  -1.119  -1.081  -1.009  -1.009
 -0.987  -0.985  -0.971  -0.967  -0.965  -0.965  -0.962  -0.961
 -0.939  -0.938  -0.928  -0.928  -0.928  -0.926  -0.925  -0.924
 -0.921  -0.921  -0.901  -0.899  -0.890  -0.889  -0.887  -0.886
 -0.882  -0.875  -0.862  -0.855  -0.844  -0.840  -0.840  -0.838
 -0.838  -0.838  -0.824  -0.823  -0.814  -0.802  -0.800  -0.797
 -0.796  -0.796  -0.796  -0.795  -0.793  -0.791  -0.787  -0.783
 -0.774  -0.774  -0.771  -0.769  -0.767  -0.767  -0.766  -0.765
 -0.752  -0.748  -0.747  -0.743  -0.736  -0.735  -0.719  -0.715
 -0.714  -0.713  -0.712  -0.712  -0.711  -0.711  -0.710  -0.709
 -0.708  -0.708  -0.707  -0.705  -0.704  -0.704  -0.676  -0.673
 -0.662  -0.660  -0.659  -0.656  -0.650  -0.649  -0.634  -0.633
 -0.628  -0.627  -0.626  -0.624  -0.623  -0.622  -0.621  -0.619
 -0.616  -0.615  -0.614  -0.612  -0.611  -0.610  -0.610  -0.610
 -0.608  -0.607  -0.604  -0.603  -0.579  -0.570  -0.568  -0.563
 -0.560  -0.559  -0.559  -0.558  -0.557  -0.556  -0.555  -0.555
 -0.542  -0.538  -0.534  -0.532  -0.529  -0.526  -0.524  -0.523
 -0.521  -0.520  -0.519  -0.518  -0.517  -0.515  -0.514  -0.514
 -0.514  -0.508  -0.506  -0.496  -0.494  -0.492  -0.490  -0.488
 -0.487  -0.485  -0.484  -0.482  -0.480  -0.479  -0.478  -0.477
 -0.474  -0.472  -0.471  -0.470  -0.469  -0.468  -0.467  -0.466
 -0.465  -0.465  -0.464  -0.463  -0.463  -0.462  -0.460  -0.458
 -0.456  -0.456  -0.455  -0.454  -0.451  -0.447  -0.444  -0.443
 -0.441  -0.439  -0.439  -0.438  -0.438  -0.437  -0.436  -0.435
 -0.433  -0.430  -0.428  -0.427  -0.427  -0.426  -0.425  -0.424
 -0.424  -0.421  -0.421  -0.421  -0.420  -0.419  -0.419  -0.418
 -0.417  -0.417  -0.416  -0.416  -0.415  -0.415  -0.414  -0.413
 -0.413  -0.412  -0.411  -0.409  -0.404  -0.401  -0.400  -0.399
 -0.395  -0.393  -0.392  -0.391  -0.389  -0.386  -0.385  -0.385
 -0.382  -0.377  -0.375  -0.373  -0.370  -0.369  -0.368  -0.368
 -0.365  -0.365  -0.365  -0.363  -0.362  -0.361  -0.361  -0.360
 -0.359  -0.358  -0.357  -0.355  -0.354  -0.354  -0.352  -0.351
 -0.348  -0.347  -0.347  -0.347  -0.345  -0.343  -0.343  -0.342
 -0.341  -0.341  -0.340  -0.340  -0.338  -0.337  -0.336  -0.335
 -0.333  -0.331  -0.330  -0.330  -0.329  -0.328  -0.327  -0.325
 -0.310  -0.306  -0.303  -0.296  -0.290  -0.288  -0.272  -0.271
 -0.270  -0.269  -0.268  -0.267  -0.266  -0.265  -0.265  -0.263
 -0.262  -0.260  -0.259  -0.258  -0.258  -0.257  -0.254  -0.253
 -0.253  -0.250  -0.244  -0.242  -0.223  -0.220  -0.214  -0.210
 -0.208  -0.207  -0.206  -0.203  -0.200  -0.198

          Ground-State Mulliken Net Atomic Charges

     Atom                 Charge (a.u.)
  ----------------------------------------
      1 O                    -0.425457
      2 C                    -0.094772
      3 H                     0.128187
      4 H                     0.134578
      5 H                     0.120043
      6 O                    -0.491712
      7 C                     0.595769
      8 C                    -0.247237
      9 H                     0.134811
     10 H                     0.132535
     11 C                    -0.202451
     12 H                     0.127851
     13 H                     0.105532
     14 C                    -0.171533
     15 H                     0.099796
     16 H                     0.125928
     17 C                     0.006513
     18 C                     0.117601
     19 C                    -0.105735
     20 H                     0.088504
     21 C                    -0.088192
     22 H                     0.086210
     23 C                    -0.082850
     24 H                     0.087387
     25 C                    -0.090695
     26 H                     0.094743
     27 C                    -0.122085
     28 H                     0.089004
     29 C                    -0.005530
     30 C                     0.028483
     31 C                     0.018308
     32 C                     0.002626
     33 C                    -0.018510
     34 C                    -0.040557
     35 C                    -0.003102
     36 C                     0.000822
     37 C                     0.017133
     38 C                    -0.019591
     39 C                    -0.085972
     40 C                     0.023433
     41 C                    -0.006932
     42 C                    -0.008873
     43 C                    -0.027517
     44 C                     0.040541
     45 C                    -0.074581
     46 C                     0.029062
     47 C                    -0.022704
     48 C                    -0.000354
     49 C                    -0.022054
     50 C                    -0.009575
     51 C                     0.020821
     52 C                     0.013295
     53 C                     0.005567
     54 C                    -0.029054
     55 C                     0.014581
     56 C                     0.049941
     57 C                    -0.017549
     58 C                    -0.011084
     59 C                    -0.013696
     60 C                     0.022459
     61 C                    -0.010963
     62 C                    -0.027567
     63 C                    -0.012950
     64 C                     0.018457
     65 C                     0.005942
     66 C                     0.030937
     67 C                    -0.001670
     68 C                     0.012718
     69 C                    -0.023197
     70 C                     0.052851
     71 C                    -0.005738
     72 C                    -0.017055
     73 C                     0.015642
     74 C                     0.008317
     75 C                     0.000365
     76 C                     0.008407
     77 C                    -0.002145
     78 C                    -0.034727
     79 C                    -0.025741
     80 C                    -0.016647
     81 C                    -0.024611
     82 C                    -0.005367
     83 C                     0.020251
     84 C                     0.013805
     85 C                    -0.004913
     86 C                    -0.015293
     87 C                     0.005771
     88 C                     0.011862
     89 O                    -0.478696
     90 C                    -0.085644
     91 H                     0.137290
     92 H                     0.126514
     93 H                     0.137515
     94 O                    -0.465317
     95 C                     0.589675
     96 C                    -0.253753
     97 H                     0.126805
     98 H                     0.128824
     99 C                    -0.186368
    100 H                     0.127664
    101 H                     0.109597
    102 C                    -0.177137
    103 H                     0.108836
    104 H                     0.113557
    105 C                     0.004249
    106 C                     0.107215
    107 C                    -0.108070
    108 H                     0.084975
    109 C                    -0.085013
    110 H                     0.085038
    111 C                    -0.078574
    112 H                     0.091125
    113 C                    -0.098358
    114 H                     0.091505
    115 C                    -0.118504
    116 H                     0.093816
    117 C                    -0.005546
    118 C                     0.029360
    119 C                     0.005276
    120 C                    -0.015952
    121 C                    -0.008285
    122 C                    -0.030310
    123 C                    -0.018082
    124 C                    -0.015614
    125 C                    -0.003345
    126 C                    -0.010876
    127 C                    -0.060110
    128 C                     0.007534
    129 C                     0.019030
    130 C                     0.018988
    131 C                     0.015026
    132 C                    -0.016522
    133 C                    -0.108070
    134 C                     0.043486
    135 C                     0.029954
    136 C                     0.017730
    137 C                     0.005363
    138 C                    -0.023204
    139 C                     0.018099
    140 C                     0.000270
    141 C                    -0.001909
    142 C                    -0.017051
    143 C                    -0.005329
    144 C                     0.013439
    145 C                     0.012678
    146 C                    -0.019763
    147 C                    -0.005204
    148 C                     0.019500
    149 C                    -0.002333
    150 C                    -0.037023
    151 C                     0.037605
    152 C                    -0.007333
    153 C                     0.005044
    154 C                    -0.013820
    155 C                     0.033526
    156 C                    -0.006936
    157 C                    -0.022388
    158 C                     0.060686
    159 C                     0.002494
    160 C                    -0.008830
    161 C                     0.007980
    162 C                    -0.014564
    163 C                    -0.020284
    164 C                     0.015568
    165 C                     0.012874
    166 C                    -0.031502
    167 C                    -0.020427
    168 C                    -0.009861
    169 C                    -0.019690
    170 C                    -0.000690
    171 C                     0.012879
    172 C                    -0.011367
    173 C                     0.016283
    174 C                    -0.013618
    175 C                     0.009055
    176 C                     0.008496
  ----------------------------------------
  Sum of atomic charges =     0.000000

                    Cartesian Multipole Moments
 -----------------------------------------------------------------
    Charge (ESU x 10^10)
                 0.0000
    Dipole Moment (Debye)
         X       3.7278      Y      -2.7758      Z      -0.5614
       Tot       4.6816
    Quadrupole Moments (Debye-Ang)
        XX    -811.3950     XY      24.2502     YY    -798.6600
        XZ       2.6598     YZ       6.6386     ZZ    -799.8002

 Total job time:  840.73s(wall), 8059.09s(cpu)
        *  Thank you very much for using Q-Chem.  Have a nice day.  *
