 Q-Chem 4.4, Q-Chem, Inc., Pleasanton, CA (2016)
 Q-Chem 4.4.2 for Intel X86 Linux

User input:
--------------------------------------------------------------
$comment
SP
$end

$rem
MEM_STATIC 5000
MEM_TOTAL 20000
JOBTYPE SP
EXCHANGE B3LYP
BASIS 6-31g(d,p)
$end

$molecule
0 1
O          16.276000     -9.285000     -7.345000
C          17.154000     -9.497000     -6.233000
H          17.627000     -8.599000     -5.817000
H          17.950000    -10.165000     -6.584000
H          16.625000    -10.005000     -5.418000
O          17.904000     -8.666000     -8.846000
C          16.730000     -8.884000     -8.597000
C          15.664000     -8.706000     -9.637000
H          14.910000     -7.994000     -9.281000
H          15.172000     -9.683000     -9.553000
C          16.185000     -8.336000    -11.029000
H          16.724000     -7.380000    -11.036000
H          16.938000     -9.024000    -11.433000
C          15.117000     -8.274000    -12.148000
H          15.623000     -8.282000    -13.121000
H          14.546000     -9.211000    -12.132000
C          14.127000     -7.167000    -12.053000
C          14.824000     -5.785000    -12.177000
C          15.232000     -5.274000    -13.474000
H          14.994000     -5.818000    -14.383000
C          15.863000     -4.054000    -13.549000
H          15.979000     -3.585000    -14.522000
C          16.340000     -3.409000    -12.433000
H          16.761000     -2.422000    -12.604000
C          16.086000     -3.874000    -11.162000
H          16.524000     -3.455000    -10.261000
C          15.283000     -5.063000    -11.015000
H          15.112000     -5.498000    -10.035000
C           9.469000     -5.269000     -9.715000
C           9.292000     -4.462000    -11.943000
C           5.846000     -7.100000    -13.260000
C          10.176000    -10.273000     -9.756000
C           7.978000     -9.371000    -14.918000
C          10.051000     -4.787000    -10.866000
C           8.801000    -11.244000    -11.953000
C           6.329000     -5.921000    -11.220000
C          11.200000     -6.776000    -14.529000
C          10.919000    -10.573000    -10.956000
C          12.790000     -7.294000    -12.766000
C          11.355000     -8.159000    -14.633000
C          10.870000    -10.508000    -13.213000
C           8.002000    -10.895000    -13.069000
C          11.236000     -5.271000    -12.708000
C           6.186000     -9.329000    -13.278000
C          12.774000     -7.341000    -11.297000
C          12.225000     -8.588000    -10.679000
C           6.815000     -8.818000    -14.413000
C           6.937000     -8.768000     -9.348000
C           5.681000     -8.266000    -11.172000
C           6.037000     -7.107000    -10.511000
C           7.303000     -5.040000    -10.767000
C          11.447000     -8.218000     -9.530000
C          11.887000     -6.298000    -13.440000
C           7.873000     -4.530000    -11.988000
C          10.213000    -11.105000    -12.051000
C           9.995000     -4.753000    -13.113000
C          10.290000     -9.029000    -15.094000
C           9.232000     -8.527000     -8.595000
C           6.168000     -5.865000    -12.606000
C          12.197000     -8.505000    -13.546000
C           7.822000     -6.581000     -8.991000
C          10.027000    -10.126000    -14.290000
C           9.939000     -6.223000    -14.977000
C           6.833000    -10.424000    -11.161000
C           8.073000    -10.943000    -10.792000
C           8.873000     -7.077000    -15.379000
C          10.415000     -9.098000     -9.093000
C          11.874000     -9.696000    -11.461000
C           8.204000     -9.317000     -8.993000
C          12.030000     -6.271000    -10.546000
C           7.985000     -5.430000    -14.239000
C          11.900000     -9.671000    -12.833000
C           9.012000     -8.493000    -15.410000
C           9.059000     -7.142000     -8.520000
C           6.637000     -7.434000    -14.411000
C           8.091000     -5.443000     -9.730000
C           5.652000     -8.275000    -12.550000
C           9.365000     -5.194000    -14.297000
C           7.649000     -6.604000    -14.899000
C          11.316000     -5.268000    -11.285000
C          11.314000     -6.809000     -9.481000
C           6.328000     -9.347000    -10.473000
C           7.233000     -5.090000    -13.060000
C           8.603000    -10.342000    -14.224000
C           8.758000    -10.368000     -9.740000
C           6.802000    -10.387000    -12.606000
C          10.063000     -6.307000     -9.029000
C           6.746000     -7.390000     -9.344000
O           1.724000     -0.463000      0.469000
C           0.959000      0.783000      0.520000
H           1.182000      1.187000     -0.475000
H           1.348000      1.401000      1.338000
H          -0.096000      0.566000      0.727000
O           0.001000     -1.834000     -0.294000
C           1.106000     -1.673000      0.201000
C           2.100000     -2.773000      0.625000
H           1.671000     -3.748000      0.363000
H           2.072000     -2.782000      1.722000
C           3.576000     -2.562000      0.142000
H           3.992000     -1.576000      0.382000
H           4.148000     -3.306000      0.710000
C           3.744000     -2.891000     -1.386000
H           3.437000     -3.927000     -1.577000
H           3.106000     -2.331000     -2.081000
C           5.144000     -2.659000     -1.906000
C           5.441000     -1.240000     -2.253000
C           5.819000     -0.280000     -1.304000
H           5.795000     -0.503000     -0.241000
C           6.098000      1.024000     -1.651000
H           6.428000      1.722000     -0.887000
C           6.112000      1.440000     -2.961000
H           6.485000      2.424000     -3.231000
C           5.656000      0.530000     -3.946000
H           5.567000      0.919000     -4.956000
C           5.300000     -0.801000     -3.575000
H           4.803000     -1.413000     -4.322000
C           9.462000     -4.246000     -4.895000
C          10.518000     -3.631000     -2.798000
C          11.518000     -7.773000     -1.331000
C           5.879000     -7.538000     -4.032000
C           8.754000     -7.964000      0.845000
C           9.564000     -3.413000     -3.779000
C           6.468000     -9.164000     -1.777000
C          11.721000     -6.768000     -3.548000
C           7.919000     -4.087000      0.197000
C           5.189000     -7.297000     -2.850000
C           6.185000     -3.572000     -1.366000
C           6.869000     -5.059000      0.348000
C           5.637000     -7.220000     -0.696000
C           7.444000     -9.330000     -0.770000
C           8.605000     -2.948000     -1.763000
C           9.897000     -9.281000     -0.913000
C           5.891000     -3.660000     -2.802000
C           5.349000     -4.905000     -3.384000
C           9.928000     -8.370000      0.173000
C           9.091000     -8.614000     -4.841000
C          10.643000     -8.948000     -3.187000
C          11.083000     -7.901000     -4.063000
C          11.383000     -5.502000     -4.028000
C           6.052000     -5.254000     -4.498000
C           7.563000     -3.227000     -0.836000
C          11.467000     -4.641000     -2.930000
C           5.521000     -8.102000     -1.773000
C           9.899000     -3.344000     -1.606000
C           7.230000     -6.291000      0.850000
C           7.423000     -7.025000     -5.607000
C          11.944000     -6.692000     -2.128000
C           5.829000     -4.801000     -0.571000
C           9.752000     -6.411000     -5.518000
C           6.525000     -7.429000      0.411000
C           9.237000     -4.416000      0.358000
C           8.396000     -9.789000     -2.768000
C           7.089000     -9.392000     -3.011000
C           9.549000     -5.663000      0.877000
C           6.323000     -6.553000     -4.901000
C           5.019000     -5.984000     -2.510000
C           7.737000     -8.303000     -5.111000
C           7.092000     -3.443000     -3.676000
C          11.211000     -5.050000     -0.526000
C           5.269000     -5.963000     -1.146000
C           8.526000     -6.618000      1.162000
C           8.442000     -6.053000     -5.823000
C          10.939000     -7.475000     -0.027000
C          10.379000     -5.308000     -4.946000
C          10.904000     -8.878000     -1.855000
C          10.278000     -4.005000     -0.459000
C          10.798000     -6.080000      0.355000
C           8.353000     -3.072000     -3.144000
C           7.085000     -4.312000     -4.742000
C           9.403000     -9.344000     -3.678000
C          11.798000     -5.347000     -1.764000
C           7.499000     -8.437000      0.319000
C           6.771000     -8.619000     -4.133000
C           8.641000     -9.747000     -1.383000
C           8.259000     -4.722000     -5.411000
C          10.090000     -7.724000     -5.048000
$end

--------------------------------------------------------------

             Standard Nuclear Orientation (Angstroms)
    I     Atom           X                Y                Z
 ----------------------------------------------------------------
    1      O       3.9909082894    -6.7471841562    -0.0334337176
    2      C       3.4013064171    -8.0522411236    -0.0730309909
    3      H       2.9643058750    -8.4101459043     0.8672475285
    4      H       4.1984766312    -8.7486277955    -0.3604440263
    5      H       2.6222789778    -8.0979874368    -0.8431955991
    6      O       5.7615146983    -7.3040409032     1.3235517312
    7      C       5.1569004837    -6.4688624791     0.6718465437
    8      C       5.6210732297    -5.0442545206     0.6034665286
    9      H       4.8232094545    -4.3745883009     0.9457479193
   10      H       5.6314701954    -4.9151775555    -0.4859737130
   11      C       6.9446558381    -4.7683897191     1.3232114071
   12      H       6.8899526906    -4.9776820227     2.3991808757
   13      H       7.7778459246    -5.4094097714     1.0094335044
   14      C       7.5099956253    -3.3367275226     1.1577929075
   15      H       8.5629760159    -3.3344066383     1.4644782684
   16      H       7.5393425507    -3.0991850042     0.0868221749
   17      C       6.7433436364    -2.2454823060     1.8180978409
   18      C       6.7336060780    -2.4266370600     3.3602382804
   19      C       7.8913365031    -2.0602058474     4.1572216110
   20      H       8.7543708238    -1.5898333405     3.6959381125
   21      C       7.8582772589    -2.2490278275     5.5193667378
   22      H       8.6309209821    -1.7893881209     6.1292019754
   23      C       6.8751636195    -2.9904432978     6.1299407894
   24      H       6.9118483191    -3.0171542712     7.2155704485
   25      C       5.7860324084    -3.4649005261     5.4336179165
   26      H       5.0406215218    -4.1351293876     5.8511845381
   27      C       5.6816907054    -3.1533201969     4.0292783894
   28      H       4.8725679192    -3.5602524855     3.4304525137
   29      C       2.3859563022     1.1796410874     1.6005723034
   30      C       4.0613608118     2.5411828157     2.5934397926
   31      C       4.6488037687     5.3932840198    -0.8834666620
   32      C       4.0792337730    -0.7062745669    -2.7718045733
   33      C       7.5513127623     3.7253173918    -1.9993330832
   34      C       3.4888743263     1.3242207062     2.4120632558
   35      C       5.7663263472     1.2036134577    -3.8517681743
   36      C       2.7041852785     4.3704951197     0.0949462332
   37      C       7.7099289016     1.4703015040     1.4872661576
   38      C       5.5035247372    -0.8804714411    -2.6198187239
   39      C       6.9007454244    -0.8152871229     1.3263322306
   40      C       8.2443833375     1.0252285432     0.2773907444
   41      C       7.4590288121     0.1919141534    -2.2639143135
   42      C       6.3514011460     2.4785203772    -3.6569404908
   43      C       5.6985621970     1.0126856373     2.6393745285
   44      C       5.4123416665     4.5316635665    -2.8222768831
   45      C       5.6111136910    -1.4735411968     1.0733943599
   46      C       5.2034957167    -1.6056931416    -0.3600342049
   47      C       6.5109170696     4.6364115900    -1.9695477730
   48      C       2.0727145546     2.2704309036    -2.5828200025
   49      C       3.0668792589     4.2937264247    -2.3100054594
   50      C       2.2968053426     3.9936163861    -1.2037242438
   51      C       2.4292936167     3.5632602250     1.1916925115
   52      C       3.7915138735    -1.3604869741    -0.4525880276
   53      C       6.8766597662     0.5181030217     2.0214520788
   54      C       3.5816732253     3.7568089759     2.0345454754
   55      C       6.3498704268     0.0766364654    -3.2098428156
   56      C       5.4415008499     2.3900464380     2.7354301816
   57      C       8.4887632844     1.9167082841    -0.8402801880
   58      C       2.2117711442     0.0329067297    -1.6520870461
   59      C       3.8509165267     5.1451268083     0.2820456492
   60      C       7.7003841439    -0.2726352980     0.1045806539
   61      C       1.4863059539     1.9216630167    -0.2963097982
   62      C       7.9838301390     1.4954938931    -2.0595483929
   63      C       7.4735200816     2.8931633517     1.6145808549
   64      C       4.0931362678     2.7433598180    -3.8997692584
   65      C       4.3818711037     1.3827615977    -3.9921092684
   66      C       7.6610036369     3.7631577210     0.5031692687
   67      C       3.2585711041    -0.9031048308    -1.6924132489
   68      C       6.0681111087    -1.2422682195    -1.4005876874
   69      C       2.3923752856     0.8852448263    -2.6914088986
   70      C       4.3690324434    -0.8968167002     1.6955358465
   71      C       5.8607976866     4.4381785488     1.5540538574
   72      C       7.2820257854    -0.6418404494    -1.1779160673
   73      C       8.1341148729     3.2904062298    -0.7530193262
   74      C       1.6955302550     0.5069109704    -0.4427093863
   75      C       6.0574902332     5.1472145199    -0.7527369944
   76      C       1.9247632611     2.3192076924     0.9539859351
   77      C       4.2746631761     4.9350350189    -2.1374154927
   78      C       6.3699740325     3.3457924007     2.2688209190
   79      C       6.6417390763     4.7168451353     0.4408389278
   80      C       4.4720707736     0.3060099095     2.4730429202
   81      C       3.3067339321    -0.9027669689     0.7967525205
   82      C       2.9953806141     3.1458783419    -3.1778209482
   83      C       4.4405259602     4.6398914998     1.4387928122
   84      C       7.4453506045     2.6270977484    -2.7725003588
   85      C       3.5535781443     0.4740878404    -3.3637807108
   86      C       5.3465311774     3.4284173951    -3.6760455079
   87      C       2.2938921814     0.0941105767     0.7555730679
   88      C       1.6142563760     2.7898904812    -1.3764374571
   89      O     -10.8748275770     4.4756153289     1.8915735206
   90      C     -11.5558725562     5.4303807157     2.7661836009
   91      H     -10.7051802220     5.7915423442     3.3568229415
   92      H     -12.3018452687     4.8910118787     3.3619813600
   93      H     -12.0785519625     6.1829496659     2.1633492841
   94      O     -10.4744365699     5.9350880982     0.1195223710
   95      C     -10.5368648070     4.8099616640     0.5908653696
   96      C     -10.2287318353     3.4840342835    -0.1335534687
   97      H      -9.8895960474     3.7151604309    -1.1508428185
   98      H     -11.2051183532     3.0129742455    -0.3039817769
   99      C      -9.3010754021     2.4939507531     0.6510318644
  100      H      -9.6287774944     2.2866757805     1.6769462977
  101      H      -9.3789345498     1.5565955824     0.0865433904
  102      C      -7.7973465947     2.9510827960     0.6181842010
  103      H      -7.4576684685     3.0301807294    -0.4221947144
  104      H      -7.5813571092     3.9540966202     1.0067466934
  105      C      -6.8716906358     2.0480424075     1.4004265562
  106      C      -6.8466028617     2.3186018787     2.8661506695
  107      C      -7.8072995837     1.8186489330     3.7562033985
  108      H      -8.6927614981     1.3038463195     3.3939749246
  109      C      -7.7571207967     2.0747219571     5.1091907213
  110      H      -8.5000161339     1.6308247121     5.7655913260
  111      C      -6.7110071783     2.7591372410     5.6806572701
  112      H      -6.6043160381     2.8171419610     6.7602578690
  113      C      -5.7620014162     3.3549275401     4.8142376357
  114      H      -5.0122594714     3.9856530455     5.2826544940
  115      C      -5.8550786908     3.1468883541     3.4056943037
  116      H      -5.2144077153     3.7482575740     2.7673701209
  117      C      -2.1549957600    -0.7132676218     1.8755795541
  118      C      -3.7760220881    -2.3980183928     2.5272378105
  119      C      -3.5418837675    -4.9877248631    -1.1533671187
  120      C      -3.3621686843     1.1070282495    -2.5571598328
  121      C      -6.4579989575    -3.6516743560    -2.6102110504
  122      C      -3.3325419202    -1.0852631470     2.5273106104
  123      C      -4.6777979265    -0.8316091674    -4.1654591403
  124      C      -1.7869962981    -3.9045435756     0.1556062454
  125      C      -7.2788811927    -1.6396748487     0.7700653198
  126      C      -4.7340912173     1.2286731072    -2.7424598381
  127      C      -6.7000189852     0.6784185789     0.8495096726
  128      C      -7.5406799058    -1.0623626889    -0.5215449558
  129      C      -6.4867400125    -0.1016662661    -2.8115130963
  130      C      -5.1503144475    -2.1613399758    -4.1132565113
  131      C      -5.6048062897    -1.0500106155     2.3382765017
  132      C      -4.1071802961    -4.1814227497    -3.1798778482
  133      C      -5.5196391080     1.5517968685     0.8632831570
  134      C      -4.8659811838     1.9530960400    -0.3993344784
  135      C      -5.3068295347    -4.4589859337    -2.4769707540
  136      C      -1.1310225027    -1.5550632385    -2.3032767378
  137      C      -1.9094829221    -3.7114157244    -2.2923528351
  138      C      -1.2599785499    -3.4221698735    -1.0466940102
  139      C      -1.8429298889    -3.0711482737     1.2735166641
  140      C      -3.5191710157     1.7617431842    -0.3187587020
  141      C      -6.7408511347    -0.6480108077     1.5828082597
  142      C      -3.0191881038    -3.4123983735     1.9472717984
  143      C      -5.3353274817     0.2520538040    -3.5189311452
  144      C      -5.1426057278    -2.3296115773     2.4082266209
  145      C      -7.5048767122    -1.9164680417    -1.6029196261
  146      C      -1.5286897528     0.6276785915    -1.3176805416
  147      C      -2.9768561405    -4.7131568203     0.1078236562
  148      C      -7.1956491726     0.3064597643    -0.5235159489
  149      C      -0.8941873759    -1.2438147305     0.0622025982
  150      C      -7.0689679453    -1.4122472686    -2.8441025131
  151      C      -6.8297034482    -2.9241843631     0.9099247541
  152      C      -2.8982584226    -2.1971333863    -3.9236477227
  153      C      -3.2897603474    -0.8675368479    -3.9853428424
  154      C      -6.8233294429    -3.7479316535    -0.2050253675
  155      C      -2.7001169285     1.3736047008    -1.3684014602
  156      C      -5.4631112515     1.5623981738    -1.6353797282
  157      C      -1.4926519269    -0.1955023425    -2.4574043788
  158      C      -4.3528512279     0.9739620648     1.6103299978
  159      C      -5.1246595436    -4.3794246034     1.1448484145
  160      C      -6.5780351172     0.7415646942    -1.7167072909
  161      C      -7.1978791200    -3.2494641000    -1.4899462357
  162      C      -1.2212785024     0.1060591335    -0.0280245936
  163      C      -4.9952034134    -5.0009546984    -1.2635849874
  164      C      -1.4673619642    -1.7501765125     1.2249539203
  165      C      -3.0055896969    -4.5145527694    -2.3200263832
  166      C      -5.8277666137    -3.3404393098     1.7718675590
  167      C      -5.7730534977    -4.6895816169    -0.0762240270
  168      C      -4.4470477035    -0.2465897754     2.3259878975
  169      C      -3.1734082146     1.2329367234     0.9519894290
  170      C      -1.8365699165    -2.5337238515    -3.0293891612
  171      C      -3.7268374120    -4.4024144367     1.2496661425
  172      C      -6.3385114816    -2.4654436759    -3.4189195991
  173      C      -2.6346124292     0.1090105381    -3.2272706768
  174      C      -4.0394432566    -3.0176681465    -3.9902351255
  175      C      -2.0237765015     0.4232387476     1.0811138351
  176      C      -0.8163821255    -2.0849285951    -1.0977917164
 ----------------------------------------------------------------

    9   -5804.2394722432      9.31E-06 Convergence criterion met
 Total energy in the final basis set = -5804.2394722432

                    Orbital Energies (a.u.)
 --------------------------------------------------------------

 Alpha MOs
 -- Occupied --
-19.187 -19.187 -19.142 -19.134 -10.321 -10.318 -10.249 -10.246
-10.245 -10.241 -10.241 -10.237 -10.236 -10.233 -10.230 -10.229
-10.228 -10.227 -10.226 -10.225 -10.225 -10.223 -10.222 -10.222
-10.221 -10.221 -10.221 -10.220 -10.220 -10.220 -10.219 -10.219
-10.219 -10.218 -10.218 -10.218 -10.218 -10.218 -10.217 -10.217
-10.217 -10.217 -10.217 -10.217 -10.216 -10.216 -10.216 -10.216
-10.215 -10.215 -10.215 -10.215 -10.215 -10.215 -10.215 -10.214
-10.214 -10.214 -10.214 -10.214 -10.214 -10.214 -10.214 -10.214
-10.214 -10.214 -10.214 -10.214 -10.213 -10.213 -10.213 -10.213
-10.213 -10.213 -10.213 -10.213 -10.213 -10.212 -10.212 -10.212
-10.212 -10.212 -10.212 -10.212 -10.212 -10.212 -10.212 -10.211
-10.211 -10.211 -10.211 -10.211 -10.211 -10.211 -10.211 -10.210
-10.210 -10.210 -10.210 -10.210 -10.210 -10.210 -10.210 -10.210
-10.209 -10.209 -10.209 -10.209 -10.209 -10.208 -10.208 -10.208
-10.208 -10.208 -10.208 -10.208 -10.208 -10.207 -10.207 -10.207
-10.207 -10.207 -10.207 -10.207 -10.207 -10.207 -10.206 -10.206
-10.206 -10.205 -10.205 -10.204 -10.204 -10.204 -10.204 -10.204
-10.203 -10.203 -10.203 -10.202 -10.202 -10.201 -10.196 -10.196
-10.195 -10.194 -10.194 -10.192  -1.084  -1.081  -1.009  -1.008
 -0.986  -0.983  -0.969  -0.967  -0.964  -0.963  -0.962  -0.962
 -0.939  -0.933  -0.929  -0.928  -0.926  -0.926  -0.925  -0.923
 -0.922  -0.920  -0.902  -0.898  -0.892  -0.891  -0.887  -0.885
 -0.877  -0.872  -0.856  -0.853  -0.842  -0.841  -0.840  -0.839
 -0.837  -0.834  -0.825  -0.825  -0.806  -0.803  -0.798  -0.798
 -0.797  -0.796  -0.794  -0.793  -0.793  -0.792  -0.785  -0.781
 -0.773  -0.769  -0.769  -0.769  -0.768  -0.767  -0.765  -0.764
 -0.750  -0.749  -0.744  -0.744  -0.736  -0.736  -0.717  -0.715
 -0.714  -0.712  -0.711  -0.711  -0.711  -0.710  -0.710  -0.709
 -0.708  -0.707  -0.707  -0.706  -0.705  -0.701  -0.674  -0.673
 -0.661  -0.658  -0.658  -0.656  -0.652  -0.650  -0.634  -0.633
 -0.629  -0.627  -0.625  -0.625  -0.625  -0.620  -0.617  -0.616
 -0.615  -0.613  -0.613  -0.611  -0.610  -0.609  -0.609  -0.609
 -0.608  -0.605  -0.604  -0.603  -0.569  -0.567  -0.561  -0.561
 -0.560  -0.560  -0.559  -0.558  -0.557  -0.556  -0.554  -0.552
 -0.539  -0.536  -0.535  -0.534  -0.528  -0.525  -0.524  -0.523
 -0.522  -0.521  -0.519  -0.517  -0.517  -0.516  -0.513  -0.511
 -0.508  -0.507  -0.502  -0.496  -0.493  -0.492  -0.488  -0.487
 -0.486  -0.484  -0.481  -0.480  -0.480  -0.479  -0.475  -0.473
 -0.473  -0.471  -0.470  -0.469  -0.469  -0.468  -0.467  -0.466
 -0.465  -0.465  -0.464  -0.462  -0.462  -0.461  -0.459  -0.459
 -0.457  -0.456  -0.456  -0.455  -0.448  -0.446  -0.445  -0.443
 -0.442  -0.440  -0.439  -0.439  -0.437  -0.436  -0.436  -0.434
 -0.431  -0.430  -0.428  -0.428  -0.427  -0.426  -0.425  -0.425
 -0.423  -0.422  -0.421  -0.421  -0.420  -0.420  -0.419  -0.419
 -0.419  -0.417  -0.416  -0.416  -0.415  -0.415  -0.414  -0.413
 -0.412  -0.410  -0.410  -0.409  -0.403  -0.402  -0.401  -0.399
 -0.393  -0.392  -0.390  -0.390  -0.387  -0.386  -0.385  -0.383
 -0.382  -0.379  -0.376  -0.373  -0.371  -0.371  -0.370  -0.367
 -0.367  -0.366  -0.363  -0.362  -0.362  -0.361  -0.360  -0.359
 -0.357  -0.356  -0.354  -0.354  -0.353  -0.352  -0.350  -0.349
 -0.349  -0.349  -0.348  -0.346  -0.346  -0.344  -0.344  -0.343
 -0.342  -0.341  -0.340  -0.339  -0.338  -0.337  -0.336  -0.334
 -0.333  -0.332  -0.331  -0.330  -0.329  -0.328  -0.323  -0.321
 -0.309  -0.304  -0.296  -0.296  -0.292  -0.291  -0.272  -0.271
 -0.269  -0.268  -0.267  -0.267  -0.266  -0.265  -0.264  -0.263
 -0.262  -0.260  -0.260  -0.259  -0.256  -0.256  -0.254  -0.252
 -0.251  -0.250  -0.248  -0.245  -0.224  -0.223  -0.211  -0.210
 -0.209  -0.208  -0.207  -0.201  -0.200  -0.196

          Ground-State Mulliken Net Atomic Charges

     Atom                 Charge (a.u.)
  ----------------------------------------
      1 O                    -0.488453
      2 C                    -0.077336
      3 H                     0.123942
      4 H                     0.126172
      5 H                     0.125240
      6 O                    -0.464809
      7 C                     0.597726
      8 C                    -0.261076
      9 H                     0.139221
     10 H                     0.138066
     11 C                    -0.174449
     12 H                     0.128406
     13 H                     0.114691
     14 C                    -0.195834
     15 H                     0.112756
     16 H                     0.102257
     17 C                     0.022017
     18 C                     0.068148
     19 C                    -0.102053
     20 H                     0.092026
     21 C                    -0.078645
     22 H                     0.091379
     23 C                    -0.077129
     24 H                     0.089422
     25 C                    -0.088874
     26 H                     0.098651
     27 C                    -0.115396
     28 H                     0.092003
     29 C                    -0.022882
     30 C                     0.027640
     31 C                    -0.029083
     32 C                    -0.010481
     33 C                     0.004948
     34 C                     0.013137
     35 C                     0.008523
     36 C                     0.016427
     37 C                     0.012785
     38 C                    -0.023079
     39 C                    -0.077620
     40 C                     0.006119
     41 C                    -0.037856
     42 C                     0.003264
     43 C                    -0.025793
     44 C                     0.000822
     45 C                    -0.083093
     46 C                     0.021173
     47 C                     0.000306
     48 C                    -0.006262
     49 C                    -0.013712
     50 C                     0.019486
     51 C                    -0.027064
     52 C                    -0.015508
     53 C                     0.045719
     54 C                    -0.039876
     55 C                    -0.017000
     56 C                    -0.003244
     57 C                    -0.022664
     58 C                     0.002154
     59 C                    -0.032166
     60 C                     0.010374
     61 C                     0.009553
     62 C                     0.010178
     63 C                     0.005970
     64 C                    -0.007936
     65 C                    -0.011015
     66 C                    -0.004788
     67 C                     0.004913
     68 C                     0.023756
     69 C                     0.010725
     70 C                     0.017602
     71 C                    -0.011406
     72 C                     0.015861
     73 C                    -0.030900
     74 C                    -0.016859
     75 C                     0.016079
     76 C                     0.043172
     77 C                     0.024202
     78 C                    -0.014717
     79 C                     0.009443
     80 C                    -0.010581
     81 C                     0.021303
     82 C                     0.011889
     83 C                     0.042616
     84 C                     0.020668
     85 C                     0.004422
     86 C                    -0.013735
     87 C                     0.002717
     88 C                    -0.025030
     89 O                    -0.479010
     90 C                    -0.085673
     91 H                     0.137300
     92 H                     0.126527
     93 H                     0.137658
     94 O                    -0.465222
     95 C                     0.590494
     96 C                    -0.254378
     97 H                     0.126963
     98 H                     0.128968
     99 C                    -0.186226
    100 H                     0.127706
    101 H                     0.109397
    102 C                    -0.177276
    103 H                     0.108971
    104 H                     0.113971
    105 C                     0.003865
    106 C                     0.106374
    107 C                    -0.107411
    108 H                     0.085044
    109 C                    -0.085374
    110 H                     0.085064
    111 C                    -0.078804
    112 H                     0.091225
    113 C                    -0.098077
    114 H                     0.091962
    115 C                    -0.118697
    116 H                     0.094317
    117 C                    -0.005167
    118 C                     0.028236
    119 C                     0.003242
    120 C                    -0.014500
    121 C                    -0.008369
    122 C                    -0.029491
    123 C                    -0.018290
    124 C                    -0.015851
    125 C                    -0.002265
    126 C                    -0.010736
    127 C                    -0.058052
    128 C                     0.008889
    129 C                     0.018746
    130 C                     0.018838
    131 C                     0.013947
    132 C                    -0.015524
    133 C                    -0.108433
    134 C                     0.043986
    135 C                     0.029699
    136 C                     0.018262
    137 C                     0.005203
    138 C                    -0.025837
    139 C                     0.018232
    140 C                     0.001053
    141 C                    -0.002349
    142 C                    -0.021371
    143 C                    -0.003992
    144 C                     0.013153
    145 C                     0.012457
    146 C                    -0.005629
    147 C                    -0.003470
    148 C                     0.019458
    149 C                     0.006551
    150 C                    -0.036812
    151 C                     0.037340
    152 C                    -0.006840
    153 C                     0.004993
    154 C                    -0.014397
    155 C                     0.028623
    156 C                    -0.005895
    157 C                    -0.021777
    158 C                     0.060406
    159 C                     0.003346
    160 C                    -0.008893
    161 C                     0.008367
    162 C                    -0.010881
    163 C                    -0.019813
    164 C                     0.007756
    165 C                     0.012452
    166 C                    -0.031223
    167 C                    -0.019675
    168 C                    -0.008292
    169 C                    -0.019619
    170 C                    -0.002843
    171 C                     0.009213
    172 C                    -0.011345
    173 C                     0.015265
    174 C                    -0.012799
    175 C                    -0.002188
    176 C                     0.013578
  ----------------------------------------
  Sum of atomic charges =     0.000000

                    Cartesian Multipole Moments
 -----------------------------------------------------------------
    Charge (ESU x 10^10)
                 0.0000
    Dipole Moment (Debye)
         X      -2.5802      Y      -0.8427      Z       3.9000
       Tot       4.7516
    Quadrupole Moments (Debye-Ang)
        XX    -770.7175     XY       0.6185     YY    -826.1642
        XZ     -20.3589     YZ      16.4204     ZZ    -789.3313

 Total job time:  861.22s(wall), 8234.90s(cpu)
        *  Thank you very much for using Q-Chem.  Have a nice day.  *
