 Q-Chem 4.4, Q-Chem, Inc., Pleasanton, CA (2016)
 Q-Chem 4.4.2 for Intel X86 Linux

User input:
--------------------------------------------------------------
$comment
SP
$end

$rem
MEM_STATIC 5000
MEM_TOTAL 20000
JOBTYPE SP
EXCHANGE B3LYP
BASIS 6-31g(d,p)
$end

$molecule
0 1
O          15.944000     16.977000      0.331000
C          17.199000     17.527000      0.317000
H          17.190000     18.497000     -0.195000
H          17.903000     16.907000     -0.252000
H          17.542000     17.659000      1.351000
O          15.791000     16.556000     -1.901000
C          15.301000     16.451000     -0.787000
C          13.998000     15.704000     -0.507000
H          13.169000     16.350000     -0.824000
H          13.915000     15.669000      0.586000
C          13.729000     14.407000     -1.220000
H          12.666000     14.328000     -1.480000
H          14.236000     14.505000     -2.188000
C          14.091000     13.146000     -0.408000
H          14.380000     13.348000      0.631000
H          13.138000     12.649000     -0.191000
C          15.194000     12.256000     -1.051000
C          16.569000     12.746000     -0.835000
C          17.101000     13.658000     -1.740000
H          16.448000     13.945000     -2.559000
C          18.453000     14.114000     -1.542000
H          18.921000     14.833000     -2.208000
C          19.256000     13.741000     -0.443000
H          20.295000     14.039000     -0.338000
C          18.640000     12.952000      0.527000
H          19.155000     12.481000      1.359000
C          17.312000     12.433000      0.310000
H          16.939000     11.594000      0.891000
C          16.811000      9.427000     -5.454000
C          17.702000      8.146000     -3.696000
C          14.783000      4.664000     -4.168000
C          11.789000     10.286000     -4.958000
C          12.648000      5.853000     -1.585000
C          17.450000      9.405000     -4.181000
C          10.772000      8.019000     -3.643000
C          15.927000      5.958000     -5.819000
C          15.398000      8.576000     -0.361000
C          11.581000     10.267000     -3.557000
C          14.963000     10.762000     -1.035000
C          13.980000      8.755000     -0.246000
C          11.630000      9.083000     -1.664000
C          10.985000      6.735000     -3.101000
C          17.014000      9.516000     -1.993000
C          12.512000      4.999000     -3.876000
C          14.932000     11.573000     -2.320000
C          13.632000     11.569000     -3.168000
C          13.113000      4.957000     -2.602000
C          13.082000      7.606000     -6.863000
C          13.496000      5.552000     -6.081000
C          14.765000      6.047000     -6.586000
C          16.848000      7.043000     -5.699000
C          13.940000     11.387000     -4.551000
C          15.994000      9.678000     -0.942000
C          17.385000      7.000000     -4.428000
C          11.042000      9.169000     -2.948000
C          17.467000      8.185000     -2.294000
C          13.031000      7.685000     -0.348000
C          13.476000     10.001000     -6.463000
C          15.953000      5.248000     -4.618000
C          13.671000     10.044000     -0.703000
C          15.352000      8.460000     -6.957000
C          11.833000      7.850000     -1.067000
C          15.855000      7.338000     -0.638000
C          11.500000      6.669000     -5.310000
C          10.988000      7.997000     -5.046000
C          14.983000      6.246000     -0.843000
C          12.964000     10.845000     -5.463000
C          12.497000     10.888000     -2.736000
C          12.594000      8.910000     -6.584000
C          15.923000     11.185000     -3.391000
C          16.600000      5.920000     -2.376000
C          12.524000     10.145000     -1.510000
C          13.558000      6.459000     -0.744000
C          14.879000      9.739000     -6.645000
C          14.508000      4.786000     -2.815000
C          16.515000      8.298000     -6.249000
C          13.534000      4.820000     -4.834000
C          16.851000      7.104000     -1.673000
C          15.452000      5.384000     -1.870000
C          17.029000     10.263000     -3.157000
C          15.345000     11.226000     -4.697000
C          12.510000      6.508000     -6.255000
C          16.869000      5.848000     -3.795000
C          11.550000      6.700000     -1.775000
C          11.509000      9.110000     -5.704000
C          11.463000      5.873000     -4.079000
C          15.771000     10.344000     -5.709000
C          14.464000      7.355000     -7.041000
O          22.663000      6.280000     -0.755000
C          24.002000      6.711000     -0.826000
H          24.466000      6.817000      0.162000
H          24.046000      7.738000     -1.211000
H          24.564000      6.046000     -1.493000
O          22.044000      8.316000      0.039000
C          21.767000      7.173000     -0.351000
C          20.397000      6.674000     -0.618000
H          20.239000      6.533000     -1.695000
H          19.709000      7.436000     -0.232000
C          20.084000      5.405000      0.147000
H          20.647000      5.314000      1.084000
H          19.038000      5.390000      0.477000
C          20.308000      4.096000     -0.737000
H          19.646000      4.047000     -1.610000
H          21.352000      4.137000     -1.072000
C          20.024000      2.756000      0.011000
C          20.721000      2.689000      1.257000
C          22.089000      2.535000      1.230000
H          22.649000      2.392000      0.310000
C          22.809000      2.547000      2.431000
H          23.889000      2.473000      2.341000
C          22.194000      2.898000      3.612000
H          22.823000      3.051000      4.485000
C          20.839000      3.145000      3.655000
H          20.232000      3.424000      4.512000
C          20.105000      2.968000      2.453000
H          19.080000      3.323000      2.514000
C          19.958000     -2.637000     -0.386000
C          18.395000     -2.226000      1.413000
C          14.634000     -3.225000     -0.746000
C          18.766000     -0.017000     -4.505000
C          13.857000      0.099000     -1.556000
C          19.592000     -1.924000      0.787000
C          15.975000      0.239000     -4.450000
C          16.774000     -4.284000     -0.831000
C          16.688000      1.321000      0.983000
C          18.179000      1.130000     -4.051000
C          18.738000      2.037000     -0.086000
C          16.372000      2.054000     -0.185000
C          16.414000      2.045000     -2.923000
C          14.747000     -0.008000     -3.840000
C          18.631000     -0.006000      1.444000
C          14.126000     -2.009000     -2.682000
C          19.886000      1.469000     -0.795000
C          19.772000      1.322000     -2.201000
C          13.694000     -1.330000     -1.553000
C          17.660000     -3.373000     -4.010000
C          15.748000     -3.823000     -2.909000
C          16.816000     -4.376000     -2.216000
C          17.937000     -3.994000     -0.131000
C          20.353000      0.105000     -2.629000
C          18.081000      1.273000      1.055000
C          17.553000     -3.318000      1.041000
C          16.783000      1.280000     -3.990000
C          17.826000     -1.067000      1.811000
C          15.176000      1.805000     -0.828000
C          19.680000     -1.946000     -3.795000
C          15.632000     -3.787000     -0.078000
C          17.543000      2.445000     -0.810000
C          19.174000     -3.695000     -2.167000
C          15.175000      1.776000     -2.221000
C          15.839000      0.347000      1.423000
C          15.681000     -1.981000     -4.500000
C          16.505000     -0.979000     -4.895000
C          14.695000     -0.004000      0.715000
C          19.846000     -0.548000     -3.785000
C          18.624000      1.746000     -2.844000
C          18.518000     -2.314000     -4.508000
C          20.328000      0.137000     -0.378000
C          15.601000     -1.949000      1.442000
C          17.562000      2.362000     -2.219000
C          14.393000      0.716000     -0.426000
C          19.966000     -2.613000     -2.618000
C          13.975000     -2.031000     -0.353000
C          19.115000     -3.707000     -0.795000
C          14.690000     -3.209000     -2.218000
C          16.462000     -0.862000      1.868000
C          14.448000     -1.372000      0.804000
C          19.800000     -0.495000      0.750000
C          20.767000     -0.609000     -1.520000
C          16.242000     -3.180000     -4.056000
C          16.180000     -3.136000      1.032000
C          14.364000      0.716000     -2.693000
C          17.947000     -1.083000     -4.914000
C          14.591000     -1.390000     -3.848000
C          20.541000     -1.991000     -1.465000
C          17.994000     -4.054000     -2.879000
$end

--------------------------------------------------------------

             Standard Nuclear Orientation (Angstroms)
    I     Atom           X                Y                Z
 ----------------------------------------------------------------
    1      O      11.6542737872     3.5103148893    -1.7636061857
    2      C      11.9418528219     4.6367081539    -1.0381701015
    3      H      12.9366146255     4.5592802246    -0.5825618598
    4      H      11.2482573613     4.7608704592    -0.1971670938
    5      H      11.9082021701     5.5080975199    -1.7043361517
    6      O      11.4769969569     2.0750019967    -0.0055038491
    7      C      11.3709824896     2.2651182903    -1.2074762812
    8      C      10.8765799908     1.2027413573    -2.1878534645
    9      H      11.7010435105     0.4986199845    -2.3596643988
   10      H      10.7595940983     1.7257087655    -3.1447141602
   11      C       9.7296155267     0.3147309555    -1.7892947558
   12      H       9.8882016476    -0.7043128757    -2.1637411635
   13      H       9.8121329812     0.2166858127    -0.6996824304
   14      C       8.3532428989     0.7787732786    -2.3096524327
   15      H       8.3982056714     1.6243618626    -3.0073660528
   16      H       8.0386793279     0.0191140248    -3.0351002791
   17      C       7.3233605900     1.1267890056    -1.1959264863
   18      C       7.5075491632     2.4630307113    -0.5976676180
   19      C       8.3735534613     2.5957329566     0.4822488925
   20      H       8.8582936174     1.6818072964     0.8128632733
   21      C       8.5307932876     3.8961743637     1.0815583148
   22      H       9.1995233749     4.0660528994     1.9202968638
   23      C       7.9067646058     5.0659300258     0.5978239918
   24      H       7.9807339066     6.0281775239     1.0957781011
   25      C       7.1716122571     4.9274357016    -0.5782913709
   26      H       6.5336900472     5.6970506428    -1.0026003342
   27      C       6.9498455215     3.6223890143    -1.1507480583
   28      H       6.1528152057     3.4569122464    -1.8704501598
   29      C       4.6410334272    -0.5849172788     3.2627192260
   30      C       3.0536105333     0.8199570067     2.2469324386
   31      C       0.2814316903    -2.5523012272     0.9013590046
   32      C       6.4357047485    -4.1898128200     0.1022977373
   33      C       1.6324663211    -2.6095242781    -2.3872981604
   34      C       4.3763559024     0.6232621455     2.5559078747
   35      C       4.3071090734    -4.7837026656    -1.6352805496
   36      C       1.4659156399    -2.2498915954     2.9542884208
   37      C       3.6294302236     0.8730684342    -1.7880584982
   38      C       6.3312537042    -3.5960681607    -1.1794913479
   39      C       5.9103165366     0.6255302816    -1.3900892906
   40      C       4.0764475498    -0.1722442749    -2.6618358441
   41      C       4.9941372276    -2.7774235425    -2.7699775997
   42      C       2.9625672289    -4.5927912603    -2.0141592424
   43      C       4.3726531095     1.4910596829     0.4975894533
   44      C       1.0346951979    -4.1570120303    -0.5860640443
   45      C       6.8246262970     0.0732251986    -0.3089307651
   46      C       7.1571291335    -1.4428156036    -0.3224270558
   47      C       0.7579924951    -2.9833474284    -1.3154391305
   48      C       3.7362216505    -4.7653998950     2.3079188568
   49      C       1.5784924650    -4.4472378067     1.8131323901
   50      C       1.8542659107    -3.5899051980     2.9530187023
   51      C       2.3299155420    -1.2046465497     3.4024323301
   52      C       7.0438864182    -1.9893134169     0.9925608634
   53      C       4.6385852749     1.2758033944    -0.9356550526
   54      C       2.0652751423    -0.0846036224     2.6401146142
   55      C       5.3120862001    -3.9365238767    -2.0235254136
   56      C       3.0110432048     1.4049562054     0.9514348662
   57      C       3.2310307565    -1.2270490982    -3.1399176679
   58      C       5.9580115834    -3.7099302414     2.2780139299
   59      C       0.6587852112    -1.7257158463     1.9438641261
   60      C       5.4372860726    -0.3932420536    -2.4066310307
   61      C       4.1252339778    -2.7960342422     3.6722209990
   62      C       3.6963481092    -2.5534936058    -3.1983533549
   63      C       2.3555781379     0.8234408045    -1.3486726062
   64      C       2.9963281672    -5.3984406389     0.1069374735
   65      C       4.3701435299    -5.3809391006    -0.3488574863
   66      C       1.4827046272    -0.2301653479    -1.6992134880
   67      C       6.7926704589    -3.3946660152     1.1924573772
   68      C       6.6797906909    -2.2719169314    -1.3340341927
   69      C       5.0804697671    -4.7254757271     1.8520635488
   70      C       6.3457937537     0.2052028590     1.1168908551
   71      C       0.9815167436     0.1689197271     0.4596278235
   72      C       5.8379900462    -1.7404001990    -2.3658847816
   73      C       1.9657461678    -1.2825343373    -2.5623388440
   74      C       5.4390974424    -2.7313404919     3.1963097518
   75      C       0.3322797137    -2.0084953062    -0.3725356531
   76      C       3.6708249011    -1.5032647243     3.7205569540
   77      C       0.7433206314    -3.8929614017     0.7702792483
   78      C       2.0227291144     1.0124599211     0.0554215150
   79      C       0.6415153907    -0.5988667825    -0.6156111991
   80      C       5.2043413485     1.0282815694     1.5012134321
   81      C       6.6198432140    -0.9675731808     1.8855873192
   82      C       2.7237271255    -5.1330937110     1.4464618965
   83      C       0.9866510833    -0.4050135167     1.7869108642
   84      C       2.6951460644    -3.4182957629    -2.8064800406
   85      C       5.4119922310    -5.0785916297     0.5265345921
   86      C       2.1151270729    -4.9274192238    -0.9663609278
   87      C       5.7663529885    -1.3671781344     2.9322077452
   88      C       3.2318648043    -3.7992288173     3.2116592069
   89      O      -0.0239457450     6.0370986505     2.4772331632
   90      C       0.1359565733     7.1745237740     3.2923517662
   91      H       0.0569871355     8.1130035097     2.7304837981
   92      H       1.1642121302     7.2217391487     3.6736013145
   93      H      -0.5643100435     7.1205106184     4.1347692662
   94      O       2.0137960763     6.4110169779     1.5462732533
   95      C       0.9893097043     5.7264697471     1.6770431366
   96      C       0.7999804336     4.3644377110     1.1236778323
   97      H       0.7918608492     3.6172213673     1.9276528368
   98      H       1.6455720315     4.1838653124     0.4488797451
   99      C      -0.4452909558     4.2550910848     0.2687524073
  100      H      -0.7315774669     5.2031437151    -0.2028992051
  101      H      -0.2813038413     3.5862632165    -0.5850733998
  102      C      -1.6867454178     3.6697308458     1.0819296386
  103      H      -1.5231275806     2.6463170936     1.4405763939
  104      H      -1.8245113092     4.3398310650     1.9397339610
  105      C      -3.0055282924     3.5591862181     0.2546741672
  106      C      -3.3232245365     4.7897795367    -0.3991784006
  107      C      -3.7438793937     5.8481785767     0.3745851055
  108      H      -3.9114364559     5.7671174856     1.4450068590
  109      C      -3.9849924599     7.0898567270    -0.2262849808
  110      H      -4.2644208518     7.8981690818     0.4434365366
  111      C      -3.6272582783     7.3141442813    -1.5369750083
  112      H      -3.6828235268     8.3333631068    -1.9101833800
  113      C      -3.1199132248     6.2951259944    -2.3135609519
  114      H      -2.8045605786     6.3331410727    -3.3527176111
  115      C      -3.0369037631     5.0058861178    -1.7254631967
  116      H      -2.4916427224     4.2869849682    -2.3306429507
  117      C      -8.2180961439     2.1221514555     0.3570532885
  118      C      -7.6689349395     1.9305827777    -1.9902887005
  119      C      -7.6971552804    -2.5080872614    -2.3093731668
  120      C      -5.0495061584    -0.5275738979     3.2189439319
  121      C      -4.2253659711    -2.8604492162    -1.9469851908
  122      C      -7.5561034463     2.6217669633    -0.7963781194
  123      C      -4.2480525779    -2.6995588110     1.6383125089
  124      C      -9.1495047186    -1.0527509077    -1.0924166323
  125      C      -3.8286307106     1.0820397526    -2.4507191125
  126      C      -3.8546070355    -0.5059914603     2.5570947915
  127      C      -3.4417200414     2.3104660639    -0.4015275812
  128      C      -2.9442183318     0.3463243576    -1.6273682749
  129      C      -2.7123964671    -1.1188365082     0.6743813336
  130      C      -4.2995836711    -3.4126685858     0.4425232316
  131      C      -5.5528196560     2.6186279050    -1.8066940115
  132      C      -6.2333566429    -3.7145745359    -0.9358747120
  133      C      -4.1604077356     2.7284412576     0.8034594460
  134      C      -4.1532398232     1.8356126504     1.9053880731
  135      C      -5.5873717786    -3.2997561179    -2.0904028559
  136      C      -8.1482972182    -1.8774020281     2.0759413132
  137      C      -8.3061122882    -2.9191733462     0.0859031416
  138      C      -9.1216992517    -1.7960222727     0.0802843245
  139      C      -9.1621797171     0.3334167009    -1.0213694277
  140      C      -5.4176040035     1.8082527143     2.5397922450
  141      C      -4.1598526316     2.2377233177    -1.7417589328
  142      C      -8.5326059763     0.8099229986    -2.1852399759
  143      C      -3.4353619180    -1.5693111180     1.7394017948
  144      C      -6.4608255209     1.9386980816    -2.5951455221
  145      C      -2.8901417752    -1.0264972125    -1.7626556091
  146      C      -7.1784561719     0.1826696413     3.0651162532
  147      C      -8.5052880613    -1.4571712848    -2.3332272774
  148      C      -2.7394565508     1.0362775540    -0.4455120232
  149      C      -8.9320350995     0.2852931342     1.3681040661
  150      C      -2.7915644914    -1.7952950632    -0.6048458735
  151      C      -4.6496147608     0.4252582561    -3.3211789076
  152      C      -6.3508716548    -3.4449054124     1.4384466196
  153      C      -5.5016742912    -2.7776811111     2.2586176807
  154      C      -4.6995183209    -0.9631111579    -3.3772235772
  155      C      -5.8484769153     0.6248059988     3.1982726209
  156      C      -3.4521056435     0.6471921486     1.8205554555
  157      C      -7.2409013824    -1.2266700282     3.0026719436
  158      C      -5.5860906566     3.0258389396     0.6535934135
  159      C      -6.8440294360    -0.2535033227    -3.5501940875
  160      C      -2.6961000531     0.2632263670     0.7347604353
  161      C      -3.8330373883    -1.6755509654    -2.5690618891
  162      C      -7.9933085209     0.9133181199     2.2200230927
  163      C      -6.4364914166    -2.5679295615    -2.9586123535
  164      C      -9.0567382057     0.9852094675     0.1931252315
  165      C      -7.5588575901    -3.2642465248    -1.0526819091
  166      C      -5.9939369442     0.9109707241    -3.3898539816
  167      C      -5.9930738700    -1.4101382722    -3.6365203192
  168      C      -6.1999813624     3.0788792933    -0.5997688335
  169      C      -6.2976600037     2.5950808437     1.8204342454
  170      C      -7.6729798555    -3.0077239093     1.3366613598
  171      C      -8.0803611858    -0.2661488737    -2.9308122226
  172      C      -3.6211034513    -2.9386409511    -0.6982819195
  173      C      -5.8890324481    -1.6442387992     3.0684344402
  174      C      -5.6161285036    -3.8421620639     0.3138023850
  175      C      -7.6059718316     2.1434189596     1.6005554073
  176      C      -8.9821999343    -1.1361118000     1.2951897153
 ----------------------------------------------------------------

    9   -5804.2654444720      7.92E-06 Convergence criterion met
 Total energy in the final basis set = -5804.2654444720

                    Orbital Energies (a.u.)
 --------------------------------------------------------------

 Alpha MOs
 -- Occupied --
-19.203 -19.187 -19.139 -19.134 -10.324 -10.315 -10.245 -10.244
-10.241 -10.240 -10.238 -10.238 -10.231 -10.230 -10.229 -10.229
-10.228 -10.227 -10.227 -10.226 -10.226 -10.225 -10.225 -10.223
-10.223 -10.223 -10.222 -10.221 -10.221 -10.220 -10.220 -10.220
-10.220 -10.219 -10.219 -10.219 -10.219 -10.219 -10.218 -10.218
-10.218 -10.218 -10.218 -10.218 -10.217 -10.217 -10.217 -10.217
-10.216 -10.216 -10.216 -10.216 -10.216 -10.216 -10.216 -10.216
-10.216 -10.216 -10.216 -10.215 -10.215 -10.215 -10.215 -10.215
-10.214 -10.214 -10.214 -10.214 -10.214 -10.214 -10.214 -10.214
-10.214 -10.214 -10.213 -10.213 -10.213 -10.213 -10.213 -10.212
-10.212 -10.212 -10.212 -10.212 -10.212 -10.212 -10.212 -10.212
-10.212 -10.212 -10.212 -10.211 -10.211 -10.211 -10.211 -10.211
-10.211 -10.211 -10.211 -10.211 -10.211 -10.211 -10.211 -10.211
-10.211 -10.211 -10.210 -10.210 -10.210 -10.209 -10.209 -10.209
-10.209 -10.209 -10.209 -10.209 -10.208 -10.208 -10.208 -10.207
-10.207 -10.207 -10.207 -10.207 -10.207 -10.207 -10.205 -10.205
-10.205 -10.205 -10.204 -10.203 -10.202 -10.202 -10.201 -10.201
-10.200 -10.199 -10.199 -10.198 -10.197 -10.197 -10.197 -10.196
-10.194 -10.193 -10.193 -10.193  -1.116  -1.095  -1.015  -1.006
 -0.985  -0.981  -0.970  -0.965  -0.963  -0.961  -0.961  -0.958
 -0.938  -0.936  -0.927  -0.927  -0.926  -0.924  -0.924  -0.922
 -0.920  -0.917  -0.898  -0.897  -0.890  -0.887  -0.886  -0.883
 -0.880  -0.873  -0.860  -0.848  -0.842  -0.842  -0.840  -0.839
 -0.837  -0.834  -0.820  -0.820  -0.810  -0.809  -0.799  -0.798
 -0.795  -0.795  -0.794  -0.793  -0.792  -0.791  -0.785  -0.782
 -0.773  -0.772  -0.772  -0.768  -0.768  -0.765  -0.765  -0.763
 -0.751  -0.748  -0.745  -0.737  -0.735  -0.733  -0.718  -0.718
 -0.715  -0.713  -0.712  -0.711  -0.711  -0.710  -0.709  -0.709
 -0.707  -0.706  -0.705  -0.704  -0.703  -0.702  -0.674  -0.673
 -0.660  -0.659  -0.658  -0.657  -0.647  -0.646  -0.632  -0.631
 -0.629  -0.627  -0.625  -0.624  -0.624  -0.620  -0.619  -0.617
 -0.617  -0.614  -0.614  -0.612  -0.611  -0.610  -0.609  -0.609
 -0.608  -0.605  -0.603  -0.601  -0.576  -0.568  -0.564  -0.562
 -0.562  -0.561  -0.558  -0.558  -0.556  -0.555  -0.554  -0.554
 -0.541  -0.534  -0.532  -0.531  -0.530  -0.528  -0.527  -0.523
 -0.522  -0.519  -0.519  -0.518  -0.515  -0.515  -0.513  -0.513
 -0.510  -0.510  -0.506  -0.502  -0.492  -0.491  -0.489  -0.487
 -0.487  -0.485  -0.483  -0.482  -0.481  -0.480  -0.476  -0.475
 -0.475  -0.473  -0.472  -0.471  -0.468  -0.467  -0.466  -0.465
 -0.464  -0.463  -0.463  -0.462  -0.462  -0.460  -0.459  -0.458
 -0.455  -0.454  -0.453  -0.452  -0.450  -0.449  -0.444  -0.443
 -0.442  -0.440  -0.440  -0.439  -0.437  -0.436  -0.434  -0.433
 -0.432  -0.431  -0.429  -0.427  -0.426  -0.426  -0.426  -0.424
 -0.424  -0.423  -0.421  -0.420  -0.419  -0.419  -0.418  -0.417
 -0.416  -0.416  -0.415  -0.415  -0.414  -0.413  -0.412  -0.412
 -0.411  -0.411  -0.409  -0.407  -0.405  -0.401  -0.397  -0.396
 -0.396  -0.393  -0.393  -0.391  -0.388  -0.388  -0.385  -0.384
 -0.375  -0.374  -0.372  -0.372  -0.369  -0.367  -0.366  -0.366
 -0.365  -0.364  -0.363  -0.362  -0.361  -0.361  -0.360  -0.358
 -0.358  -0.356  -0.355  -0.354  -0.353  -0.353  -0.352  -0.351
 -0.350  -0.349  -0.347  -0.345  -0.345  -0.344  -0.342  -0.341
 -0.340  -0.340  -0.338  -0.338  -0.337  -0.336  -0.335  -0.334
 -0.332  -0.330  -0.329  -0.327  -0.327  -0.326  -0.325  -0.323
 -0.314  -0.308  -0.303  -0.292  -0.286  -0.284  -0.273  -0.272
 -0.271  -0.269  -0.268  -0.267  -0.267  -0.265  -0.265  -0.263
 -0.262  -0.262  -0.260  -0.258  -0.257  -0.255  -0.253  -0.252
 -0.251  -0.246  -0.242  -0.241  -0.222  -0.219  -0.215  -0.212
 -0.212  -0.208  -0.205  -0.201  -0.199  -0.195

          Ground-State Mulliken Net Atomic Charges

     Atom                 Charge (a.u.)
  ----------------------------------------
      1 O                    -0.462116
      2 C                    -0.075790
      3 H                     0.111547
      4 H                     0.121922
      5 H                     0.118926
      6 O                    -0.470130
      7 C                     0.605078
      8 C                    -0.254043
      9 H                     0.137966
     10 H                     0.123421
     11 C                    -0.195056
     12 H                     0.112256
     13 H                     0.134107
     14 C                    -0.191872
     15 H                     0.117887
     16 H                     0.112185
     17 C                     0.013664
     18 C                     0.106089
     19 C                    -0.100422
     20 H                     0.108181
     21 C                    -0.111670
     22 H                     0.094597
     23 C                    -0.074578
     24 H                     0.099507
     25 C                    -0.096354
     26 H                     0.095888
     27 C                    -0.120516
     28 H                     0.086815
     29 C                     0.010357
     30 C                     0.007087
     31 C                     0.020893
     32 C                    -0.017486
     33 C                     0.014874
     34 C                    -0.009785
     35 C                     0.014041
     36 C                     0.006105
     37 C                     0.025339
     38 C                     0.016190
     39 C                    -0.122368
     40 C                     0.004899
     41 C                    -0.004952
     42 C                    -0.000941
     43 C                     0.001094
     44 C                     0.008170
     45 C                    -0.059334
     46 C                     0.008459
     47 C                    -0.019538
     48 C                     0.015919
     49 C                    -0.032538
     50 C                    -0.027124
     51 C                    -0.021502
     52 C                    -0.004696
     53 C                     0.037613
     54 C                     0.027912
     55 C                     0.005280
     56 C                    -0.034881
     57 C                    -0.031432
     58 C                    -0.011151
     59 C                     0.026211
     60 C                     0.021144
     61 C                     0.009336
     62 C                    -0.002713
     63 C                    -0.021814
     64 C                    -0.022974
     65 C                    -0.004313
     66 C                    -0.009756
     67 C                     0.001015
     68 C                     0.006671
     69 C                     0.006407
     70 C                     0.034463
     71 C                     0.001099
     72 C                     0.003169
     73 C                     0.015045
     74 C                    -0.004584
     75 C                    -0.004115
     76 C                    -0.009407
     77 C                    -0.007395
     78 C                    -0.003431
     79 C                    -0.000190
     80 C                     0.005681
     81 C                     0.006633
     82 C                     0.030224
     83 C                    -0.019890
     84 C                    -0.013469
     85 C                    -0.009978
     86 C                     0.009270
     87 C                    -0.013681
     88 C                     0.004312
     89 O                    -0.425021
     90 C                    -0.093821
     91 H                     0.126607
     92 H                     0.133709
     93 H                     0.119422
     94 O                    -0.494567
     95 C                     0.592561
     96 C                    -0.246588
     97 H                     0.136411
     98 H                     0.134239
     99 C                    -0.204519
    100 H                     0.125162
    101 H                     0.106761
    102 C                    -0.172227
    103 H                     0.102881
    104 H                     0.124759
    105 C                     0.006202
    106 C                     0.116914
    107 C                    -0.104647
    108 H                     0.088356
    109 C                    -0.088182
    110 H                     0.085625
    111 C                    -0.083271
    112 H                     0.086509
    113 C                    -0.091000
    114 H                     0.094128
    115 C                    -0.121354
    116 H                     0.089693
    117 C                    -0.005848
    118 C                     0.028847
    119 C                     0.012061
    120 C                     0.003664
    121 C                    -0.016758
    122 C                    -0.041513
    123 C                    -0.002658
    124 C                     0.000157
    125 C                     0.016500
    126 C                    -0.018838
    127 C                    -0.086540
    128 C                     0.024334
    129 C                     0.001036
    130 C                    -0.010422
    131 C                    -0.027837
    132 C                     0.035008
    133 C                    -0.075240
    134 C                     0.030922
    135 C                    -0.020474
    136 C                     0.000652
    137 C                    -0.017847
    138 C                    -0.010540
    139 C                     0.020566
    140 C                     0.012821
    141 C                     0.004319
    142 C                    -0.029423
    143 C                     0.009005
    144 C                     0.050602
    145 C                    -0.011088
    146 C                    -0.011806
    147 C                    -0.010379
    148 C                     0.026815
    149 C                    -0.011717
    150 C                    -0.022228
    151 C                    -0.012008
    152 C                     0.017207
    153 C                     0.005597
    154 C                     0.031373
    155 C                    -0.001600
    156 C                     0.008635
    157 C                    -0.023837
    158 C                     0.051346
    159 C                    -0.005097
    160 C                    -0.012666
    161 C                     0.012899
    162 C                     0.008792
    163 C                    -0.000970
    164 C                     0.009008
    165 C                    -0.002977
    166 C                    -0.035576
    167 C                    -0.025248
    168 C                    -0.015185
    169 C                    -0.024451
    170 C                    -0.007163
    171 C                     0.018962
    172 C                     0.007016
    173 C                    -0.004791
    174 C                    -0.013397
    175 C                     0.005125
    176 C                     0.011150
  ----------------------------------------
  Sum of atomic charges =     0.000000

                    Cartesian Multipole Moments
 -----------------------------------------------------------------
    Charge (ESU x 10^10)
                 0.0000
    Dipole Moment (Debye)
         X       2.4252      Y       3.7719      Z      -1.3497
       Tot       4.6830
    Quadrupole Moments (Debye-Ang)
        XX    -810.5600     XY      -0.2267     YY    -784.2054
        XZ     -22.2568     YZ       7.7791     ZZ    -798.9260

 Total job time:  875.41s(wall), 8331.52s(cpu)
        *  Thank you very much for using Q-Chem.  Have a nice day.  *
