 Q-Chem 4.4, Q-Chem, Inc., Pleasanton, CA (2016)
 Q-Chem 4.4.2 for Intel X86 Linux

User input:
--------------------------------------------------------------
$comment
SP
$end

$rem
MEM_STATIC 5000
MEM_TOTAL 20000
JOBTYPE SP
EXCHANGE B3LYP
BASIS 6-31g(d,p)
$end

$molecule
0 1
O          11.571000     -7.117000      8.775000
C          10.459000     -7.625000      7.960000
H           9.562000     -6.993000      7.947000
H          10.193000     -8.642000      8.274000
H          10.866000     -7.723000      6.946000
O          11.949000     -5.169000      7.686000
C          12.328000     -6.138000      8.337000
C          13.702000     -6.122000      8.993000
H          13.622000     -6.756000      9.885000
H          13.839000     -5.067000      9.261000
C          14.889000     -6.601000      8.104000
H          14.724000     -7.629000      7.760000
H          14.969000     -5.973000      7.209000
C          16.243000     -6.551000      8.893000
H          16.174000     -5.695000      9.576000
H          16.262000     -7.473000      9.487000
C          17.418000     -6.423000      8.013000
C          17.727000     -7.722000      7.345000
C          18.539000     -8.564000      8.105000
H          18.829000     -8.359000      9.132000
C          19.005000     -9.689000      7.455000
H          19.692000    -10.329000      8.001000
C          18.680000     -9.991000      6.143000
H          19.188000    -10.875000      5.768000
C          17.766000     -9.232000      5.427000
H          17.454000     -9.417000      4.403000
C          17.273000     -8.099000      6.082000
H          16.584000     -7.472000      5.523000
C          22.621000     -4.273000      7.737000
C          21.765000     -3.829000      5.491000
C          21.259000      0.628000      5.849000
C          19.434000     -2.357000     11.182000
C          17.755000      0.387000      6.372000
C          21.816000     -4.647000      6.655000
C          18.099000     -0.084000      9.984000
C          23.079000     -0.828000      6.679000
C          17.760000     -3.566000      5.500000
C          18.124000     -2.443000     10.561000
C          17.672000     -5.070000      7.298000
C          16.836000     -3.084000      6.415000
C          16.714000     -1.803000      8.890000
C          18.003000      0.744000      8.815000
C          19.776000     -4.925000      5.786000
C          19.766000      1.410000      7.397000
C          18.599000     -5.500000      8.422000
C          18.658000     -4.634000      9.701000
C          19.059000      0.953000      6.263000
C          22.081000     -0.472000     10.017000
C          22.063000      0.801000      8.180000
C          22.977000     -0.206000      7.957000
C          23.241000     -2.244000      6.554000
C          19.972000     -4.472000     10.183000
C          18.371000     -4.752000      5.996000
C          22.479000     -2.632000      5.410000
C          17.487000     -1.326000      9.978000
C          20.507000     -4.052000      4.936000
C          16.679000     -1.613000      6.522000
C          21.607000     -2.747000     10.772000
C          22.233000     -0.437000      5.601000
C          16.839000     -3.864000      7.552000
C          23.216000     -2.386000      9.021000
C          16.540000     -0.976000      7.752000
C          18.530000     -2.686000      4.716000
C          20.133000      0.891000      9.711000
C          19.436000     -0.032000     10.500000
C          18.376000     -1.346000      4.867000
C          20.365000     -3.348000     10.890000
C          17.737000     -3.579000      9.838000
C          21.385000     -1.345000     10.898000
C          20.116000     -5.559000      8.135000
C          20.523000     -1.733000      4.347000
C          16.883000     -3.161000      8.791000
C          17.479000     -0.785000      5.727000
C          22.475000     -3.260000      9.809000
C          19.940000      0.440000      5.354000
C          23.277000     -3.065000      7.707000
C          21.128000      1.170000      7.127000
C          19.877000     -2.933000      4.427000
C          19.574000     -0.679000      4.600000
C          20.644000     -5.358000      6.832000
C          20.866000     -5.006000      9.236000
C          21.465000      0.712000      9.494000
C          21.854000     -1.567000      4.787000
C          17.189000      0.255000      7.681000
C          20.036000     -1.100000     11.140000
C          19.291000      1.358000      8.692000
C          22.117000     -4.385000      9.016000
C          22.987000     -0.983000      9.068000
O          22.663000      6.280000     -0.755000
C          24.002000      6.711000     -0.826000
H          24.466000      6.817000      0.162000
H          24.046000      7.738000     -1.211000
H          24.564000      6.046000     -1.493000
O          22.044000      8.316000      0.039000
C          21.767000      7.173000     -0.351000
C          20.397000      6.674000     -0.618000
H          20.239000      6.533000     -1.695000
H          19.709000      7.436000     -0.232000
C          20.084000      5.405000      0.147000
H          20.647000      5.314000      1.084000
H          19.038000      5.390000      0.477000
C          20.308000      4.096000     -0.737000
H          19.646000      4.047000     -1.610000
H          21.352000      4.137000     -1.072000
C          20.024000      2.756000      0.011000
C          20.721000      2.689000      1.257000
C          22.089000      2.535000      1.230000
H          22.649000      2.392000      0.310000
C          22.809000      2.547000      2.431000
H          23.889000      2.473000      2.341000
C          22.194000      2.898000      3.612000
H          22.823000      3.051000      4.485000
C          20.839000      3.145000      3.655000
H          20.232000      3.424000      4.512000
C          20.105000      2.968000      2.453000
H          19.080000      3.323000      2.514000
C          19.958000     -2.637000     -0.386000
C          18.395000     -2.226000      1.413000
C          14.634000     -3.225000     -0.746000
C          18.766000     -0.017000     -4.505000
C          13.857000      0.099000     -1.556000
C          19.592000     -1.924000      0.787000
C          15.975000      0.239000     -4.450000
C          16.774000     -4.284000     -0.831000
C          16.688000      1.321000      0.983000
C          18.179000      1.130000     -4.051000
C          18.738000      2.037000     -0.086000
C          16.372000      2.054000     -0.185000
C          16.414000      2.045000     -2.923000
C          14.747000     -0.008000     -3.840000
C          18.631000     -0.006000      1.444000
C          14.126000     -2.009000     -2.682000
C          19.886000      1.469000     -0.795000
C          19.772000      1.322000     -2.201000
C          13.694000     -1.330000     -1.553000
C          17.660000     -3.373000     -4.010000
C          15.748000     -3.823000     -2.909000
C          16.816000     -4.376000     -2.216000
C          17.937000     -3.994000     -0.131000
C          20.353000      0.105000     -2.629000
C          18.081000      1.273000      1.055000
C          17.553000     -3.318000      1.041000
C          16.783000      1.280000     -3.990000
C          17.826000     -1.067000      1.811000
C          15.176000      1.805000     -0.828000
C          19.680000     -1.946000     -3.795000
C          15.632000     -3.787000     -0.078000
C          17.543000      2.445000     -0.810000
C          19.174000     -3.695000     -2.167000
C          15.175000      1.776000     -2.221000
C          15.839000      0.347000      1.423000
C          15.681000     -1.981000     -4.500000
C          16.505000     -0.979000     -4.895000
C          14.695000     -0.004000      0.715000
C          19.846000     -0.548000     -3.785000
C          18.624000      1.746000     -2.844000
C          18.518000     -2.314000     -4.508000
C          20.328000      0.137000     -0.378000
C          15.601000     -1.949000      1.442000
C          17.562000      2.362000     -2.219000
C          14.393000      0.716000     -0.426000
C          19.966000     -2.613000     -2.618000
C          13.975000     -2.031000     -0.353000
C          19.115000     -3.707000     -0.795000
C          14.690000     -3.209000     -2.218000
C          16.462000     -0.862000      1.868000
C          14.448000     -1.372000      0.804000
C          19.800000     -0.495000      0.750000
C          20.767000     -0.609000     -1.520000
C          16.242000     -3.180000     -4.056000
C          16.180000     -3.136000      1.032000
C          14.364000      0.716000     -2.693000
C          17.947000     -1.083000     -4.914000
C          14.591000     -1.390000     -3.848000
C          20.541000     -1.991000     -1.465000
C          17.994000     -4.054000     -2.879000
$end

--------------------------------------------------------------

             Standard Nuclear Orientation (Angstroms)
    I     Atom           X                Y                Z
 ----------------------------------------------------------------
    1      O       6.9946718425    -6.8928311559     3.6350383304
    2      C       6.4236059891    -8.2128110522     3.9356541393
    3      H       6.1095149150    -8.3602970512     4.9767096984
    4      H       7.1245811733    -9.0043642758     3.6428772872
    5      H       5.5622306605    -8.3140571131     3.2639170044
    6      O       5.2046086647    -5.6058665183     4.1477808006
    7      C       6.2173956053    -5.8440089383     3.4966634527
    8      C       6.8617553694    -4.7435696675     2.6646166356
    9      H       7.9334562204    -4.9762261620     2.6278982263
   10      H       6.6671374814    -3.8384167968     3.2532083093
   11      C       6.3057611889    -4.5653738567     1.2196779780
   12      H       6.4189895581    -5.4922881042     0.6449134053
   13      H       5.2338612231    -4.3377910367     1.2520125328
   14      C       7.0555888025    -3.4151068586     0.4627226406
   15      H       7.3123356326    -2.6612603066     1.2175619885
   16      H       7.9821853292    -3.8720215827     0.0940373933
   17      C       6.2522659132    -2.8180842468    -0.6187787864
   18      C       6.2050661097    -3.7204095706    -1.8073439671
   19      C       7.2810839624    -3.5553195034    -2.6796047369
   20      H       8.1378960874    -2.9208387092    -2.4694593008
   21      C       7.1835487644    -4.2283913200    -3.8807467829
   22      H       7.9755763627    -4.0666902042    -4.6061639268
   23      C       6.1076814413    -5.0372981772    -4.2068636324
   24      H       6.1599300361    -5.4337311594    -5.2169408448
   25      C       5.1022339478    -5.3139595999    -3.2921687132
   26      H       4.2388368945    -5.9479383812    -3.4731699096
   27      C       5.1998332430    -4.6514413927    -2.0644443945
   28      H       4.4013995603    -4.8273521958    -1.3489794801
   29      C       5.3123660156     1.9965910830    -3.3946344474
   30      C       3.0546000487     1.0876526574    -3.1694416913
   31      C       1.4860367547     3.9762338830    -0.0962094033
   32      C       7.4997707905     2.2694289091     1.1701075903
   33      C       1.9176199216     1.6760036548     2.5744277618
   34      C       4.4555558399     0.8919342315    -3.3295609250
   35      C       5.4040708400     2.6339249287     3.1345775873
   36      C       2.9248124806     4.3905586375    -2.0658528757
   37      C       2.7879302159    -1.3385335458     0.0167445411
   38      C       6.9191730157     1.1721369989     1.9237611497
   39      C       5.0461196744    -1.9176139321    -0.2436595213
   40      C       3.3770267046    -1.3354249314     1.2722447058
   41      C       5.0776042393     0.2078700923     2.8558313053
   42      C       3.9925347981     2.8058033532     3.3330336522
   43      C       3.7008347334    -0.8886231507    -2.2097143016
   44      C       2.4996055553     4.0039378877     1.9553236271
   45      C       6.2837645786    -1.2826362686    -0.8541048160
   46      C       7.0818689820    -0.2629839738    -0.0099386244
   47      C       1.6345435669     2.8899339445     1.8824060648
   48      C       5.7603835080     4.9701466050    -0.0938998498
   49      C       3.5595297875     5.3072482134     0.1011063214
   50      C       3.8179059261     5.1344519368    -1.2414871457
   51      C       3.4129898642     3.4703466691    -3.0465759636
   52      C       7.5046930097     0.8491162679    -0.7646683070
   53      C       3.7608811929    -1.6225140646    -0.9825824631
   54      C       2.5076191348     2.3657218944    -3.0409235788
   55      C       5.8952712406     1.3653661579     2.8764597627
   56      C       2.5935211102    -0.0520020308    -2.5145284115
   57      C       2.8496315205    -0.3788272563     2.2755961934
   58      C       7.3810881691     3.2938884480    -0.8245167073
   59      C       1.7485764273     3.7947080317    -1.5253791922
   60      C       4.7355724089    -1.5438531745     1.1622936401
   61      C       5.7080849345     4.0805566337    -2.3631577774
   62      C       3.6913907296     0.3372880916     3.1221245404
   63      C       1.7391088624    -0.4521671921    -0.2935528252
   64      C       4.8304579268     4.5615048424     2.0773576944
   65      C       5.9048715138     3.6941920270     2.3090102881
   66      C       1.3067570753     0.4278234690     0.6449594914
   67      C       7.6895708595     2.0986010614    -0.1969695034
   68      C       6.7250776087    -0.0865228821     1.3397266671
   69      C       6.8972365186     4.1654758971     0.1938088295
   70      C       6.1106190137    -0.4187038838    -2.1232700723
   71      C       1.0860263642     1.4050599094    -1.3615461509
   72      C       5.5652739825    -0.6596126069     1.9112795660
   73      C       1.8139138589     0.4875493910     1.9091409701
   74      C       6.7592019693     3.2184754392    -2.0701219548
   75      C       1.0621447217     2.8388861119     0.6433077311
   76      C       4.8046183138     3.2595120031    -3.2004102960
   77      C       2.4115474723     4.6453275372     0.7037609672
   78      C       1.6361513724     0.1689587677    -1.5435693440
   79      C       0.8336663349     1.5966808068     0.0438441320
   80      C       4.8666076606    -0.3171730306    -2.8008549299
   81      C       6.9072004896     0.7807011688    -2.0372731407
   82      C       4.7635905882     5.2415259595     0.8998798648
   83      C       1.4697923653     2.5186887305    -2.1395381209
   84      C       3.1365249868     1.5996480988     3.3225596159
   85      C       6.9583440964     3.5278224039     1.4299535971
   86      C       3.6759457618     4.0387075650     2.6766895455
   87      C       6.4982168134     1.9658250306    -2.6909211995
   88      C       5.1519082051     4.9250371973    -1.3628683077
   89      O      -6.8175856103     6.8975028507     0.1163446749
   90      C      -7.0080644085     8.0511412921    -0.6688681459
   91      H      -6.1378787868     8.7184991153    -0.6595665561
   92      H      -7.7867155700     8.6839786433    -0.2237734868
   93      H      -7.3103135544     7.7570148691    -1.6813369608
   94      O      -6.9784879760     8.1494895042     2.0046065339
   95      C      -6.8632465172     7.0556527586     1.4340641778
   96      C      -6.9518887650     5.7348640505     2.1010347471
   97      H      -7.8754977937     5.2164871986     1.8129274727
   98      H      -6.9503004459     5.9318944809     3.1799974373
   99      C      -5.7381235501     4.8692915544     1.8343640572
  100      H      -4.8273517716     5.4486164578     1.6391810048
  101      H      -5.4755819882     4.2735605208     2.7172102861
  102      C      -5.9804260136     3.8409936317     0.6389537100
  103      H      -6.7784280634     3.1181215117     0.8473346752
  104      H      -6.2585047815     4.4521109457    -0.2288307261
  105      C      -4.7510557338     2.9397420553     0.3040592325
  106      C      -3.5647423634     3.7141402077     0.1148976912
  107      C      -3.4683895155     4.4909997829    -1.0178310182
  108      H      -4.2193663540     4.4857767389    -1.8029778247
  109      C      -2.3551144527     5.3223476242    -1.1922569374
  110      H      -2.3612998315     5.9486884897    -2.0797448873
  111      C      -1.4571629559     5.5137645425    -0.1659871518
  112      H      -0.7042045288     6.2877570844    -0.2891462037
  113      C      -1.5775459589     4.8150550160     1.0156201985
  114      H      -0.9427430299     4.8660864154     1.8960519321
  115      C      -2.6229870395     3.8590232100     1.1047556738
  116      H      -2.7588803854     3.4563158577     2.1046210582
  117      C      -2.8481147790    -0.9872626870    -2.8902894455
  118      C      -1.4540196576    -1.1905396366    -0.9247187207
  119      C      -3.1459305044    -4.9768564491     0.6894825315
  120      C      -7.7317617324    -1.1463559136    -1.7172136680
  121      C      -5.3085058303    -3.4000744048     2.9579250246
  122      C      -2.0992709796    -0.3829035652    -1.8451880073
  123      C      -7.9039730601    -2.7719820821     0.5600489033
  124      C      -2.6902964023    -4.3456353122    -1.5693365054
  125      C      -3.4039473570     0.0471389019     2.2917843187
  126      C      -7.8261182914    -0.5945039994    -0.4710795242
  127      C      -4.5897168835     1.5700802685     0.8314702347
  128      C      -4.7836958776     0.0094405410     2.6020130303
  129      C      -7.2603356608    -0.7748770161     1.7362241681
  130      C      -7.2976036885    -3.5661276807     1.5309978996
  131      C      -2.3488344028     0.5232619360     0.1920837424
  132      C      -5.4326949646    -5.0283309399     1.1923489955
  133      C      -4.9467436532     1.7136164564    -0.5810233931
  134      C      -6.1642827708     1.1229697396    -1.0054947735
  135      C      -4.7121647375    -4.5037183464     2.2543865742
  136      C      -5.9185766730    -4.0664744138    -2.6744309296
  137      C      -4.8098788301    -5.3041733689    -1.1547811707
  138      C      -3.9055014522    -4.7899233049    -2.0736557160
  139      C      -2.1298115939    -3.1784955353    -2.0696469297
  140      C      -6.0171956506     0.5259551941    -2.2797682966
  141      C      -3.2613494707     0.9434730917     1.2315070611
  142      C      -1.3670696076    -2.6120179401    -1.0326590819
  143      C      -7.8911169266    -1.3824210215     0.6908150251
  144      C      -1.6034456887    -0.6350369221     0.2977928725
  145      C      -5.3110850102    -1.1338186474     3.1683037072
  146      C      -6.2402470215    -1.6887385246    -3.3114978242
  147      C      -2.2633085944    -4.5219098049    -0.1891949492
  148      C      -5.4664956582     0.8625795139     1.7530811410
  149      C      -4.0504019828    -2.7616371766    -3.4489321311
  150      C      -6.5617727283    -1.5645024572     2.7306021104
  151      C      -2.6307336806    -1.0576158977     2.5032895039
  152      C      -7.0287628610    -4.5292074572    -0.5186086367
  153      C      -7.7739700431    -3.4079643766    -0.6813514095
  154      C      -3.1720657005    -2.2573251773     2.9514616679
  155      C      -6.8116569884    -0.6009678544    -2.6242528761
  156      C      -6.9724235102     0.4811320507    -0.0856676557
  157      C      -6.7797088906    -2.9135354156    -2.8610641803
  158      C      -3.9910120269     1.1941692235    -1.5609359559
  159      C      -1.6587463990    -2.8111019911     1.3591093413
  160      C      -6.7081826200     0.4025148932     1.2641179178
  161      C      -4.5213015981    -2.2870294184     3.2517367928
  162      C      -4.8812965751    -1.6218593834    -3.5580639709
  163      C      -3.3182856343    -4.4570849678     1.9988706773
  164      C      -2.8039902546    -2.4049098379    -2.9959283676
  165      C      -4.4848010730    -5.3621633004     0.2107965896
  166      C      -1.6938624295    -1.3648372290     1.4661191647
  167      C      -2.5268334765    -3.3478555027     2.3728659657
  168      C      -2.7245883271     0.7400931692    -1.1859986952
  169      C      -4.6948941068     0.6234972638    -2.6710190753
  170      C      -6.0995432395    -4.8701815856    -1.5033652253
  171      C      -1.5080261135    -3.3831703068     0.1091768480
  172      C      -6.5776488810    -2.9728225342     2.5874675293
  173      C      -7.6883327341    -2.5455532367    -1.8386993594
  174      C      -6.7306917219    -4.6356103391     0.8460587304
  175      C      -4.0737417008    -0.4731153874    -3.2839100785
  176      C      -4.5934767463    -3.9915949228    -2.9793591934
 ----------------------------------------------------------------

    9   -5804.2609266864      7.91E-06 Convergence criterion met
 Total energy in the final basis set = -5804.2609266864

                    Orbital Energies (a.u.)
 --------------------------------------------------------------

 Alpha MOs
 -- Occupied --
-19.205 -19.198 -19.135 -19.126 -10.317 -10.312 -10.257 -10.246
-10.246 -10.242 -10.240 -10.238 -10.232 -10.231 -10.229 -10.227
-10.227 -10.227 -10.226 -10.226 -10.226 -10.224 -10.222 -10.221
-10.221 -10.221 -10.221 -10.221 -10.220 -10.220 -10.220 -10.219
-10.219 -10.218 -10.218 -10.218 -10.217 -10.217 -10.217 -10.216
-10.216 -10.216 -10.216 -10.216 -10.216 -10.216 -10.216 -10.216
-10.216 -10.216 -10.215 -10.215 -10.215 -10.215 -10.215 -10.215
-10.215 -10.215 -10.215 -10.214 -10.214 -10.214 -10.214 -10.214
-10.213 -10.213 -10.213 -10.213 -10.213 -10.213 -10.213 -10.213
-10.213 -10.213 -10.213 -10.213 -10.213 -10.212 -10.212 -10.212
-10.212 -10.212 -10.212 -10.212 -10.212 -10.212 -10.212 -10.212
-10.212 -10.211 -10.211 -10.211 -10.211 -10.211 -10.211 -10.211
-10.211 -10.211 -10.210 -10.210 -10.210 -10.210 -10.210 -10.210
-10.210 -10.210 -10.209 -10.209 -10.209 -10.209 -10.209 -10.208
-10.208 -10.208 -10.208 -10.208 -10.208 -10.207 -10.207 -10.207
-10.207 -10.206 -10.206 -10.206 -10.205 -10.205 -10.205 -10.204
-10.204 -10.202 -10.202 -10.202 -10.201 -10.201 -10.201 -10.201
-10.201 -10.200 -10.199 -10.197 -10.196 -10.196 -10.196 -10.193
-10.193 -10.193 -10.193 -10.192  -1.117  -1.103  -1.007  -1.004
 -0.986  -0.979  -0.971  -0.964  -0.963  -0.961  -0.959  -0.957
 -0.938  -0.931  -0.928  -0.927  -0.924  -0.924  -0.923  -0.920
 -0.920  -0.917  -0.898  -0.892  -0.889  -0.888  -0.886  -0.885
 -0.881  -0.875  -0.860  -0.857  -0.843  -0.842  -0.839  -0.837
 -0.837  -0.832  -0.822  -0.819  -0.812  -0.802  -0.799  -0.797
 -0.796  -0.795  -0.795  -0.792  -0.789  -0.787  -0.785  -0.784
 -0.773  -0.772  -0.769  -0.768  -0.768  -0.766  -0.766  -0.761
 -0.758  -0.750  -0.749  -0.746  -0.735  -0.730  -0.718  -0.718
 -0.713  -0.712  -0.712  -0.712  -0.710  -0.710  -0.709  -0.708
 -0.708  -0.707  -0.706  -0.703  -0.703  -0.702  -0.675  -0.670
 -0.661  -0.659  -0.657  -0.653  -0.648  -0.646  -0.633  -0.631
 -0.627  -0.626  -0.624  -0.623  -0.622  -0.621  -0.620  -0.618
 -0.617  -0.617  -0.614  -0.612  -0.610  -0.610  -0.609  -0.609
 -0.607  -0.604  -0.604  -0.600  -0.578  -0.570  -0.569  -0.565
 -0.563  -0.560  -0.559  -0.558  -0.556  -0.554  -0.554  -0.550
 -0.541  -0.538  -0.532  -0.531  -0.529  -0.528  -0.523  -0.523
 -0.522  -0.519  -0.518  -0.518  -0.516  -0.515  -0.513  -0.513
 -0.512  -0.506  -0.505  -0.495  -0.493  -0.490  -0.490  -0.488
 -0.488  -0.484  -0.483  -0.482  -0.481  -0.480  -0.477  -0.476
 -0.476  -0.473  -0.471  -0.470  -0.469  -0.468  -0.466  -0.466
 -0.465  -0.463  -0.463  -0.462  -0.461  -0.460  -0.460  -0.458
 -0.458  -0.455  -0.454  -0.452  -0.450  -0.448  -0.443  -0.443
 -0.442  -0.440  -0.439  -0.438  -0.438  -0.437  -0.435  -0.432
 -0.432  -0.430  -0.427  -0.427  -0.426  -0.425  -0.424  -0.424
 -0.423  -0.422  -0.421  -0.421  -0.420  -0.418  -0.418  -0.417
 -0.417  -0.416  -0.416  -0.415  -0.414  -0.414  -0.412  -0.412
 -0.411  -0.410  -0.410  -0.407  -0.403  -0.402  -0.398  -0.395
 -0.394  -0.392  -0.392  -0.390  -0.388  -0.388  -0.384  -0.383
 -0.382  -0.376  -0.375  -0.373  -0.369  -0.368  -0.367  -0.365
 -0.363  -0.363  -0.362  -0.361  -0.360  -0.359  -0.359  -0.358
 -0.358  -0.357  -0.356  -0.354  -0.354  -0.353  -0.353  -0.353
 -0.353  -0.349  -0.347  -0.346  -0.344  -0.344  -0.342  -0.341
 -0.340  -0.340  -0.339  -0.338  -0.337  -0.337  -0.335  -0.335
 -0.334  -0.332  -0.330  -0.329  -0.327  -0.326  -0.324  -0.322
 -0.309  -0.307  -0.304  -0.297  -0.287  -0.286  -0.272  -0.270
 -0.270  -0.269  -0.268  -0.266  -0.265  -0.265  -0.263  -0.262
 -0.261  -0.260  -0.259  -0.258  -0.257  -0.256  -0.254  -0.252
 -0.250  -0.248  -0.244  -0.241  -0.220  -0.217  -0.213  -0.212
 -0.209  -0.207  -0.204  -0.202  -0.199  -0.198

          Ground-State Mulliken Net Atomic Charges

     Atom                 Charge (a.u.)
  ----------------------------------------
      1 O                    -0.444067
      2 C                    -0.090391
      3 H                     0.141752
      4 H                     0.130279
      5 H                     0.128225
      6 O                    -0.472303
      7 C                     0.568492
      8 C                    -0.247892
      9 H                     0.117482
     10 H                     0.137660
     11 C                    -0.195677
     12 H                     0.110124
     13 H                     0.119867
     14 C                    -0.186104
     15 H                     0.110193
     16 H                     0.114349
     17 C                     0.016201
     18 C                     0.088196
     19 C                    -0.091004
     20 H                     0.098741
     21 C                    -0.091626
     22 H                     0.084758
     23 C                    -0.077892
     24 H                     0.086190
     25 C                    -0.088254
     26 H                     0.099331
     27 C                    -0.115581
     28 H                     0.090679
     29 C                     0.000483
     30 C                     0.027545
     31 C                    -0.012257
     32 C                    -0.030274
     33 C                    -0.034916
     34 C                     0.006661
     35 C                    -0.030430
     36 C                     0.002528
     37 C                    -0.012153
     38 C                    -0.019575
     39 C                    -0.106108
     40 C                     0.001397
     41 C                     0.001825
     42 C                    -0.009305
     43 C                    -0.004179
     44 C                     0.027094
     45 C                    -0.078355
     46 C                     0.017451
     47 C                     0.011105
     48 C                    -0.003067
     49 C                    -0.026059
     50 C                     0.023751
     51 C                    -0.006858
     52 C                     0.023903
     53 C                     0.037042
     54 C                    -0.003860
     55 C                     0.010263
     56 C                    -0.033995
     57 C                    -0.017274
     58 C                    -0.004615
     59 C                    -0.023217
     60 C                     0.044994
     61 C                    -0.026386
     62 C                    -0.010603
     63 C                     0.011712
     64 C                     0.041321
     65 C                     0.038900
     66 C                     0.026660
     67 C                     0.022985
     68 C                    -0.022261
     69 C                    -0.021352
     70 C                     0.019645
     71 C                     0.008985
     72 C                     0.017772
     73 C                     0.027264
     74 C                     0.009385
     75 C                     0.016403
     76 C                    -0.021331
     77 C                    -0.010204
     78 C                     0.018600
     79 C                    -0.021261
     80 C                    -0.005743
     81 C                    -0.011966
     82 C                    -0.036275
     83 C                    -0.003845
     84 C                    -0.004430
     85 C                     0.002081
     86 C                    -0.032703
     87 C                     0.011092
     88 C                     0.033267
     89 O                    -0.425368
     90 C                    -0.094850
     91 H                     0.128404
     92 H                     0.134392
     93 H                     0.119829
     94 O                    -0.491886
     95 C                     0.595641
     96 C                    -0.246695
     97 H                     0.134469
     98 H                     0.132729
     99 C                    -0.202437
    100 H                     0.128031
    101 H                     0.105900
    102 C                    -0.171197
    103 H                     0.099584
    104 H                     0.125842
    105 C                     0.006379
    106 C                     0.116745
    107 C                    -0.105818
    108 H                     0.087882
    109 C                    -0.089844
    110 H                     0.086148
    111 C                    -0.079406
    112 H                     0.090108
    113 C                    -0.095612
    114 H                     0.097279
    115 C                    -0.121021
    116 H                     0.089598
    117 C                    -0.008328
    118 C                     0.034572
    119 C                     0.011618
    120 C                     0.003130
    121 C                    -0.017344
    122 C                    -0.040952
    123 C                    -0.002222
    124 C                    -0.001205
    125 C                     0.018252
    126 C                    -0.019735
    127 C                    -0.083253
    128 C                     0.023670
    129 C                    -0.005713
    130 C                    -0.009960
    131 C                    -0.019469
    132 C                     0.035737
    133 C                    -0.076147
    134 C                     0.030075
    135 C                    -0.020533
    136 C                    -0.000544
    137 C                    -0.018127
    138 C                    -0.011910
    139 C                     0.020208
    140 C                     0.013152
    141 C                     0.001141
    142 C                    -0.031340
    143 C                     0.013306
    144 C                     0.047964
    145 C                    -0.016710
    146 C                    -0.011093
    147 C                    -0.011495
    148 C                     0.022884
    149 C                    -0.012262
    150 C                    -0.026657
    151 C                    -0.011541
    152 C                     0.017452
    153 C                     0.006191
    154 C                     0.032412
    155 C                    -0.002314
    156 C                     0.012483
    157 C                    -0.024248
    158 C                     0.050715
    159 C                    -0.003556
    160 C                    -0.018499
    161 C                     0.015479
    162 C                     0.008250
    163 C                     0.000225
    164 C                     0.008780
    165 C                    -0.003485
    166 C                    -0.035571
    167 C                    -0.023957
    168 C                    -0.013351
    169 C                    -0.024086
    170 C                    -0.006854
    171 C                     0.017594
    172 C                     0.013474
    173 C                    -0.004952
    174 C                    -0.013435
    175 C                     0.006137
    176 C                     0.012135
  ----------------------------------------
  Sum of atomic charges =     0.000000

                    Cartesian Multipole Moments
 -----------------------------------------------------------------
    Charge (ESU x 10^10)
                 0.0000
    Dipole Moment (Debye)
         X       2.2047      Y      -2.4963      Z      -2.8547
       Tot       4.3865
    Quadrupole Moments (Debye-Ang)
        XX    -789.1999     XY     -37.0263     YY    -784.2366
        XZ       2.6622     YZ     -13.6999     ZZ    -815.4888

 Total job time:  872.03s(wall), 8354.61s(cpu)
        *  Thank you very much for using Q-Chem.  Have a nice day.  *
