 Q-Chem 4.4, Q-Chem, Inc., Pleasanton, CA (2016)
 Q-Chem 4.4.2 for Intel X86 Linux

User input:
--------------------------------------------------------------
$comment
SP
$end

$rem
MEM_STATIC 5000
MEM_TOTAL 20000
JOBTYPE SP
EXCHANGE B3LYP
BASIS 6-31g(d,p)
$end

$molecule
0 1
O          -9.119000    -28.894000      1.243000
C          -8.618000    -28.381000     -0.025000
H          -7.596000    -28.699000     -0.265000
H          -8.553000    -27.287000      0.036000
H          -9.144000    -28.765000     -0.907000
O          -7.886000    -27.496000      2.518000
C          -8.689000    -28.363000      2.466000
C          -9.275000    -28.935000      3.734000
H          -8.861000    -28.368000      4.576000
H          -9.074000    -30.014000      3.748000
C         -10.817000    -28.781000      3.848000
H         -11.258000    -28.450000      2.900000
H         -11.304000    -29.727000      4.114000
C         -11.159000    -27.769000      4.983000
H         -10.914000    -28.159000      5.979000
H         -10.670000    -26.798000      4.836000
C         -12.657000    -27.689000      5.116000
C         -13.241000    -28.860000      6.001000
C         -13.885000    -29.982000      5.399000
H         -14.128000    -29.916000      4.343000
C         -14.503000    -30.993000      6.087000
H         -14.937000    -31.846000      5.572000
C         -14.566000    -30.869000      7.457000
H         -15.170000    -31.646000      7.918000
C         -13.977000    -29.814000      8.170000
H         -14.046000    -29.753000      9.252000
C         -13.267000    -28.811000      7.426000
H         -12.808000    -27.961000      7.921000
C         -16.998000    -27.015000      1.677000
C         -17.897000    -26.304000      3.802000
C         -18.045000    -21.882000      2.914000
C         -12.688000    -24.494000      0.504000
C         -15.039000    -21.146000      4.579000
C         -17.073000    -27.123000      3.056000
C         -13.018000    -22.012000      1.733000
C         -18.652000    -23.782000      1.523000
C         -14.973000    -24.879000      6.141000
C         -12.096000    -24.247000      1.785000
C         -13.480000    -26.424000      5.059000
C         -13.841000    -24.184000      5.840000
C         -12.282000    -23.142000      3.808000
C         -13.798000    -21.184000      2.489000
C         -15.966000    -26.709000      5.048000
C         -16.131000    -20.758000      2.465000
C         -13.356000    -27.166000      3.785000
C         -12.706000    -26.448000      2.614000
C         -16.232000    -20.880000      3.847000
C         -15.849000    -23.419000     -0.616000
C         -17.153000    -22.070000      0.689000
C         -17.813000    -23.290000      0.512000
C         -18.576000    -25.124000      1.780000
C         -13.373000    -26.679000      1.436000
C         -14.857000    -26.219000      5.697000
C         -18.634000    -25.294000      3.190000
C         -12.233000    -22.980000      2.378000
C         -17.242000    -26.064000      5.074000
C         -13.882000    -22.771000      5.500000
C         -14.539000    -25.478000     -0.284000
C         -18.772000    -23.125000      2.781000
C         -12.895000    -25.050000      5.228000
C         -16.964000    -25.489000      0.040000
C         -13.022000    -22.261000      4.535000
C         -16.173000    -24.192000      6.108000
C         -14.807000    -21.585000      0.526000
C         -13.568000    -22.271000      0.518000
C         -16.256000    -22.820000      5.869000
C         -13.367000    -25.703000      0.370000
C         -12.142000    -25.176000      2.825000
C         -14.605000    -24.103000     -0.658000
C         -14.613000    -27.589000      3.161000
C         -18.118000    -23.780000      4.998000
C         -12.235000    -24.489000      4.094000
C         -15.080000    -22.088000      5.598000
C         -15.758000    -26.168000      0.034000
C         -17.363000    -21.603000      4.093000
C         -17.737000    -25.944000      1.085000
C         -17.274000    -21.356000      1.871000
C         -17.337000    -24.786000      5.597000
C         -17.396000    -22.583000      5.101000
C         -15.894000    -27.386000      3.825000
C         -14.581000    -27.382000      1.735000
C         -15.926000    -22.166000      0.020000
C         -18.751000    -24.056000      3.783000
C         -13.845000    -21.288000      3.877000
C         -13.421000    -23.522000     -0.087000
C         -14.911000    -20.883000      1.728000
C         -15.778000    -27.113000      1.041000
C         -16.994000    -24.079000     -0.299000
O          -8.207000    -28.362000     -4.106000
C          -7.765000    -29.647000     -3.532000
H          -8.226000    -30.504000     -4.039000
H          -8.042000    -29.662000     -2.471000
H          -6.707000    -29.919000     -3.632000
O         -10.188000    -28.224000     -3.030000
C          -9.361000    -27.766000     -3.761000
C          -9.424000    -26.420000     -4.490000
H         -10.138000    -25.810000     -3.924000
H          -9.959000    -26.572000     -5.436000
C          -8.082000    -25.749000     -4.635000
H          -7.675000    -25.672000     -3.619000
H          -7.441000    -26.288000     -5.344000
C          -8.279000    -24.332000     -5.303000
H          -7.277000    -23.960000     -5.551000
H          -8.900000    -24.357000     -6.207000
C          -8.817000    -23.181000     -4.347000
C          -8.135000    -23.152000     -3.019000
C          -8.653000    -23.792000     -1.909000
H          -9.589000    -24.328000     -2.033000
C          -8.157000    -23.544000     -0.622000
H          -8.560000    -24.077000      0.235000
C          -7.072000    -22.694000     -0.436000
H          -6.612000    -22.418000      0.508000
C          -6.453000    -22.072000     -1.547000
H          -5.629000    -21.388000     -1.365000
C          -7.007000    -22.269000     -2.855000
H          -6.510000    -21.790000     -3.694000
C         -13.555000    -21.120000     -2.486000
C         -12.039000    -19.186000     -2.465000
C         -13.928000    -16.873000     -5.961000
C         -13.570000    -23.166000     -7.084000
C         -11.448000    -17.971000     -8.313000
C         -12.252000    -20.584000     -2.276000
C         -13.116000    -21.080000     -8.964000
C         -14.860000    -18.153000     -4.160000
C          -9.234000    -19.480000     -5.266000
C         -12.323000    -22.868000     -7.632000
C          -9.234000    -21.887000     -4.926000
C          -9.197000    -20.040000     -6.513000
C         -10.789000    -21.411000     -8.366000
C         -12.922000    -19.748000     -9.167000
C         -10.264000    -20.277000     -3.233000
C         -13.923000    -17.905000     -7.979000
C         -10.315000    -22.913000     -4.498000
C         -11.264000    -23.414000     -5.501000
C         -12.639000    -17.366000     -7.785000
C         -16.053000    -20.801000     -6.173000
C         -15.683000    -18.526000     -6.369000
C         -15.711000    -18.840000     -5.007000
C         -14.352000    -18.891000     -3.055000
C         -12.565000    -23.532000     -4.924000
C          -9.386000    -20.492000     -4.313000
C         -13.137000    -18.333000     -2.820000
C         -12.091000    -21.923000     -8.520000
C         -10.811000    -19.002000     -3.031000
C          -9.810000    -19.361000     -7.641000
C         -14.964000    -22.849000     -5.262000
C         -14.001000    -17.142000     -4.559000
C          -9.285000    -21.500000     -6.414000
C         -15.406000    -20.903000     -3.831000
C         -10.582000    -20.058000     -8.588000
C          -9.900000    -18.279000     -5.137000
C         -14.984000    -20.012000     -8.178000
C         -14.377000    -21.243000     -8.336000
C         -10.436000    -17.562000     -6.171000
C         -13.749000    -23.471000     -5.730000
C         -11.150000    -23.019000     -6.852000
C         -15.506000    -22.129000     -6.357000
C         -11.277000    -22.504000     -3.384000
C         -11.663000    -17.050000     -4.296000
C         -10.195000    -22.068000     -7.331000
C         -10.372000    -18.094000     -7.466000
C         -14.903000    -22.244000     -3.985000
C         -12.657000    -16.764000     -6.507000
C         -14.592000    -20.227000     -2.925000
C         -14.698000    -17.648000     -6.786000
C         -10.597000    -17.901000     -3.962000
C         -11.545000    -16.888000     -5.652000
C         -11.088000    -21.258000     -2.737000
C         -12.579000    -22.964000     -3.647000
C         -15.837000    -19.762000     -7.063000
C         -12.900000    -17.263000     -3.732000
C         -11.602000    -19.219000     -8.930000
C         -14.622000    -22.299000     -7.459000
C         -14.057000    -19.055000     -8.671000
C         -13.734000    -22.310000     -3.214000
C         -15.936000    -20.212000     -4.910000
$end

--------------------------------------------------------------

             Standard Nuclear Orientation (Angstroms)
    I     Atom           X                Y                Z
 ----------------------------------------------------------------
    1      O       3.8943605236    -6.1046150526     0.3381752297
    2      C       2.4679566804    -6.3981502814     0.3728616179
    3      H       2.2184346394    -7.4391934158     0.1337467012
    4      H       1.9666374416    -5.8138669630    -0.4094899813
    5      H       2.0154364590    -6.3226612757     1.3686441540
    6      O       4.0384127548    -6.1109487522    -1.9156053361
    7      C       4.5821097833    -5.9688520595    -0.8747383556
    8      C       6.0545471326    -5.6406677875    -0.8234808079
    9      H       6.4051488686    -5.5266791055    -1.8559216067
   10      H       6.5590417836    -6.4198391303    -0.2376351238
   11      C       6.3817963974    -4.2929333892    -0.1227698044
   12      H       5.5035444154    -3.8852198587     0.3921953723
   13      H       7.1708505648    -4.4046782059     0.6307204853
   14      C       6.9111834472    -3.2717111129    -1.1745242499
   15      H       7.8981879298    -3.5483425045    -1.5662361651
   16      H       6.2101376519    -3.1299502397    -2.0063954224
   17      C       7.2822939975    -1.9991464480    -0.4597171898
   18      C       8.7257653230    -2.0719412456     0.1779452993
   19      C       8.8980704419    -2.2842015602     1.5784025478
   20      H       8.0198076426    -2.2038289402     2.2114394325
   21      C      10.1025417072    -2.2663828541     2.2313347531
   22      H      10.1739396330    -2.4808915560     3.2943861878
   23      C      11.2137247579    -1.9454946826     1.4839740574
   24      H      12.1077201067    -1.8376392673     2.0924192281
   25      C      11.1794083036    -1.7112358320     0.1011291016
   26      H      12.0790590004    -1.4634891712    -0.4542592453
   27      C       9.9131739057    -1.8159269514    -0.5691956102
   28      H       9.8213512809    -1.6261934832    -1.6339847051
   29      C       4.9016505763     1.3869364356     3.2809054330
   30      C       6.5285734404     2.8281170661     2.2294933424
   31      C       3.6233875959     5.3560936014    -0.1229015747
   32      C       1.8067292571    -0.8104075866    -0.1688208280
   33      C       4.0716946909     3.5975125210    -3.1322819647
   34      C       6.1373626737     1.5856655819     2.6872284681
   35      C       1.6876735977     1.0583814062    -2.2359730842
   36      C       3.5043988629     4.5529631373     2.1692923829
   37      C       7.2236989490     1.6288999831    -1.5294960052
   38      C       2.6515461070    -0.9597675121    -1.3161699915
   39      C       6.7733158835    -0.6181675485    -0.7983047835
   40      C       6.4006029339     1.0716712597    -2.4606560879
   41      C       3.8557847594     0.1180495090    -2.9703373763
   42      C       2.0741547772     2.2719873066    -2.7292407767
   43      C       7.3992349682     1.2203199640     0.7795833512
   44      C       2.3076597055     4.3932947093    -1.6946049220
   45      C       6.0363366203    -1.3289297174     0.2697283175
   46      C       4.5612189902    -1.6108246721     0.0377192409
   47      C       3.5579947280     4.6053805307    -2.2661737595
   48      C       0.9566958455     2.1915208576     1.4645238432
   49      C       1.6550270363     4.2061662222     0.6418576881
   50      C       2.2387016298     4.0122810370     1.8976687822
   51      C       4.3693120846     3.7588989138     2.8722690026
   52      C       3.8106252028    -1.3768774707     1.1636906763
   53      C       7.4861915329     0.7019450332    -0.4912069489
   54      C       5.6584924477     3.9128485535     2.2937558222
   55      C       2.5554115680    -0.0361417817    -2.3713385376
   56      C       7.3566934142     2.6226570563     1.0562020344
   57      C       5.4234103597     1.8662179734    -3.1870445464
   58      C       1.9935551774     0.0023189348     1.9096335681
   59      C       4.2689951914     5.2093990264     1.1627649973
   60      C       6.1217692125    -0.2766206504    -2.1088369853
   61      C       2.7557000578     1.9975314477     3.1029416632
   62      C       4.1835944043     1.3256203322    -3.5056910387
   63      C       7.0953558108     2.9855179510    -1.2924860309
   64      C       0.8109216550     2.5700197130    -0.8995769376
   65      C       0.8963016278     1.1765887939    -1.1379915640
   66      C       6.2322652400     3.8050540002    -2.0203797942
   67      C       2.4251580171    -0.9764223196     1.0683788233
   68      C       3.9997580112    -1.3047878147    -1.2159569577
   69      C       1.0113090336     0.7902703298     1.2394230698
   70      C       5.9669141959    -0.6491917035     1.5664514026
   71      C       6.3391633636     4.6283657137     0.0910215446
   72      C       4.7534869790    -0.6512995733    -2.2627734466
   73      C       5.4075502469     3.2379524425    -3.0156094177
   74      C       2.8458826266     0.6350050136     2.8773273446
   75      C       4.3481497285     5.1377478109    -1.2891138053
   76      C       4.0187882443     2.5111902900     3.2961819978
   77      C       2.3273427198     4.8850818442    -0.3624461503
   78      C       7.1875108124     3.5085792203     0.0062700525
   79      C       5.6918590413     4.7483355304    -1.1464380941
   80      C       6.6836915038     0.5961759049     1.8080208768
   81      C       4.6510959337    -0.7632765373     2.1434747572
   82      C       0.8919405461     3.0649988027     0.3630352910
   83      C       5.5726945430     4.8037127102     1.2463868452
   84      C       3.3099417533     2.4517517985    -3.3457505310
   85      C       0.9723893845     0.2523426358    -0.0927094525
   86      C       1.5027113188     3.2312518560    -1.9157575880
   87      C       4.1688821230     0.2550553410     2.9903962567
   88      C       1.7786467279     2.7816361215     2.3718687182
   89      O      -1.0782133919    -7.3111455752     2.2208227680
   90      C      -0.0458700676    -8.3214487539     2.5201883436
   91      H       0.0396464761    -8.5153300176     3.5968108291
   92      H       0.9148957152    -7.9527243372     2.1411811998
   93      H      -0.2067348155    -9.3447778736     2.1592616948
   94      O       0.1587076724    -5.4790705872     2.6841892742
   95      C      -0.8507671419    -5.9889308136     2.2981100742
   96      C      -2.1198425847    -5.2715928841     1.8269415105
   97      H      -1.7997360375    -4.2638763061     1.5366122204
   98      H      -2.7392780054    -5.0650066550     2.7089091344
   99      C      -2.8407956556    -5.9891934141     0.7145089737
  100      H      -2.0996115796    -6.1254904107    -0.0829264746
  101      H      -3.3024936172    -6.9180961496     1.0723604795
  102      C      -4.0666184551    -5.1142525378     0.2404215056
  103      H      -4.6595399558    -5.7443683831    -0.4343303863
  104      H      -4.6960789871    -4.7593723724     1.0658435230
  105      C      -3.7183990546    -3.8812871426    -0.7012369163
  106      C      -2.7440838264    -4.2214623231    -1.7803753146
  107      C      -1.3853719538    -4.0100518810    -1.6416970105
  108      H      -1.0395648018    -3.5812665974    -0.7061070394
  109      C      -0.5168714998    -4.0805936391    -2.7392487505
  110      H       0.5519513909    -3.9372064197    -2.6050670314
  111      C      -0.9948296616    -4.4402696410    -3.9948403120
  112      H      -0.4233777154    -4.5155389062    -4.9149974784
  113      C      -2.3655950126    -4.7435577641    -4.1775550260
  114      H      -2.7130754513    -4.9887191481    -5.1771095470
  115      C      -3.2655114122    -4.6000521447    -3.0702404315
  116      H      -4.3111388883    -4.8475753600    -3.2307597113
  117      C      -2.2176804261     1.3903915025    -0.3592809826
  118      C      -3.4561655941     1.2814557819    -2.4790310852
  119      C      -7.1819101191     3.6235978460    -1.1473012756
  120      C      -5.0974568088    -0.4393800428     3.3402823806
  121      C      -9.1244919928     0.6531286027    -0.6082315787
  122      C      -2.5636871744     0.6783047694    -1.5435177894
  123      C      -7.8091194186     0.1187862744     2.6866400830
  124      C      -4.8399064462     3.9017505264    -0.7133947392
  125      C      -6.2404092185    -1.5547665568    -2.4166429024
  126      C      -5.9565722333    -1.3529906956     2.7308947679
  127      C      -4.7643914443    -2.8866944574    -1.0178617909
  128      C      -7.0270635532    -2.0870443307    -1.4328576977
  129      C      -7.6023695220    -1.8598110582     1.2993762019
  130      C      -8.6770910743     0.6973422367     1.8120160476
  131      C      -3.9209194405    -0.8867589786    -2.3625037726
  132      C      -8.3819439015     2.7342796680     0.5575169256
  133      C      -3.6805293164    -2.5420777700     0.0361321495
  134      C      -4.0935863779    -2.2103784911     1.4061578618
  135      C      -8.7391976338     2.0369044118    -0.6098949652
  136      C      -4.9996783315     3.0513362084     2.7127679003
  137      C      -6.3622296602     4.0302168335     1.1202266612
  138      C      -5.0485719045     4.0703796726     0.6436616110
  139      C      -3.6411569361     3.2292720337    -1.0801443661
  140      C      -3.2880303206    -1.1457377000     1.9131819483
  141      C      -4.9037944549    -1.8746195395    -2.1585498118
  142      C      -3.9593521321     2.6043661651    -2.2424947748
  143      C      -7.2209984883    -1.1266250746     2.4386998821
  144      C      -4.2704664333     0.3151234788    -2.9941155667
  145      C      -8.1952730107    -1.3671375018    -0.9572372386
  146      C      -3.4340955618     1.1306486769     2.9774488360
  147      C      -5.8476492282     3.7316622054    -1.6486633895
  148      C      -6.2050418493    -2.8395911526    -0.4804404576
  149      C      -3.0952687398     2.8114468825     1.2195652287
  150      C      -8.4993792068    -1.2824406285     0.4135099523
  151      C      -6.5915573126    -0.3100412772    -2.8961760029
  152      C      -7.2992722669     2.3513710868     2.6277763659
  153      C      -6.9461300038     1.1327704733     3.1746557737
  154      C      -7.7142608989     0.3832637528    -2.5364458367
  155      C      -3.7649757768    -0.2735129073     2.9461194792
  156      C      -5.4550237003    -2.2717737936     1.7762133091
  157      C      -4.6087298666     1.8216526612     3.3697965691
  158      C      -2.7479234464    -1.3702477452    -0.2651678409
  159      C      -6.1355089168     1.9382969112    -3.1469473150
  160      C      -6.5199752718    -2.5652848927     0.8675899631
  161      C      -8.5607455292    -0.1616774296    -1.5614341042
  162      C      -2.6637516249     1.6141222715     1.8942597933
  163      C      -7.9508104958     2.5824731296    -1.6475907274
  164      C      -2.8238626315     2.6748940323    -0.1398832049
  165      C      -7.3446241367     3.6796379198     0.2108348216
  166      C      -5.6447226724     0.6392756225    -3.3561972939
  167      C      -7.3869590762     1.7392401288    -2.6243070030
  168      C      -2.8528267211    -0.7135770711    -1.5160175236
  169      C      -2.4845020824    -0.6230496265     0.8959855324
  170      C      -6.3090161771     3.3442505798     2.3690927965
  171      C      -5.3067956175     2.8949502851    -2.6068708483
  172      C      -9.0001657015    -0.0285420848     0.6090510701
  173      C      -5.6336373583     0.8515855434     3.5522641566
  174      C      -8.3734680919     2.0818372296     1.7380113242
  175      C      -2.2109854946     0.7460349353     0.8908729248
  176      C      -4.2444291316     3.4784605723     1.6159805810
 ----------------------------------------------------------------

    9   -5804.2152739541      9.02E-06 Convergence criterion met
 Total energy in the final basis set = -5804.2152739541

                    Orbital Energies (a.u.)
 --------------------------------------------------------------

 Alpha MOs
 -- Occupied --
-19.200 -19.180 -19.143 -19.133 -10.322 -10.312 -10.259 -10.246
-10.242 -10.242 -10.238 -10.238 -10.237 -10.237 -10.234 -10.229
-10.229 -10.228 -10.227 -10.224 -10.224 -10.224 -10.223 -10.223
-10.222 -10.221 -10.220 -10.220 -10.219 -10.219 -10.218 -10.218
-10.218 -10.218 -10.218 -10.217 -10.216 -10.216 -10.216 -10.215
-10.215 -10.215 -10.215 -10.214 -10.214 -10.214 -10.214 -10.214
-10.214 -10.214 -10.213 -10.213 -10.213 -10.213 -10.213 -10.213
-10.213 -10.212 -10.212 -10.212 -10.212 -10.212 -10.212 -10.212
-10.212 -10.212 -10.212 -10.211 -10.211 -10.211 -10.211 -10.211
-10.211 -10.211 -10.211 -10.211 -10.211 -10.211 -10.210 -10.210
-10.210 -10.210 -10.210 -10.210 -10.210 -10.210 -10.210 -10.210
-10.210 -10.210 -10.210 -10.210 -10.209 -10.209 -10.209 -10.209
-10.209 -10.209 -10.209 -10.209 -10.209 -10.208 -10.208 -10.208
-10.208 -10.208 -10.208 -10.208 -10.208 -10.208 -10.208 -10.207
-10.207 -10.207 -10.207 -10.207 -10.207 -10.207 -10.206 -10.206
-10.206 -10.206 -10.206 -10.205 -10.205 -10.205 -10.205 -10.204
-10.204 -10.204 -10.204 -10.204 -10.204 -10.204 -10.203 -10.203
-10.203 -10.202 -10.201 -10.201 -10.200 -10.200 -10.198 -10.198
-10.197 -10.197 -10.195 -10.194  -1.105  -1.087  -1.025  -1.008
 -0.984  -0.983  -0.966  -0.965  -0.963  -0.962  -0.961  -0.960
 -0.932  -0.932  -0.928  -0.927  -0.926  -0.924  -0.924  -0.923
 -0.922  -0.920  -0.898  -0.895  -0.890  -0.889  -0.886  -0.884
 -0.874  -0.871  -0.854  -0.851  -0.843  -0.843  -0.839  -0.838
 -0.835  -0.833  -0.822  -0.820  -0.809  -0.805  -0.800  -0.798
 -0.795  -0.794  -0.794  -0.793  -0.790  -0.789  -0.784  -0.782
 -0.771  -0.770  -0.769  -0.767  -0.766  -0.763  -0.762  -0.761
 -0.751  -0.748  -0.745  -0.739  -0.735  -0.729  -0.716  -0.715
 -0.714  -0.713  -0.713  -0.712  -0.710  -0.709  -0.708  -0.708
 -0.706  -0.705  -0.704  -0.703  -0.702  -0.701  -0.674  -0.671
 -0.659  -0.658  -0.655  -0.654  -0.648  -0.646  -0.633  -0.631
 -0.627  -0.624  -0.623  -0.622  -0.621  -0.621  -0.617  -0.616
 -0.614  -0.614  -0.612  -0.610  -0.610  -0.609  -0.608  -0.608
 -0.605  -0.605  -0.602  -0.601  -0.578  -0.564  -0.563  -0.562
 -0.561  -0.559  -0.558  -0.557  -0.556  -0.554  -0.553  -0.552
 -0.537  -0.535  -0.534  -0.529  -0.529  -0.526  -0.524  -0.523
 -0.521  -0.521  -0.518  -0.516  -0.514  -0.514  -0.513  -0.513
 -0.506  -0.504  -0.502  -0.500  -0.497  -0.492  -0.488  -0.486
 -0.484  -0.482  -0.481  -0.479  -0.479  -0.478  -0.474  -0.473
 -0.473  -0.470  -0.469  -0.468  -0.466  -0.466  -0.465  -0.464
 -0.464  -0.464  -0.463  -0.462  -0.462  -0.461  -0.459  -0.458
 -0.456  -0.454  -0.453  -0.450  -0.446  -0.443  -0.442  -0.442
 -0.441  -0.440  -0.439  -0.438  -0.437  -0.437  -0.435  -0.434
 -0.433  -0.430  -0.428  -0.427  -0.427  -0.426  -0.424  -0.424
 -0.423  -0.422  -0.420  -0.420  -0.420  -0.419  -0.418  -0.417
 -0.416  -0.416  -0.415  -0.414  -0.414  -0.413  -0.413  -0.411
 -0.410  -0.408  -0.407  -0.407  -0.405  -0.401  -0.399  -0.397
 -0.395  -0.393  -0.392  -0.390  -0.389  -0.385  -0.383  -0.383
 -0.381  -0.377  -0.372  -0.371  -0.370  -0.369  -0.368  -0.366
 -0.365  -0.364  -0.363  -0.360  -0.360  -0.359  -0.358  -0.357
 -0.356  -0.355  -0.355  -0.354  -0.353  -0.352  -0.351  -0.350
 -0.349  -0.349  -0.348  -0.347  -0.345  -0.345  -0.345  -0.341
 -0.341  -0.340  -0.340  -0.339  -0.338  -0.337  -0.334  -0.333
 -0.332  -0.331  -0.330  -0.329  -0.327  -0.325  -0.324  -0.321
 -0.315  -0.310  -0.301  -0.291  -0.288  -0.283  -0.276  -0.270
 -0.269  -0.268  -0.267  -0.266  -0.266  -0.264  -0.263  -0.262
 -0.261  -0.259  -0.259  -0.257  -0.255  -0.255  -0.253  -0.251
 -0.250  -0.249  -0.245  -0.241  -0.222  -0.221  -0.210  -0.209
 -0.207  -0.206  -0.203  -0.201  -0.200  -0.197

          Ground-State Mulliken Net Atomic Charges

     Atom                 Charge (a.u.)
  ----------------------------------------
      1 O                    -0.498168
      2 C                    -0.100460
      3 H                     0.106050
      4 H                     0.124546
      5 H                     0.155750
      6 O                    -0.438905
      7 C                     0.587997
      8 C                    -0.253680
      9 H                     0.140793
     10 H                     0.131246
     11 C                    -0.189473
     12 H                     0.128691
     13 H                     0.112569
     14 C                    -0.198412
     15 H                     0.113370
     16 H                     0.118392
     17 C                     0.012630
     18 C                     0.079099
     19 C                    -0.120544
     20 H                     0.090972
     21 C                    -0.073895
     22 H                     0.098083
     23 C                    -0.084975
     24 H                     0.085097
     25 C                    -0.084156
     26 H                     0.098905
     27 C                    -0.123503
     28 H                     0.091840
     29 C                    -0.016671
     30 C                     0.000340
     31 C                    -0.015218
     32 C                    -0.018161
     33 C                    -0.012634
     34 C                     0.000069
     35 C                     0.008645
     36 C                    -0.012133
     37 C                     0.015110
     38 C                    -0.013001
     39 C                    -0.084593
     40 C                     0.012564
     41 C                     0.010069
     42 C                     0.018857
     43 C                     0.034501
     44 C                    -0.006452
     45 C                    -0.054069
     46 C                     0.006987
     47 C                     0.000445
     48 C                     0.014195
     49 C                     0.005991
     50 C                     0.018777
     51 C                     0.000851
     52 C                     0.016315
     53 C                     0.020417
     54 C                    -0.002619
     55 C                    -0.026322
     56 C                    -0.031482
     57 C                     0.018887
     58 C                     0.006499
     59 C                    -0.008535
     60 C                    -0.015769
     61 C                    -0.024547
     62 C                    -0.033530
     63 C                     0.010360
     64 C                     0.004394
     65 C                     0.027360
     66 C                    -0.009446
     67 C                     0.001981
     68 C                    -0.001570
     69 C                    -0.021435
     70 C                    -0.003021
     71 C                    -0.014795
     72 C                     0.020103
     73 C                    -0.012233
     74 C                     0.004418
     75 C                     0.025346
     76 C                     0.023381
     77 C                    -0.012682
     78 C                    -0.004588
     79 C                     0.005603
     80 C                    -0.001132
     81 C                    -0.004967
     82 C                     0.001383
     83 C                     0.023865
     84 C                     0.009122
     85 C                     0.008144
     86 C                    -0.029785
     87 C                     0.007491
     88 C                    -0.011651
     89 O                    -0.457741
     90 C                    -0.094630
     91 H                     0.130501
     92 H                     0.124864
     93 H                     0.133191
     94 O                    -0.463350
     95 C                     0.589481
     96 C                    -0.260246
     97 H                     0.132348
     98 H                     0.137122
     99 C                    -0.172095
    100 H                     0.118808
    101 H                     0.122269
    102 C                    -0.189165
    103 H                     0.105551
    104 H                     0.107877
    105 C                     0.008551
    106 C                     0.084845
    107 C                    -0.122454
    108 H                     0.100680
    109 C                    -0.096353
    110 H                     0.106717
    111 C                    -0.075076
    112 H                     0.095228
    113 C                    -0.092657
    114 H                     0.094280
    115 C                    -0.115681
    116 H                     0.093366
    117 C                    -0.012904
    118 C                     0.003506
    119 C                    -0.024910
    120 C                    -0.011685
    121 C                    -0.026796
    122 C                    -0.025951
    123 C                    -0.012173
    124 C                     0.001387
    125 C                     0.034871
    126 C                     0.029728
    127 C                    -0.078010
    128 C                    -0.022654
    129 C                    -0.011575
    130 C                     0.002637
    131 C                     0.026699
    132 C                     0.004747
    133 C                    -0.081664
    134 C                     0.027668
    135 C                     0.007367
    136 C                     0.008892
    137 C                    -0.035399
    138 C                    -0.004793
    139 C                     0.009132
    140 C                    -0.008993
    141 C                     0.024453
    142 C                    -0.005167
    143 C                     0.013990
    144 C                    -0.006322
    145 C                     0.003489
    146 C                    -0.012775
    147 C                     0.005237
    148 C                     0.010528
    149 C                    -0.015050
    150 C                    -0.003476
    151 C                     0.012008
    152 C                     0.008222
    153 C                     0.015022
    154 C                     0.016766
    155 C                    -0.009052
    156 C                    -0.044956
    157 C                    -0.010954
    158 C                     0.010229
    159 C                     0.001732
    160 C                     0.020616
    161 C                    -0.008235
    162 C                    -0.007608
    163 C                    -0.013545
    164 C                     0.012318
    165 C                     0.047861
    166 C                    -0.047849
    167 C                     0.015596
    168 C                    -0.001135
    169 C                     0.025485
    170 C                    -0.014600
    171 C                     0.006449
    172 C                     0.009165
    173 C                    -0.009788
    174 C                    -0.025420
    175 C                     0.017617
    176 C                     0.024508
  ----------------------------------------
  Sum of atomic charges =     0.000000

                    Cartesian Multipole Moments
 -----------------------------------------------------------------
    Charge (ESU x 10^10)
                 0.0000
    Dipole Moment (Debye)
         X       2.0936      Y      -4.9145      Z      -0.0114
       Tot       5.3419
    Quadrupole Moments (Debye-Ang)
        XX    -778.9733     XY       1.3958     YY    -777.7725
        XZ       5.7368     YZ      -9.6688     ZZ    -807.4732

 Total job time:  869.80s(wall), 8385.87s(cpu)
        *  Thank you very much for using Q-Chem.  Have a nice day.  *
