 Q-Chem 4.4, Q-Chem, Inc., Pleasanton, CA (2016)
 Q-Chem 4.4.2 for Intel X86 Linux

User input:
--------------------------------------------------------------
$comment
SP
$end

$rem
MEM_STATIC 5000
MEM_TOTAL 20000
JOBTYPE SP
EXCHANGE B3LYP
BASIS 6-31g(d,p)
$end

$molecule
0 1
O         -10.516000      7.048000     -1.959000
C         -11.117000      8.236000     -2.478000
H         -10.711000      8.445000     -3.475000
H         -10.888000      9.011000     -1.736000
H         -12.213000      8.250000     -2.458000
O         -12.518000      6.320000     -1.116000
C         -11.302000      6.188000     -1.229000
C         -10.486000      5.152000     -0.498000
H          -9.579000      5.568000     -0.041000
H         -10.171000      4.548000     -1.358000
C         -11.232000      4.224000      0.508000
H         -11.598000      4.784000      1.378000
H         -12.143000      3.761000      0.110000
C         -10.307000      2.989000      0.870000
H         -10.221000      2.398000     -0.050000
H          -9.325000      3.274000      1.269000
C         -11.026000      2.083000      1.852000
C         -12.236000      1.366000      1.209000
C         -12.008000      0.413000      0.227000
H         -11.040000      0.062000     -0.118000
C         -13.101000     -0.224000     -0.403000
H         -12.862000     -1.046000     -1.072000
C         -14.397000      0.078000      0.013000
H         -15.236000     -0.435000     -0.447000
C         -14.621000      1.070000      0.974000
H         -15.620000      1.435000      1.193000
C         -13.530000      1.806000      1.503000
H         -13.545000      2.637000      2.203000
C         -12.963000      1.397000      7.005000
C         -12.373000     -0.897000      6.268000
C          -8.803000     -1.380000      8.966000
C          -8.890000      4.571000      6.381000
C          -6.571000     -0.655000      6.462000
C         -12.803000      0.406000      5.984000
C          -6.610000      2.919000      6.820000
C         -10.964000     -0.322000      9.382000
C          -9.391000     -0.863000      3.724000
C          -8.209000      4.080000      5.252000
C         -10.269000      1.201000      2.813000
C          -8.316000     -0.061000      3.530000
C          -7.076000      2.212000      4.551000
C          -6.130000      1.657000      7.087000
C         -11.670000     -0.384000      4.216000
C          -7.051000      0.019000      8.734000
C         -11.069000      2.440000      3.307000
C         -10.259000      3.531000      3.979000
C          -6.991000     -0.996000      7.787000
C          -9.629000      2.972000      9.477000
C          -8.931000      0.848000      9.896000
C         -10.334000      0.781000      9.884000
C         -12.091000     -0.175000      8.604000
C         -10.999000      3.946000      5.179000
C         -10.563000     -0.130000      3.433000
C         -11.944000     -1.188000      7.602000
C          -7.114000      3.213000      5.538000
C         -11.653000     -1.434000      5.179000
C          -7.122000     -0.221000      4.274000
C         -10.712000      4.080000      7.613000
C         -10.213000     -1.419000      8.981000
C          -8.743000      1.219000      3.110000
C         -11.907000      2.281000      8.798000
C          -6.605000      0.920000      4.838000
C          -9.424000     -1.924000      4.688000
C          -7.383000      2.404000      8.851000
C          -7.383000      3.438000      7.870000
C          -8.307000     -1.988000      5.524000
C         -10.304000      4.501000      6.330000
C          -8.846000      3.472000      4.141000
C          -9.623000      4.006000      8.496000
C         -12.077000      2.111000      4.310000
C         -10.110000     -2.503000      6.786000
C          -8.174000      2.377000      3.656000
C          -7.138000     -1.208000      5.314000
C         -11.881000      3.311000      7.845000
C          -8.057000     -1.834000      7.890000
C         -12.537000      1.118000      8.289000
C          -8.131000     -0.243000      9.515000
C         -10.527000     -2.178000      5.440000
C          -8.692000     -2.368000      6.810000
C         -12.393000      0.765000      4.675000
C         -12.064000      3.054000      5.368000
C          -8.529000      2.156000      9.654000
C         -10.857000     -2.022000      7.878000
C          -6.138000      0.607000      6.126000
C          -8.500000      4.227000      7.666000
C          -6.633000      1.319000      8.362000
C         -12.552000      2.760000      6.694000
C         -10.750000      2.109000      9.560000
O           1.587000     -7.289000      0.526000
C           1.741000     -7.065000     -0.958000
H           1.716000     -5.980000     -1.116000
H           0.808000     -7.386000     -1.436000
H           2.555000     -7.516000     -1.539000
O           0.711000     -9.333000      0.147000
C           1.080000     -8.473000      0.929000
C           0.954000     -8.582000      2.423000
H           1.925000     -8.291000      2.843000
H           0.766000     -9.654000      2.560000
C          -0.217000     -7.842000      3.081000
H          -0.261000     -6.795000      2.755000
H          -1.151000     -8.333000      2.780000
C          -0.018000     -8.014000      4.614000
H          -0.334000     -9.020000      4.916000
H           1.059000     -8.017000      4.822000
C          -0.823000     -7.020000      5.484000
C          -0.188000     -5.618000      5.504000
C           0.772000     -5.368000      6.477000
H           0.886000     -6.167000      7.203000
C           1.411000     -4.152000      6.618000
H           2.146000     -4.038000      7.410000
C           1.172000     -3.170000      5.663000
H           1.687000     -2.214000      5.685000
C           0.284000     -3.457000      4.595000
H           0.020000     -2.642000      3.927000
C          -0.466000     -4.634000      4.552000
H          -1.295000     -4.825000      3.877000
C          -3.860000     -5.665000      9.851000
C          -4.872000     -4.454000      7.996000
C          -8.692000     -6.887000      7.810000
C          -3.581000    -10.602000      8.786000
C          -7.551000     -8.804000      5.134000
C          -3.733000     -4.993000      8.649000
C          -5.758000    -11.171000      7.188000
C          -7.455000     -6.054000      9.708000
C          -4.406000     -6.341000      4.600000
C          -3.410000    -10.665000      7.370000
C          -2.294000     -7.141000      5.441000
C          -4.302000     -7.761000      4.328000
C          -4.362000    -10.285000      5.365000
C          -6.883000    -10.725000      6.536000
C          -3.450000     -5.172000      6.455000
C          -8.561000     -9.114000      7.313000
C          -1.539000     -7.461000      6.745000
C          -1.771000     -8.812000      7.363000
C          -8.509000     -8.363000      6.089000
C          -6.255000     -9.217000     10.659000
C          -8.113000     -8.414000      9.644000
C          -7.473000     -7.377000     10.288000
C          -6.272000     -5.308000      9.779000
C          -2.094000     -8.662000      8.728000
C          -3.276000     -6.016000      5.356000
C          -6.179000     -4.580000      8.541000
C          -4.483000    -10.987000      6.569000
C          -4.716000     -4.597000      6.649000
C          -5.522000     -8.495000      4.191000
C          -3.829000     -9.087000     10.436000
C          -7.984000     -5.821000      8.437000
C          -3.111000     -8.297000      4.884000
C          -5.179000     -7.058000     11.024000
C          -5.497000     -9.681000      4.811000
C          -5.637000     -5.702000      4.711000
C          -7.179000    -10.461000      8.793000
C          -5.951000    -11.146000      8.556000
C          -6.783000     -6.520000      4.667000
C          -2.952000     -9.535000      9.437000
C          -2.539000     -9.816000      6.703000
C          -4.969000     -9.889000     10.446000
C          -1.975000     -6.563000      7.856000
C          -7.146000     -4.960000      6.354000
C          -3.155000     -9.583000      5.446000
C          -6.735000     -7.876000      4.431000
C          -3.941000     -7.729000     10.674000
C          -8.536000     -6.984000      6.362000
C          -5.163000     -5.815000     10.372000
C          -8.756000     -8.205000      8.378000
C          -5.849000     -4.786000      5.770000
C          -7.758000     -6.032000      5.622000
C          -2.810000     -5.383000      7.672000
C          -2.211000     -7.294000      9.045000
C          -7.319000     -9.573000      9.814000
C          -7.324000     -4.820000      7.779000
C          -6.768000     -9.954000      5.337000
C          -4.823000    -10.848000      9.381000
C          -7.773000    -10.285000      7.539000
C          -3.161000     -6.810000     10.003000
C          -6.335000     -7.854000     10.915000
$end

--------------------------------------------------------------

             Standard Nuclear Orientation (Angstroms)
    I     Atom           X                Y                Z
 ----------------------------------------------------------------
    1      O      11.5896613727    -6.2490839326    -0.4264065379
    2      C      12.9867146646    -6.5480964991    -0.3992112290
    3      H      13.1306666000    -7.6300124659    -0.5053322971
    4      H      13.3387301423    -6.1471713474     0.5594201528
    5      H      13.5999255231    -5.9706703450    -1.1008973979
    6      O      11.9389331714    -4.4050093090    -1.7401930478
    7      C      11.1825189883    -5.1060491003    -1.0729376284
    8      C       9.7471909347    -4.7594233647    -0.7676558272
    9      H       9.4909563935    -4.8969111115     0.2906423252
   10      H       9.2563689156    -5.5636206395    -1.3297959244
   11      C       9.2077483445    -3.3936555210    -1.2905476795
   12      H       9.6891700675    -2.5485931876    -0.7820609272
   13      H       9.4163773813    -3.1975196245    -2.3491782265
   14      C       7.6249493442    -3.3871752197    -1.2093114171
   15      H       7.2832334046    -4.1264783323    -1.9439801344
   16      H       7.2328743166    -3.5937145041    -0.2051357867
   17      C       7.0931761560    -2.0586935636    -1.7137663367
   18      C       7.3105989095    -1.8805628678    -3.2345012910
   19      C       6.6099320408    -2.6940008877    -4.1130805572
   20      H       5.8598330053    -3.4331674741    -3.8480632097
   21      C       6.8247940884    -2.5762313008    -5.5049435623
   22      H       6.1614462135    -3.1488916101    -6.1471240409
   23      C       7.7023822519    -1.6016956798    -5.9782250206
   24      H       7.8431553307    -1.4879196857    -7.0487052696
   25      C       8.4365859323    -0.8136060782    -5.0851288693
   26      H       9.2403376235    -0.1671723791    -5.4246781169
   27      C       8.3231092346    -1.0298565934    -3.6879256794
   28      H       8.8637100656    -0.5471865425    -2.8782551516
   29      C       6.5788378206     3.3945725462    -0.8343808622
   30      C       4.5442460015     2.7925083144    -2.1195500302
   31      C       1.6405865670     3.3126058346     1.2798107123
   32      C       7.0196424066     0.3269082997     3.3427124319
   33      C       1.4938073590    -0.0551489677     1.9233543827
   34      C       5.8928183603     2.5883957139    -1.7985272283
   35      C       4.3350475074    -0.2378197921     4.1135933627
   36      C       3.6079383065     4.6240891752     0.6699914107
   37      C       3.4318564897    -0.8962337559    -1.3976168526
   38      C       6.4716823962    -0.9088268714     2.9526080693
   39      C       5.7690636472    -1.5088811265    -1.2458706772
   40      C       3.5251586413    -1.7256449019    -0.3299854278
   41      C       4.4743360582    -1.8193700384     2.2847512377
   42      C       2.9954007921    -0.0795601531     3.8404019189
   43      C       4.9808538579     0.6220750976    -2.3777655040
   44      C       1.8501847657     2.0191060443     3.1137834186
   45      C       7.1148655570    -0.8554590044    -0.8204135702
   46      C       7.4153246064    -0.8566800796     0.6654154471
   47      C       1.1852373749     1.3302885617     2.1068030598
   48      C       5.5156804131     3.5532566070     3.4727621230
   49      C       3.3278021143     3.8502849393     2.9258583657
   50      C       4.0515977681     4.5696395375     1.9606170416
   51      C       4.5054150524     4.5230831223    -0.3698909229
   52      C       7.9202247514     0.4801915940     1.0084533049
   53      C       4.7309042078    -0.6448130957    -1.8924063812
   54      C       3.8049863983     3.7427749634    -1.3457499689
   55      C       5.1077992099    -1.1060013510     3.3179228359
   56      C       3.9295169444     1.5771279636    -2.4905605276
   57      C       2.5869240702    -1.6859658900     0.7296906857
   58      C       7.3833644134     2.3743641764     2.4742541801
   59      C       2.3855051883     4.0544467402     0.3392713360
   60      C       4.8806553743    -2.0431689799    -0.0872179120
   61      C       6.3517383637     4.2453405309     1.2479401199
   62      C       3.1113972310    -1.6353160018     1.9984020368
   63      C       2.3990616881     0.0868826260    -1.5490205432
   64      C       3.9397169803     1.9510441708     4.3143502455
   65      C       4.9723111291     0.9742935107     4.4202958528
   66      C       1.5626620804     0.2303738915    -0.4397293492
   67      C       7.7548889741     1.0193185021     2.3492953007
   68      C       6.5540828924    -1.4363593906     1.6393397801
   69      C       6.5449576803     2.5734266940     3.5826468290
   70      C       7.2054317264     0.5574683992    -1.1750231036
   71      C       1.8904678056     2.2968704695    -1.2946055389
   72      C       5.3937332390    -2.0368488649     1.2164508193
   73      C       1.5894011730    -0.6577100602     0.6691678127
   74      C       7.3611257354     3.2795149708     1.3824879595
   75      C       1.0760297452     2.0831418617     0.9796408699
   76      C       5.8609402593     4.3023548515    -0.0803733175
   77      C       2.0791365441     3.2715766045     2.6405989103
   78      C       2.6529975944     1.3254759210    -2.0470488606
   79      C       1.2109907363     1.5703536055    -0.2747971458
   80      C       6.2182791894     1.2190874703    -1.9703765304
   81      C       7.7495869413     1.3129735262    -0.1064309901
   82      C       4.2120817746     3.2540288402     3.8166782951
   83      C       2.4742208621     3.5365713022    -0.9717925679
   84      C       2.3425297212    -0.7403780095     2.7619010494
   85      C       6.2688632943     1.2632104766     4.0364919057
   86      C       2.7451372254     1.3057232845     3.9464016582
   87      C       7.5164298585     2.7275050304     0.0596846275
   88      C       5.4206517248     4.3209436579     2.2853594364
   89      O      -7.1960163955    -8.3280930178     0.5652763812
   90      C      -6.8032600200    -9.6950572850     0.0619880723
   91      H      -5.8801220758    -9.9695100413     0.5866841944
   92      H      -6.4516020506    -9.5754459813    -0.9695369194
   93      H      -7.5019415137   -10.5408174830     0.0524038205
   94      O      -8.2895127340    -7.9101159144    -1.3630684787
   95      C      -7.9541256666    -7.5592072098    -0.2442907545
   96      C      -8.2713286985    -6.2144207022     0.3479292093
   97      H      -8.6566672823    -6.3983868393     1.3586678680
   98      H      -9.0620024492    -5.8502709165    -0.3195488456
   99      C      -7.1568948131    -5.1611580518     0.3260224942
  100      H      -6.2204076854    -5.5626976953     0.7336728031
  101      H      -6.9775943789    -4.8671439461    -0.7158244523
  102      C      -7.7125241164    -3.9412353757     1.1149069863
  103      H      -8.4120325886    -3.3810587059     0.4824625256
  104      H      -8.3519145601    -4.3174609783     1.9228897563
  105      C      -6.6373251085    -2.9322876146     1.5828092289
  106      C      -5.8581869843    -3.4396350954     2.8095004358
  107      C      -6.3811679010    -3.1440296803     4.0624718637
  108      H      -7.2356957937    -2.4749006709     4.0396365950
  109      C      -5.7788993648    -3.5246813376     5.2453644735
  110      H      -6.2513314064    -3.2475790231     6.1837179641
  111      C      -4.6614470155    -4.3494073496     5.1775614343
  112      H      -4.1771708321    -4.7303654312     6.0719844428
  113      C      -4.1892081225    -4.7571473337     3.9038756279
  114      H      -3.2504100450    -5.3024610498     3.8659794459
  115      C      -4.7181567278    -4.2420894194     2.7187145764
  116      H      -4.2794413500    -4.3610115823     1.7324421311
  117      C      -4.7353278949     2.1313328709     2.5167456176
  118      C      -2.8253692321     0.9090462454     1.6280593336
  119      C      -2.6446554046     3.0563336209    -2.3597952825
  120      C      -8.6705234770     1.7852167830    -0.6424432631
  121      C      -4.2912222764     0.4767451675    -4.0248138854
  122      C      -4.0216052389     0.9535490481     2.3904830456
  123      C      -7.6078793979     1.6302527954    -3.1847783559
  124      C      -3.0340630593     3.9103119804    -0.1359372295
  125      C      -3.9305757028    -1.9378644880    -0.8182356062
  126      C      -8.5329332913     0.5077031841    -1.2647727141
  127      C      -5.9134248922    -2.1966356008     0.5268188921
  128      C      -5.0824247337    -2.0205538064    -1.6943670385
  129      C      -7.2984079062    -0.7547629001    -2.6622187630
  130      C      -6.4948167261     1.5925715680    -3.9905802011
  131      C      -3.8842329386    -1.0236204684     1.3916359332
  132      C      -4.4192856548     2.8835157486    -3.7896625694
  133      C      -6.8503642088    -1.4349669210     1.4832949970
  134      C      -7.9385776119    -0.6015807698     0.8650651755
  135      C      -3.5957952729     1.7144202792    -3.9309437587
  136      C      -6.4463288265     4.5470810180    -0.6836027543
  137      C      -4.5666813585     4.5277784157    -1.9460411907
  138      C      -4.2103305189     4.5977416099    -0.6164456768
  139      C      -3.0987457050     3.2577258843     1.1013960088
  140      C      -7.9115640094     0.6984571933     1.4120803120
  141      C      -4.4434797550    -1.9238119004     0.4820693419
  142      C      -2.3137280690     2.0589922181     0.9670014087
  143      C      -8.0401163235     0.4258798612    -2.5481473204
  144      C      -2.7579987426    -0.2910390546     0.9842810412
  145      C      -4.9743856687    -1.4065472449    -2.9817086803
  146      C      -7.6377066739     3.0948672067     0.8732526888
  147      C      -2.2990371823     3.0729041569    -0.9773979222
  148      C      -6.2855879326    -2.0852746394    -0.9439521328
  149      C      -5.3675650100     3.9983378026     1.4347530967
  150      C      -6.0715922834    -0.7267110760    -3.3360833805
  151      C      -2.7553226949    -1.3025627209    -1.2070479417
  152      C      -6.5688351099     3.6177155041    -2.9206856656
  153      C      -7.7544523233     2.8838013129    -2.6222568079
  154      C      -2.7747376809    -0.6359209887    -2.4478492389
  155      C      -8.2852220855     1.8625057463     0.7005013574
  156      C      -8.1942736517    -0.6240671966    -0.5376300501
  157      C      -7.6582907171     3.8018775841    -0.3278370761
  158      C      -6.1049949942    -0.3977978402     2.2575856606
  159      C      -1.6493407828     0.7577018884    -0.9637215159
  160      C      -7.4139518677    -1.4049745987    -1.4293001364
  161      C      -3.8510523070    -0.6684522903    -3.3064670468
  162      C      -6.5247938811     3.1616538986     1.6919813700
  163      C      -2.5198804970     1.7642407488    -3.0271604242
  164      C      -4.2405151457     3.2623056965     1.8327786513
  165      C      -3.7890495624     3.7565051123    -2.8735713956
  166      C      -2.1088264771    -0.4269184525    -0.3010839493
  167      C      -2.0318913498     0.6038279300    -2.3383232286
  168      C      -4.6520281646    -0.2920039181     2.2918790749
  169      C      -6.8035911249     0.8332698124     2.2722103282
  170      C      -5.9771956266     4.4282031923    -2.0021774027
  171      C      -1.7225700137     2.0355307145    -0.2976134384
  172      C      -5.6949722330     0.4094767939    -4.0667546212
  173      C      -8.3018873439     2.9611107108    -1.3046259206
  174      C      -5.8473861607     2.8361228571    -3.8289545399
  175      C      -6.0784007647     2.0632940858     2.3973471668
  176      C      -5.3506597833     4.6119748289     0.1678684085
 ----------------------------------------------------------------

    9   -5804.2871623447      9.42E-06 Convergence criterion met
 Total energy in the final basis set = -5804.2871623447

                    Orbital Energies (a.u.)
 --------------------------------------------------------------

 Alpha MOs
 -- Occupied --
-19.196 -19.193 -19.137 -19.129 -10.321 -10.312 -10.250 -10.247
-10.245 -10.244 -10.243 -10.243 -10.242 -10.242 -10.235 -10.234
-10.234 -10.231 -10.230 -10.229 -10.229 -10.227 -10.226 -10.225
-10.224 -10.223 -10.223 -10.222 -10.221 -10.221 -10.221 -10.221
-10.220 -10.220 -10.220 -10.220 -10.220 -10.220 -10.220 -10.219
-10.219 -10.219 -10.219 -10.219 -10.219 -10.219 -10.218 -10.218
-10.218 -10.218 -10.218 -10.217 -10.217 -10.217 -10.217 -10.216
-10.216 -10.215 -10.215 -10.215 -10.215 -10.215 -10.215 -10.215
-10.214 -10.214 -10.214 -10.214 -10.214 -10.214 -10.213 -10.213
-10.213 -10.213 -10.213 -10.213 -10.213 -10.213 -10.213 -10.213
-10.213 -10.213 -10.213 -10.213 -10.212 -10.212 -10.212 -10.212
-10.212 -10.211 -10.211 -10.211 -10.211 -10.211 -10.211 -10.211
-10.211 -10.211 -10.211 -10.211 -10.211 -10.211 -10.211 -10.211
-10.210 -10.210 -10.210 -10.210 -10.210 -10.210 -10.210 -10.210
-10.210 -10.210 -10.209 -10.209 -10.209 -10.209 -10.209 -10.209
-10.208 -10.208 -10.208 -10.208 -10.208 -10.208 -10.207 -10.207
-10.206 -10.206 -10.205 -10.205 -10.205 -10.204 -10.204 -10.203
-10.203 -10.203 -10.203 -10.202 -10.202 -10.202 -10.201 -10.201
-10.201 -10.200 -10.199 -10.194  -1.092  -1.089  -1.008  -1.001
 -0.981  -0.981  -0.964  -0.963  -0.962  -0.961  -0.958  -0.957
 -0.934  -0.934  -0.926  -0.926  -0.924  -0.923  -0.920  -0.919
 -0.918  -0.916  -0.898  -0.897  -0.889  -0.888  -0.883  -0.881
 -0.873  -0.873  -0.857  -0.855  -0.840  -0.840  -0.837  -0.837
 -0.834  -0.833  -0.821  -0.820  -0.809  -0.805  -0.798  -0.795
 -0.794  -0.793  -0.792  -0.791  -0.790  -0.789  -0.782  -0.781
 -0.769  -0.769  -0.766  -0.766  -0.765  -0.765  -0.763  -0.762
 -0.754  -0.752  -0.747  -0.744  -0.735  -0.733  -0.716  -0.715
 -0.713  -0.713  -0.710  -0.710  -0.710  -0.709  -0.707  -0.706
 -0.706  -0.705  -0.705  -0.704  -0.703  -0.702  -0.672  -0.672
 -0.658  -0.657  -0.655  -0.654  -0.646  -0.645  -0.634  -0.634
 -0.626  -0.626  -0.623  -0.623  -0.623  -0.622  -0.618  -0.616
 -0.616  -0.615  -0.613  -0.611  -0.610  -0.609  -0.609  -0.608
 -0.607  -0.606  -0.601  -0.600  -0.568  -0.565  -0.563  -0.562
 -0.561  -0.561  -0.558  -0.557  -0.555  -0.553  -0.553  -0.551
 -0.537  -0.536  -0.535  -0.534  -0.525  -0.525  -0.525  -0.524
 -0.524  -0.522  -0.518  -0.517  -0.516  -0.515  -0.513  -0.512
 -0.508  -0.508  -0.501  -0.498  -0.493  -0.493  -0.487  -0.485
 -0.482  -0.481  -0.480  -0.479  -0.479  -0.477  -0.476  -0.475
 -0.470  -0.470  -0.469  -0.468  -0.468  -0.467  -0.465  -0.464
 -0.463  -0.463  -0.463  -0.462  -0.460  -0.460  -0.459  -0.457
 -0.456  -0.455  -0.453  -0.453  -0.450  -0.446  -0.444  -0.442
 -0.442  -0.442  -0.440  -0.438  -0.437  -0.435  -0.433  -0.433
 -0.432  -0.430  -0.430  -0.428  -0.426  -0.425  -0.425  -0.423
 -0.423  -0.422  -0.420  -0.420  -0.419  -0.417  -0.417  -0.416
 -0.416  -0.415  -0.414  -0.413  -0.413  -0.411  -0.411  -0.410
 -0.409  -0.408  -0.408  -0.407  -0.402  -0.398  -0.397  -0.396
 -0.394  -0.393  -0.392  -0.390  -0.388  -0.385  -0.385  -0.385
 -0.383  -0.376  -0.374  -0.373  -0.373  -0.369  -0.368  -0.366
 -0.365  -0.364  -0.363  -0.362  -0.361  -0.360  -0.359  -0.358
 -0.358  -0.356  -0.355  -0.354  -0.353  -0.352  -0.352  -0.351
 -0.350  -0.349  -0.349  -0.348  -0.348  -0.346  -0.345  -0.344
 -0.343  -0.342  -0.342  -0.341  -0.340  -0.339  -0.335  -0.334
 -0.332  -0.329  -0.328  -0.327  -0.326  -0.325  -0.324  -0.323
 -0.320  -0.317  -0.301  -0.295  -0.285  -0.284  -0.272  -0.271
 -0.270  -0.268  -0.267  -0.265  -0.265  -0.264  -0.263  -0.262
 -0.261  -0.260  -0.259  -0.259  -0.258  -0.255  -0.254  -0.254
 -0.251  -0.250  -0.248  -0.244  -0.223  -0.221  -0.212  -0.210
 -0.208  -0.206  -0.204  -0.202  -0.199  -0.196

          Ground-State Mulliken Net Atomic Charges

     Atom                 Charge (a.u.)
  ----------------------------------------
      1 O                    -0.470467
      2 C                    -0.097151
      3 H                     0.124832
      4 H                     0.121445
      5 H                     0.146232
      6 O                    -0.475450
      7 C                     0.591880
      8 C                    -0.256760
      9 H                     0.137462
     10 H                     0.136451
     11 C                    -0.183696
     12 H                     0.115779
     13 H                     0.132719
     14 C                    -0.184676
     15 H                     0.112937
     16 H                     0.105618
     17 C                     0.013918
     18 C                     0.085187
     19 C                    -0.109055
     20 H                     0.091501
     21 C                    -0.088878
     22 H                     0.092838
     23 C                    -0.079862
     24 H                     0.092944
     25 C                    -0.101677
     26 H                     0.097235
     27 C                    -0.095671
     28 H                     0.101628
     29 C                    -0.018848
     30 C                    -0.008301
     31 C                    -0.022689
     32 C                    -0.015882
     33 C                     0.017038
     34 C                     0.008026
     35 C                     0.008079
     36 C                     0.021840
     37 C                     0.020216
     38 C                    -0.004386
     39 C                    -0.088064
     40 C                     0.033832
     41 C                    -0.013630
     42 C                    -0.015771
     43 C                    -0.025968
     44 C                     0.019603
     45 C                    -0.081915
     46 C                    -0.000203
     47 C                    -0.008603
     48 C                    -0.002391
     49 C                     0.004355
     50 C                     0.000054
     51 C                    -0.001756
     52 C                    -0.023670
     53 C                     0.035770
     54 C                    -0.006122
     55 C                    -0.004323
     56 C                    -0.008147
     57 C                    -0.052947
     58 C                     0.029161
     59 C                     0.004959
     60 C                     0.002895
     61 C                    -0.005264
     62 C                     0.021441
     63 C                    -0.008650
     64 C                    -0.021818
     65 C                    -0.002481
     66 C                    -0.003126
     67 C                    -0.014672
     68 C                     0.020098
     69 C                    -0.017901
     70 C                     0.026373
     71 C                    -0.022651
     72 C                     0.004373
     73 C                    -0.014667
     74 C                    -0.013298
     75 C                     0.044928
     76 C                     0.019613
     77 C                    -0.026292
     78 C                     0.018581
     79 C                     0.017337
     80 C                     0.015385
     81 C                     0.031361
     82 C                     0.012535
     83 C                    -0.013476
     84 C                    -0.016733
     85 C                     0.028764
     86 C                     0.010308
     87 C                    -0.036391
     88 C                    -0.010357
     89 O                    -0.466046
     90 C                    -0.098913
     91 H                     0.124409
     92 H                     0.139794
     93 H                     0.137214
     94 O                    -0.475074
     95 C                     0.575387
     96 C                    -0.247413
     97 H                     0.125150
     98 H                     0.137669
     99 C                    -0.187519
    100 H                     0.121446
    101 H                     0.123399
    102 C                    -0.177458
    103 H                     0.111772
    104 H                     0.112365
    105 C                     0.000417
    106 C                     0.095597
    107 C                    -0.100216
    108 H                     0.085870
    109 C                    -0.081949
    110 H                     0.094111
    111 C                    -0.086304
    112 H                     0.093807
    113 C                    -0.104582
    114 H                     0.090080
    115 C                    -0.102368
    116 H                     0.095207
    117 C                    -0.015166
    118 C                     0.005127
    119 C                    -0.012975
    120 C                    -0.000638
    121 C                    -0.000190
    122 C                    -0.015677
    123 C                     0.031666
    124 C                    -0.020378
    125 C                     0.025571
    126 C                     0.005328
    127 C                    -0.086467
    128 C                    -0.018109
    129 C                    -0.001007
    130 C                    -0.022870
    131 C                     0.010244
    132 C                     0.004941
    133 C                    -0.082252
    134 C                     0.015019
    135 C                    -0.018617
    136 C                    -0.004018
    137 C                    -0.019943
    138 C                     0.013714
    139 C                     0.005583
    140 C                     0.007740
    141 C                     0.004288
    142 C                    -0.017910
    143 C                    -0.004882
    144 C                     0.009629
    145 C                    -0.037768
    146 C                     0.018643
    147 C                     0.024041
    148 C                     0.052513
    149 C                    -0.047762
    150 C                     0.042302
    151 C                    -0.017638
    152 C                     0.025884
    153 C                    -0.023231
    154 C                     0.002199
    155 C                    -0.006539
    156 C                     0.009713
    157 C                    -0.029125
    158 C                     0.032147
    159 C                    -0.007979
    160 C                    -0.037997
    161 C                     0.017870
    162 C                     0.002960
    163 C                     0.000991
    164 C                     0.025523
    165 C                    -0.009423
    166 C                    -0.001406
    167 C                    -0.012664
    168 C                     0.000210
    169 C                    -0.008384
    170 C                     0.007987
    171 C                     0.011669
    172 C                    -0.006851
    173 C                    -0.019177
    174 C                    -0.005533
    175 C                     0.036770
    176 C                     0.023662
  ----------------------------------------
  Sum of atomic charges =     0.000000

                    Cartesian Multipole Moments
 -----------------------------------------------------------------
    Charge (ESU x 10^10)
                 0.0000
    Dipole Moment (Debye)
         X       1.3190      Y      -5.3321      Z       2.0099
       Tot       5.8490
    Quadrupole Moments (Debye-Ang)
        XX    -810.4118     XY     -21.9290     YY    -780.7089
        XZ     -23.9800     YZ     -14.5209     ZZ    -801.0268

 Total job time:  853.80s(wall), 8132.53s(cpu)
        *  Thank you very much for using Q-Chem.  Have a nice day.  *
