 Q-Chem 4.4, Q-Chem, Inc., Pleasanton, CA (2016)
 Q-Chem 4.4.2 for Intel X86 Linux

User input:
--------------------------------------------------------------
$comment
SP
$end

$rem
MEM_STATIC 5000
MEM_TOTAL 20000
JOBTYPE SP
EXCHANGE B3LYP
BASIS 6-31g(d,p)
$end

$molecule
0 1
O           3.758000    -18.099000     -1.474000
C           3.491000    -18.852000     -2.646000
H           3.103000    -19.876000     -2.581000
H           4.427000    -19.040000     -3.186000
H           2.803000    -18.300000     -3.298000
O           4.350000    -16.255000     -2.724000
C           4.153000    -16.809000     -1.656000
C           4.471000    -16.116000     -0.351000
H           5.129000    -15.299000     -0.669000
H           5.000000    -16.785000      0.339000
C           3.284000    -15.534000      0.363000
H           3.555000    -14.873000      1.196000
H           2.898000    -14.823000     -0.378000
C           2.279000    -16.545000      0.791000
H           1.990000    -17.205000     -0.036000
H           2.703000    -17.205000      1.558000
C           1.047000    -15.826000      1.326000
C           0.261000    -15.054000      0.338000
C          -0.481000    -15.875000     -0.534000
H          -0.508000    -16.945000     -0.349000
C          -1.305000    -15.264000     -1.505000
H          -1.988000    -15.908000     -2.052000
C          -1.255000    -13.806000     -1.613000
H          -1.964000    -13.271000     -2.237000
C          -0.376000    -13.081000     -0.814000
H          -0.290000    -11.999000     -0.846000
C           0.428000    -13.727000      0.159000
H           1.111000    -13.191000      0.811000
C          -0.912000    -13.314000      5.762000
C          -2.933000    -14.384000      4.767000
C          -3.253000    -17.668000      8.032000
C           2.870000    -16.684000      6.516000
C          -1.732000    -20.130000      6.190000
C          -1.664000    -13.692000      4.649000
C           1.615000    -19.145000      7.063000
C          -2.723000    -15.275000      8.220000
C          -1.842000    -17.687000      2.953000
C           2.661000    -17.669000      5.521000
C           0.156000    -16.699000      2.232000
C          -0.856000    -18.662000      3.047000
C           1.380000    -19.319000      4.698000
C           0.406000    -19.796000      7.292000
C          -1.884000    -15.333000      3.063000
C          -1.647000    -19.128000      8.363000
C           1.012000    -15.630000      2.823000
C           1.997000    -16.007000      3.925000
C          -2.384000    -19.535000      7.286000
C           0.566000    -15.792000      9.016000
C          -1.399000    -16.908000      9.398000
C          -1.665000    -15.567000      9.060000
C          -2.601000    -14.300000      7.239000
C           2.123000    -15.044000      4.904000
C          -1.283000    -16.493000      2.585000
C          -3.375000    -14.685000      6.145000
C           2.101000    -18.942000      5.785000
C          -3.008000    -15.392000      3.842000
C          -0.923000    -19.653000      4.091000
C           1.871000    -14.799000      7.269000
C          -3.510000    -16.302000      7.754000
C           0.420000    -18.052000      2.792000
C          -0.299000    -13.876000      7.877000
C           0.198000    -19.994000      4.867000
C          -2.943000    -17.769000      3.756000
C           0.584000    -18.201000      8.848000
C           1.689000    -18.148000      8.061000
C          -3.118000    -18.772000      4.710000
C           2.548000    -15.332000      6.213000
C           2.240000    -17.327000      4.229000
C           1.723000    -15.737000      8.251000
C           0.383000    -14.440000      3.466000
C          -3.994000    -16.878000      5.482000
C           1.461000    -18.347000      3.668000
C          -2.085000    -19.746000      4.883000
C           0.837000    -13.880000      7.035000
C          -3.414000    -18.611000      7.079000
C          -1.386000    -13.556000      7.064000
C          -2.190000    -17.942000      8.857000
C          -3.596000    -16.614000      4.191000
C          -3.753000    -18.234000      5.793000
C          -1.039000    -14.297000      3.538000
C           1.107000    -14.082000      4.617000
C          -0.017000    -17.016000      9.382000
C          -3.884000    -15.930000      6.493000
C          -0.317000    -20.252000      6.181000
C           2.338000    -16.914000      7.824000
C          -0.184000    -19.246000      8.354000
C           0.439000    -13.518000      5.746000
C          -0.471000    -14.865000      8.913000
O           1.587000     -7.289000      0.526000
C           1.741000     -7.065000     -0.958000
H           1.716000     -5.980000     -1.116000
H           0.808000     -7.386000     -1.436000
H           2.555000     -7.516000     -1.539000
O           0.711000     -9.333000      0.147000
C           1.080000     -8.473000      0.929000
C           0.954000     -8.582000      2.423000
H           1.925000     -8.291000      2.843000
H           0.766000     -9.654000      2.560000
C          -0.217000     -7.842000      3.081000
H          -0.261000     -6.795000      2.755000
H          -1.151000     -8.333000      2.780000
C          -0.018000     -8.014000      4.614000
H          -0.334000     -9.020000      4.916000
H           1.059000     -8.017000      4.822000
C          -0.823000     -7.020000      5.484000
C          -0.188000     -5.618000      5.504000
C           0.772000     -5.368000      6.477000
H           0.886000     -6.167000      7.203000
C           1.411000     -4.152000      6.618000
H           2.146000     -4.038000      7.410000
C           1.172000     -3.170000      5.663000
H           1.687000     -2.214000      5.685000
C           0.284000     -3.457000      4.595000
H           0.020000     -2.642000      3.927000
C          -0.466000     -4.634000      4.552000
H          -1.295000     -4.825000      3.877000
C          -3.860000     -5.665000      9.851000
C          -4.872000     -4.454000      7.996000
C          -8.692000     -6.887000      7.810000
C          -3.581000    -10.602000      8.786000
C          -7.551000     -8.804000      5.134000
C          -3.733000     -4.993000      8.649000
C          -5.758000    -11.171000      7.188000
C          -7.455000     -6.054000      9.708000
C          -4.406000     -6.341000      4.600000
C          -3.410000    -10.665000      7.370000
C          -2.294000     -7.141000      5.441000
C          -4.302000     -7.761000      4.328000
C          -4.362000    -10.285000      5.365000
C          -6.883000    -10.725000      6.536000
C          -3.450000     -5.172000      6.455000
C          -8.561000     -9.114000      7.313000
C          -1.539000     -7.461000      6.745000
C          -1.771000     -8.812000      7.363000
C          -8.509000     -8.363000      6.089000
C          -6.255000     -9.217000     10.659000
C          -8.113000     -8.414000      9.644000
C          -7.473000     -7.377000     10.288000
C          -6.272000     -5.308000      9.779000
C          -2.094000     -8.662000      8.728000
C          -3.276000     -6.016000      5.356000
C          -6.179000     -4.580000      8.541000
C          -4.483000    -10.987000      6.569000
C          -4.716000     -4.597000      6.649000
C          -5.522000     -8.495000      4.191000
C          -3.829000     -9.087000     10.436000
C          -7.984000     -5.821000      8.437000
C          -3.111000     -8.297000      4.884000
C          -5.179000     -7.058000     11.024000
C          -5.497000     -9.681000      4.811000
C          -5.637000     -5.702000      4.711000
C          -7.179000    -10.461000      8.793000
C          -5.951000    -11.146000      8.556000
C          -6.783000     -6.520000      4.667000
C          -2.952000     -9.535000      9.437000
C          -2.539000     -9.816000      6.703000
C          -4.969000     -9.889000     10.446000
C          -1.975000     -6.563000      7.856000
C          -7.146000     -4.960000      6.354000
C          -3.155000     -9.583000      5.446000
C          -6.735000     -7.876000      4.431000
C          -3.941000     -7.729000     10.674000
C          -8.536000     -6.984000      6.362000
C          -5.163000     -5.815000     10.372000
C          -8.756000     -8.205000      8.378000
C          -5.849000     -4.786000      5.770000
C          -7.758000     -6.032000      5.622000
C          -2.810000     -5.383000      7.672000
C          -2.211000     -7.294000      9.045000
C          -7.319000     -9.573000      9.814000
C          -7.324000     -4.820000      7.779000
C          -6.768000     -9.954000      5.337000
C          -4.823000    -10.848000      9.381000
C          -7.773000    -10.285000      7.539000
C          -3.161000     -6.810000     10.003000
C          -6.335000     -7.854000     10.915000
$end

--------------------------------------------------------------

             Standard Nuclear Orientation (Angstroms)
    I     Atom           X                Y                Z
 ----------------------------------------------------------------
    1      O      -9.8690511954    -4.6234957238    -0.9241164049
    2      C     -10.7462061475    -4.9722160510    -1.9828304000
    3      H     -11.4077025440    -4.2233896366    -2.4356289409
    4      H     -11.4937155476    -5.6895451391    -1.6226794924
    5      H     -10.1795856916    -5.4243933579    -2.8060126046
    6      O      -8.9851042043    -6.7518389377    -0.8783683923
    7      C      -9.0249323854    -5.5979347760    -0.4868739458
    8      C      -8.1791886841    -5.1440109710     0.6806314164
    9      H      -7.8915700339    -6.0921141357     1.1496227822
   10      H      -8.7602325280    -4.5325286410     1.3820438568
   11      C      -6.9347288374    -4.3899488312     0.3061998748
   12      H      -6.2426113307    -4.2433059898     1.1450802203
   13      H      -6.3988650702    -5.1244335317    -0.3077872973
   14      C      -7.1940382737    -3.1059952089    -0.4005898479
   15      H      -7.8753427219    -3.2406995824    -1.2495474326
   16      H      -7.6961879435    -2.3958183947     0.2681100861
   17      C      -5.8708939567    -2.5330900882    -0.8926049280
   18      C      -5.1815687769    -3.3001106914    -1.9539409684
   19      C      -5.8078956130    -3.1816767873    -3.2103951477
   20      H      -6.6325915051    -2.4833383809    -3.3201865667
   21      C      -5.2307950236    -3.8363218983    -4.3210403153
   22      H      -5.6337220157    -3.5980607572    -5.3015072794
   23      C      -4.0678117212    -4.6885468827    -4.0738351082
   24      H      -3.4971840906    -5.1020975325    -4.8994512219
   25      C      -3.6062752602    -4.8722925185    -2.7738779410
   26      H      -2.7501031849    -5.4914842969    -2.5234484719
   27      C      -4.2030246084    -4.1891937072    -1.6840489501
   28      H      -3.8574945185    -4.2951213712    -0.6601948165
   29      C      -1.4980748741     0.2923051807     0.7570968163
   30      C      -1.7959897140     1.0225384016    -1.6087798058
   31      C      -3.3747167704     5.2426873693    -0.4928745355
   32      C      -5.7809280484     0.8831944791     3.5024489841
   33      C      -6.6953478495     4.4830341187    -0.8980722346
   34      C      -1.8249893177     0.0109969544    -0.5699863116
   35      C      -7.1031326064     3.1129561088     2.4021339466
   36      C      -1.5528480412     3.9099655484     0.4804393304
   37      C      -5.6177857237     0.9092606857    -2.4872611203
   38      C      -6.8226904020     0.7572689937     2.5522884867
   39      C      -5.9161800437    -1.0221030151    -1.1954468594
   40      C      -6.8471560599     1.0380264694    -1.8518675813
   41      C      -7.8845396959     1.5801087362     0.7533441199
   42      C      -7.0320233582     4.1575758067     1.4847266426
   43      C      -3.5957381963    -0.2039131904    -2.0104511805
   44      C      -5.2142216297     5.5164201140     0.6740398816
   45      C      -5.2218312957    -1.5246658934     0.0252448993
   46      C      -5.6345677419    -0.9670124278     1.3837106656
   47      C      -5.5608468011     5.2696234412    -0.6250711194
   48      C      -3.2148250278     3.2832030931     3.4067727565
   49      C      -3.1446177346     5.0180284970     1.9107591355
   50      C      -2.0094834236     4.1997017424     1.7523532683
   51      C      -1.0999239078     2.6364215488     0.1629249045
   52      C      -4.5788925290    -0.8042339323     2.2559142005
   53      C      -4.9860330879    -0.2251505897    -2.0542014647
   54      C      -1.4168404432     2.3824628548    -1.1709438639
   55      C      -7.5526722064     1.8568352848     2.0405214140
   56      C      -2.8953031430     0.8995222475    -2.4172914080
   57      C      -7.3184424042     2.3411789775    -1.4566603924
   58      C      -3.5190830074     0.9103854718     3.5418527983
   59      C      -2.2039086231     4.4512847558    -0.6032338834
   60      C      -6.9908393104    -0.0345106812    -0.9061825470
   61      C      -1.5805833534     1.8520953979     2.4078799121
   62      C      -7.8644587108     2.5811492362    -0.1841123705
   63      C      -4.9394042678     2.0317639040    -2.8661003015
   64      C      -5.2902623291     4.3930897348     2.8659024848
   65      C      -5.9896786271     3.2954181595     3.2520850253
   66      C      -5.4003748665     3.3237646608    -2.6111686408
   67      C      -4.6004340313     0.1098794495     3.3240821128
   68      C      -6.7524567106    -0.1740291983     1.5076737701
   69      C      -3.9290569162     2.1772608346     3.8468449443
   70      C      -3.7421163218    -1.3857802765     0.1530900451
   71      C      -3.1803636853     3.3050563305    -2.4635327596
   72      C      -7.4310496797     0.2906931251     0.3738718719
   73      C      -6.6252752304     3.4886594803    -1.8913611686
   74      C      -2.3588571897     0.7296999925     2.7739323535
   75      C      -4.3897721877     5.1042951453    -1.3725841991
   76      C      -1.0790226123     1.5806658534     1.1352052383
   77      C      -3.8232508051     5.5099527611     0.7771870496
   78      C      -3.5433875535     2.0474748935    -2.8895416800
   79      C      -4.3252652657     4.1225911655    -2.3436362848
   80      C      -2.9604138464    -0.7692957893    -0.8748229459
   81      C      -3.4074197843    -1.0538561865     1.4778336529
   82      C      -3.8615001744     4.4423639660     2.9483206591
   83      C      -2.1200031405     3.5061120804    -1.5870984492
   84      C      -7.4365851418     3.9048989564     0.1665953241
   85      C      -5.3238736487     2.1957617195     3.8416488002
   86      C      -5.9737013396     4.9147048107     1.7765385274
   87      C      -2.2813007491    -0.2200186384     1.7526642591
   88      C      -2.0054826241     3.1954483163     2.7174999150
   89      O       0.7749451410    -7.7564181048     0.6441566401
   90      C       0.4276883137    -9.0250068260    -0.0949261376
   91      H       1.2967816555    -9.6880315772    -0.0061064187
   92      H       0.4289600049    -8.7906050612    -1.1659388338
   93      H      -0.4977573158    -9.5821414515     0.0966708249
   94      O      -0.6593323162    -6.5878568434    -0.6466825265
   95      C       0.1391437035    -6.6249001768     0.2743760154
   96      C       0.5731186651    -5.4207868365     1.0627729943
   97      H       0.5114808294    -5.6991481701     2.1223190033
   98      H      -0.1958923609    -4.6843043791     0.7991205112
   99      C       1.9249595172    -4.7961843573     0.6964356449
  100      H       2.7181395319    -5.5538571594     0.6615302120
  101      H       1.8400096441    -4.3444675494    -0.2999445258
  102      C       2.1723098047    -3.6768405042     1.7477021068
  103      H       1.5678001672    -2.7964172878     1.4976639934
  104      H       1.7506494451    -4.0061908904     2.7052682216
  105      C       3.6384423994    -3.1922617494     1.8404363794
  106      C       4.5316293082    -4.1844067294     2.6066572904
  107      C       4.6140510353    -4.0327099985     3.9854334726
  108      H       4.1222187924    -3.1419149228     4.3636637965
  109      C       5.3878271651    -4.8424536588     4.7931733476
  110      H       5.4009481376    -4.6520732593     5.8627845590
  111      C       6.0171151934    -5.9387591094     4.2138798673
  112      H       6.5919054958    -6.6459419018     4.8047720794
  113      C       5.8415800520    -6.1730850377     2.8261422215
  114      H       6.4324413152    -6.9624967680     2.3702287563
  115      C       5.1810706041    -5.2620654560     1.9994327254
  116      H       5.1825168155    -5.2851677677     0.9137020076
  117      C       7.5068410761     0.6619111757     2.3980435361
  118      C       8.3930866660    -0.8632939433     0.7187555621
  119      C       8.0180459516     1.9665096327    -2.8023296660
  120      C       2.9185702437     2.3014348046     1.0394530757
  121      C       5.0625917842     0.4872318610    -3.9044975019
  122      C       7.6348178496    -0.6192801131     1.8933774812
  123      C       2.9207257906     2.4030415454    -1.7185109240
  124      C       8.7535026986     2.3695444104    -0.5388967995
  125      C       5.5405317725    -2.5814139808    -1.3359305736
  126      C       2.3449700936     1.2227158255     0.3007960294
  127      C       4.1853373815    -2.5018590463     0.6552861838
  128      C       4.2209133924    -2.0954235537    -1.6875278374
  129      C       2.4622255279    -0.0109909018    -1.5793496761
  130      C       3.5952352394     2.2013788927    -2.8991946996
  131      C       6.6698820277    -2.2568604245     0.7475172876
  132      C       5.9408329746     2.6916394416    -3.4212577787
  133      C       3.9870511812    -1.7228680736     1.9693244813
  134      C       3.1553235793    -0.4715584079     1.9109951010
  135      C       6.1617102716     1.3873135398    -3.9823532799
  136      C       5.8667725736     4.1553467551     0.3703166907
  137      C       7.0556811023     3.8332490448    -1.5296695133
  138      C       7.8370313336     3.4827278497    -0.4497011304
  139      C       8.8676051517     1.5068278830     0.5582571658
  140      C       3.8540515277     0.5932406966     2.5176549079
  141      C       5.5411768494    -2.7030966258     0.0566404004
  142      C       9.0464180469     0.1857377299     0.0160175915
  143      C       2.3070882222     1.2844222750    -1.0744753176
  144      C       7.7809640346    -1.8436759743    -0.0046744327
  145      C       4.1127918637    -1.2705171912    -2.8510415795
  146      C       4.8144921047     2.8378155332     2.1335303176
  147      C       8.7877359934     1.5581461508    -1.6746925320
  148      C       3.4113511588    -1.9471343745    -0.5310105184
  149      C       7.3028868980     2.8276627207     1.8287791523
  150      C       3.3040981687    -0.2179473043    -2.6786114757
  151      C       6.6633706012    -2.2775208823    -2.0993995969
  152      C       4.6568583372     3.8470369671    -1.7091833970
  153      C       3.4573895392     3.4761269989    -1.0331076629
  154      C       6.4808798120    -1.3745853158    -3.1651296164
  155      C       3.7321517976     1.9455086069     2.1208099072
  156      C       2.4541215002    -0.0923355091     0.7286475898
  157      C       4.6596162332     3.7692719878     1.1081980116
  158      C       5.2825122599    -1.1782126741     2.4752415589
  159      C       8.4777577530    -0.7827908164    -2.1289849552
  160      C       2.5318722994    -0.8545005796    -0.4658620244
  161      C       5.2512589642    -0.8701488822    -3.5261177814
  162      C       6.0751962209     2.3625036001     2.4466687815
  163      C       7.4127234554     0.8886479603    -3.5783759860
  164      C       8.1307765831     1.7039761951     1.6793259431
  165      C       7.1226815105     3.0889743720    -2.7550070817
  166      C       7.8568375243    -1.8805529176    -1.4486045919
  167      C       7.6269503447    -0.4910881061    -3.2472820010
  168      C       6.5871935903    -1.5460090884     1.9404393304
  169      C       5.1501389930     0.1727359589     2.8767301756
  170      C       5.7826117640     4.1983835374    -1.0310832499
  171      C       9.1217238048     0.2659848309    -1.3758008039
  172      C       3.8123439928     0.8767719285    -3.3926996941
  173      C       3.4579897431     3.4196566591     0.3946961543
  174      C       4.6779860022     3.1065566774    -2.8955941869
  175      C       6.2825614259     1.0492766489     2.8149575898
  176      C       7.1229106154     3.6762634326     0.7200328471
 ----------------------------------------------------------------

    9   -5804.2505757839      8.17E-06 Convergence criterion met
 Total energy in the final basis set = -5804.2505757839

                    Orbital Energies (a.u.)
 --------------------------------------------------------------

 Alpha MOs
 -- Occupied --
-19.204 -19.200 -19.140 -19.137 -10.320 -10.318 -10.253 -10.248
-10.246 -10.246 -10.242 -10.237 -10.235 -10.235 -10.234 -10.233
-10.229 -10.227 -10.227 -10.226 -10.224 -10.223 -10.222 -10.222
-10.222 -10.221 -10.221 -10.221 -10.221 -10.220 -10.220 -10.220
-10.220 -10.220 -10.220 -10.219 -10.219 -10.219 -10.219 -10.219
-10.219 -10.218 -10.218 -10.217 -10.217 -10.216 -10.216 -10.216
-10.216 -10.215 -10.215 -10.214 -10.214 -10.214 -10.214 -10.214
-10.214 -10.213 -10.213 -10.213 -10.213 -10.213 -10.213 -10.213
-10.213 -10.213 -10.213 -10.213 -10.212 -10.212 -10.212 -10.212
-10.212 -10.212 -10.212 -10.212 -10.211 -10.211 -10.211 -10.211
-10.211 -10.211 -10.211 -10.211 -10.211 -10.211 -10.210 -10.210
-10.210 -10.210 -10.210 -10.210 -10.210 -10.210 -10.210 -10.209
-10.209 -10.209 -10.209 -10.209 -10.209 -10.209 -10.209 -10.208
-10.208 -10.208 -10.208 -10.208 -10.208 -10.207 -10.207 -10.207
-10.207 -10.207 -10.207 -10.207 -10.206 -10.206 -10.206 -10.206
-10.206 -10.205 -10.205 -10.205 -10.205 -10.204 -10.204 -10.204
-10.204 -10.204 -10.203 -10.203 -10.203 -10.202 -10.202 -10.202
-10.201 -10.201 -10.201 -10.200 -10.200 -10.197 -10.197 -10.195
-10.195 -10.194 -10.192 -10.192  -1.105  -1.094  -1.019  -1.007
 -0.986  -0.981  -0.968  -0.966  -0.964  -0.962  -0.962  -0.957
 -0.936  -0.935  -0.930  -0.929  -0.926  -0.926  -0.925  -0.921
 -0.920  -0.916  -0.902  -0.898  -0.891  -0.889  -0.886  -0.881
 -0.877  -0.874  -0.857  -0.851  -0.840  -0.840  -0.838  -0.837
 -0.837  -0.833  -0.826  -0.822  -0.813  -0.811  -0.799  -0.798
 -0.796  -0.793  -0.793  -0.793  -0.792  -0.790  -0.783  -0.782
 -0.770  -0.769  -0.769  -0.766  -0.765  -0.764  -0.763  -0.762
 -0.755  -0.748  -0.746  -0.744  -0.734  -0.734  -0.716  -0.715
 -0.714  -0.713  -0.712  -0.711  -0.710  -0.710  -0.708  -0.708
 -0.707  -0.706  -0.706  -0.706  -0.703  -0.703  -0.672  -0.671
 -0.658  -0.657  -0.656  -0.654  -0.648  -0.647  -0.634  -0.632
 -0.627  -0.627  -0.623  -0.623  -0.623  -0.621  -0.616  -0.616
 -0.615  -0.615  -0.614  -0.611  -0.611  -0.608  -0.607  -0.607
 -0.607  -0.606  -0.604  -0.601  -0.573  -0.570  -0.565  -0.564
 -0.562  -0.561  -0.558  -0.557  -0.556  -0.555  -0.553  -0.553
 -0.537  -0.535  -0.535  -0.532  -0.527  -0.525  -0.525  -0.524
 -0.522  -0.522  -0.519  -0.518  -0.516  -0.515  -0.514  -0.513
 -0.510  -0.508  -0.504  -0.500  -0.493  -0.493  -0.488  -0.487
 -0.485  -0.484  -0.483  -0.479  -0.479  -0.477  -0.476  -0.476
 -0.472  -0.471  -0.470  -0.470  -0.468  -0.467  -0.466  -0.466
 -0.465  -0.464  -0.464  -0.463  -0.461  -0.460  -0.459  -0.458
 -0.457  -0.455  -0.453  -0.453  -0.448  -0.448  -0.443  -0.443
 -0.442  -0.440  -0.438  -0.437  -0.435  -0.435  -0.434  -0.433
 -0.431  -0.431  -0.428  -0.427  -0.427  -0.427  -0.426  -0.424
 -0.424  -0.422  -0.420  -0.420  -0.418  -0.418  -0.418  -0.417
 -0.416  -0.416  -0.415  -0.415  -0.414  -0.414  -0.413  -0.412
 -0.411  -0.410  -0.408  -0.408  -0.400  -0.400  -0.399  -0.398
 -0.394  -0.393  -0.393  -0.392  -0.389  -0.387  -0.386  -0.385
 -0.385  -0.374  -0.374  -0.373  -0.370  -0.369  -0.366  -0.366
 -0.365  -0.363  -0.363  -0.362  -0.362  -0.361  -0.360  -0.358
 -0.356  -0.356  -0.355  -0.355  -0.353  -0.353  -0.352  -0.352
 -0.350  -0.350  -0.349  -0.348  -0.347  -0.347  -0.345  -0.344
 -0.343  -0.342  -0.342  -0.339  -0.339  -0.338  -0.334  -0.332
 -0.330  -0.330  -0.329  -0.328  -0.327  -0.326  -0.325  -0.323
 -0.321  -0.309  -0.306  -0.303  -0.286  -0.285  -0.273  -0.271
 -0.270  -0.268  -0.267  -0.266  -0.266  -0.264  -0.264  -0.262
 -0.261  -0.261  -0.260  -0.258  -0.256  -0.255  -0.254  -0.252
 -0.251  -0.249  -0.247  -0.243  -0.221  -0.219  -0.211  -0.211
 -0.208  -0.206  -0.204  -0.202  -0.199  -0.196

          Ground-State Mulliken Net Atomic Charges

     Atom                 Charge (a.u.)
  ----------------------------------------
      1 O                    -0.450146
      2 C                    -0.094615
      3 H                     0.123512
      4 H                     0.123735
      5 H                     0.130416
      6 O                    -0.469758
      7 C                     0.606277
      8 C                    -0.247727
      9 H                     0.131245
     10 H                     0.118194
     11 C                    -0.200959
     12 H                     0.104962
     13 H                     0.123179
     14 C                    -0.161348
     15 H                     0.116022
     16 H                     0.106780
     17 C                     0.003226
     18 C                     0.117621
     19 C                    -0.097047
     20 H                     0.095112
     21 C                    -0.103459
     22 H                     0.094925
     23 C                    -0.089479
     24 H                     0.094355
     25 C                    -0.105849
     26 H                     0.122364
     27 C                    -0.107789
     28 H                     0.097629
     29 C                     0.003775
     30 C                    -0.031166
     31 C                     0.014565
     32 C                    -0.033339
     33 C                    -0.008310
     34 C                    -0.010484
     35 C                    -0.005161
     36 C                     0.004761
     37 C                     0.031165
     38 C                     0.002705
     39 C                    -0.114854
     40 C                    -0.040624
     41 C                    -0.001450
     42 C                     0.016305
     43 C                    -0.004625
     44 C                    -0.018987
     45 C                    -0.098759
     46 C                     0.043137
     47 C                     0.012196
     48 C                     0.013689
     49 C                     0.006028
     50 C                    -0.007073
     51 C                     0.016226
     52 C                     0.024895
     53 C                     0.077901
     54 C                    -0.016666
     55 C                    -0.000332
     56 C                     0.025543
     57 C                     0.001452
     58 C                     0.012573
     59 C                     0.003679
     60 C                     0.030613
     61 C                    -0.026918
     62 C                    -0.001870
     63 C                    -0.002953
     64 C                     0.004032
     65 C                     0.013960
     66 C                     0.004334
     67 C                    -0.013717
     68 C                    -0.028081
     69 C                     0.032253
     70 C                     0.022000
     71 C                     0.000625
     72 C                     0.014486
     73 C                    -0.014113
     74 C                     0.006044
     75 C                     0.000729
     76 C                    -0.011205
     77 C                     0.004032
     78 C                    -0.016004
     79 C                     0.003233
     80 C                    -0.002657
     81 C                    -0.031754
     82 C                    -0.015711
     83 C                    -0.003414
     84 C                    -0.018199
     85 C                    -0.036247
     86 C                    -0.009875
     87 C                     0.004515
     88 C                    -0.014217
     89 O                    -0.463986
     90 C                    -0.100090
     91 H                     0.126706
     92 H                     0.139626
     93 H                     0.138806
     94 O                    -0.480379
     95 C                     0.578140
     96 C                    -0.247519
     97 H                     0.126790
     98 H                     0.136744
     99 C                    -0.187455
    100 H                     0.121907
    101 H                     0.123954
    102 C                    -0.179105
    103 H                     0.114608
    104 H                     0.112544
    105 C                     0.000288
    106 C                     0.096369
    107 C                    -0.100751
    108 H                     0.086591
    109 C                    -0.081962
    110 H                     0.094426
    111 C                    -0.086685
    112 H                     0.093862
    113 C                    -0.104467
    114 H                     0.089969
    115 C                    -0.103109
    116 H                     0.095047
    117 C                    -0.016173
    118 C                     0.003791
    119 C                    -0.013280
    120 C                    -0.000415
    121 C                     0.000624
    122 C                    -0.015203
    123 C                     0.031350
    124 C                    -0.020118
    125 C                     0.026368
    126 C                     0.010287
    127 C                    -0.085480
    128 C                    -0.020304
    129 C                    -0.000507
    130 C                    -0.023107
    131 C                     0.009312
    132 C                     0.004547
    133 C                    -0.083038
    134 C                     0.014615
    135 C                    -0.018346
    136 C                    -0.003369
    137 C                    -0.020553
    138 C                     0.013098
    139 C                     0.006824
    140 C                     0.008153
    141 C                     0.002646
    142 C                    -0.016223
    143 C                    -0.001274
    144 C                     0.011680
    145 C                    -0.036584
    146 C                     0.018461
    147 C                     0.039028
    148 C                     0.052121
    149 C                    -0.046586
    150 C                     0.041689
    151 C                    -0.014875
    152 C                     0.024948
    153 C                    -0.022271
    154 C                     0.001676
    155 C                    -0.006717
    156 C                     0.012209
    157 C                    -0.028876
    158 C                     0.031603
    159 C                    -0.011314
    160 C                    -0.038683
    161 C                     0.018622
    162 C                     0.001950
    163 C                     0.000740
    164 C                     0.025223
    165 C                    -0.009128
    166 C                    -0.007800
    167 C                    -0.008594
    168 C                     0.000485
    169 C                    -0.008917
    170 C                     0.007200
    171 C                    -0.006625
    172 C                    -0.006048
    173 C                    -0.019647
    174 C                    -0.004625
    175 C                     0.038167
    176 C                     0.022325
  ----------------------------------------
  Sum of atomic charges =     0.000000

                    Cartesian Multipole Moments
 -----------------------------------------------------------------
    Charge (ESU x 10^10)
                 0.0000
    Dipole Moment (Debye)
         X      -0.6125      Y      -4.3805      Z       0.8301
       Tot       4.5003
    Quadrupole Moments (Debye-Ang)
        XX    -798.1963     XY     -18.7270     YY    -794.8189
        XZ      18.6628     YZ      -8.6798     ZZ    -797.3355

 Total job time:  851.31s(wall), 8138.95s(cpu)
        *  Thank you very much for using Q-Chem.  Have a nice day.  *
