 Q-Chem 4.4, Q-Chem, Inc., Pleasanton, CA (2016)
 Q-Chem 4.4.2 for Intel X86 Linux

User input:
--------------------------------------------------------------
$comment
SP
$end

$rem
MEM_STATIC 5000
MEM_TOTAL 20000
JOBTYPE SP
EXCHANGE B3LYP
BASIS 6-31g(d,p)
$end

$molecule
0 1
O         -18.260000     -4.137000     10.603000
C         -19.583000     -3.540000     10.525000
H         -19.945000     -3.267000     11.524000
H         -20.359000     -4.195000     10.110000
H         -19.447000     -2.602000      9.972000
O         -18.905000     -6.191000     11.278000
C         -18.015000     -5.422000     11.003000
C         -16.597000     -5.872000     10.981000
H         -16.469000     -6.604000     11.788000
H         -15.900000     -5.046000     11.171000
C         -16.164000     -6.467000      9.610000
H         -16.374000     -5.719000      8.836000
H         -15.090000     -6.643000      9.469000
C         -16.874000     -7.815000      9.509000
H         -16.440000     -8.450000     10.292000
H         -17.920000     -7.721000      9.827000
C         -16.902000     -8.414000      8.125000
C         -17.773000     -7.574000      7.241000
C         -17.139000     -6.541000      6.475000
H         -16.060000     -6.423000      6.475000
C         -17.977000     -5.552000      5.914000
H         -17.613000     -4.710000      5.334000
C         -19.398000     -5.682000      5.899000
H         -19.973000     -4.885000      5.435000
C         -20.005000     -6.749000      6.491000
H         -21.091000     -6.740000      6.488000
C         -19.218000     -7.675000      7.242000
H         -19.549000     -8.582000      7.741000
C         -17.186000    -13.210000      5.509000
C         -15.767000    -11.828000      4.103000
C         -11.946000    -13.902000      4.923000
C         -15.441000    -13.287000     10.235000
C         -10.857000    -11.519000      7.327000
C         -16.818000    -11.983000      5.048000
C         -12.649000    -13.078000      9.999000
C         -14.104000    -14.845000      4.504000
C         -13.753000     -8.969000      6.228000
C         -14.789000    -12.083000     10.380000
C         -15.661000     -9.065000      7.688000
C         -13.290000     -9.074000      7.524000
C         -13.077000    -10.696000      9.771000
C         -11.553000    -12.931000      9.210000
C         -15.841000     -9.956000      5.325000
C         -11.209000    -13.960000      7.048000
C         -16.830000     -9.903000      8.131000
C         -16.558000    -10.862000      9.272000
C         -10.815000    -12.691000      6.499000
C         -14.610000    -15.831000      7.907000
C         -12.883000    -15.600000      6.475000
C         -14.007000    -15.611000      5.732000
C         -15.333000    -14.218000      4.209000
C         -17.133000    -12.123000      8.886000
C         -15.151000     -9.149000      6.267000
C         -14.981000    -12.957000      3.748000
C         -13.403000    -11.964000     10.267000
C         -15.172000    -10.577000      4.276000
C         -12.077000     -9.732000      7.819000
C         -16.555000    -14.491000      8.607000
C         -13.082000    -13.998000      4.141000
C         -14.399000     -9.157000      8.436000
C         -16.315000    -15.093000      6.219000
C         -11.976000    -10.546000      8.950000
C         -13.075000     -9.734000      5.167000
C         -12.557000    -14.988000      8.789000
C         -13.292000    -14.357000      9.829000
C         -11.838000    -10.371000      5.427000
C         -16.558000    -13.338000      9.371000
C         -15.343000    -10.900000      9.895000
C         -15.351000    -15.170000      8.922000
C         -17.357000    -10.792000      7.118000
C         -12.921000    -11.579000      3.909000
C         -14.306000    -10.065000      9.487000
C         -11.348000    -10.382000      6.762000
C         -17.039000    -14.461000      7.287000
C         -11.287000    -12.665000      5.181000
C         -16.447000    -14.308000      5.083000
C         -11.920000    -14.668000      6.092000
C         -13.777000    -10.476000      4.191000
C         -11.771000    -11.521000      4.646000
C         -16.867000    -10.812000      5.849000
C         -17.647000    -12.126000      7.598000
C         -13.210000    -15.708000      7.813000
C         -13.591000    -12.807000      3.660000
C         -11.265000    -11.670000      8.655000
C         -14.683000    -14.436000      9.940000
C         -11.575000    -14.018000      8.381000
C         -17.619000    -13.300000      6.796000
C         -15.120000    -15.798000      6.567000
O           1.587000     -7.289000      0.526000
C           1.741000     -7.065000     -0.958000
H           1.716000     -5.980000     -1.116000
H           0.808000     -7.386000     -1.436000
H           2.555000     -7.516000     -1.539000
O           0.711000     -9.333000      0.147000
C           1.080000     -8.473000      0.929000
C           0.954000     -8.582000      2.423000
H           1.925000     -8.291000      2.843000
H           0.766000     -9.654000      2.560000
C          -0.217000     -7.842000      3.081000
H          -0.261000     -6.795000      2.755000
H          -1.151000     -8.333000      2.780000
C          -0.018000     -8.014000      4.614000
H          -0.334000     -9.020000      4.916000
H           1.059000     -8.017000      4.822000
C          -0.823000     -7.020000      5.484000
C          -0.188000     -5.618000      5.504000
C           0.772000     -5.368000      6.477000
H           0.886000     -6.167000      7.203000
C           1.411000     -4.152000      6.618000
H           2.146000     -4.038000      7.410000
C           1.172000     -3.170000      5.663000
H           1.687000     -2.214000      5.685000
C           0.284000     -3.457000      4.595000
H           0.020000     -2.642000      3.927000
C          -0.466000     -4.634000      4.552000
H          -1.295000     -4.825000      3.877000
C          -3.860000     -5.665000      9.851000
C          -4.872000     -4.454000      7.996000
C          -8.692000     -6.887000      7.810000
C          -3.581000    -10.602000      8.786000
C          -7.551000     -8.804000      5.134000
C          -3.733000     -4.993000      8.649000
C          -5.758000    -11.171000      7.188000
C          -7.455000     -6.054000      9.708000
C          -4.406000     -6.341000      4.600000
C          -3.410000    -10.665000      7.370000
C          -2.294000     -7.141000      5.441000
C          -4.302000     -7.761000      4.328000
C          -4.362000    -10.285000      5.365000
C          -6.883000    -10.725000      6.536000
C          -3.450000     -5.172000      6.455000
C          -8.561000     -9.114000      7.313000
C          -1.539000     -7.461000      6.745000
C          -1.771000     -8.812000      7.363000
C          -8.509000     -8.363000      6.089000
C          -6.255000     -9.217000     10.659000
C          -8.113000     -8.414000      9.644000
C          -7.473000     -7.377000     10.288000
C          -6.272000     -5.308000      9.779000
C          -2.094000     -8.662000      8.728000
C          -3.276000     -6.016000      5.356000
C          -6.179000     -4.580000      8.541000
C          -4.483000    -10.987000      6.569000
C          -4.716000     -4.597000      6.649000
C          -5.522000     -8.495000      4.191000
C          -3.829000     -9.087000     10.436000
C          -7.984000     -5.821000      8.437000
C          -3.111000     -8.297000      4.884000
C          -5.179000     -7.058000     11.024000
C          -5.497000     -9.681000      4.811000
C          -5.637000     -5.702000      4.711000
C          -7.179000    -10.461000      8.793000
C          -5.951000    -11.146000      8.556000
C          -6.783000     -6.520000      4.667000
C          -2.952000     -9.535000      9.437000
C          -2.539000     -9.816000      6.703000
C          -4.969000     -9.889000     10.446000
C          -1.975000     -6.563000      7.856000
C          -7.146000     -4.960000      6.354000
C          -3.155000     -9.583000      5.446000
C          -6.735000     -7.876000      4.431000
C          -3.941000     -7.729000     10.674000
C          -8.536000     -6.984000      6.362000
C          -5.163000     -5.815000     10.372000
C          -8.756000     -8.205000      8.378000
C          -5.849000     -4.786000      5.770000
C          -7.758000     -6.032000      5.622000
C          -2.810000     -5.383000      7.672000
C          -2.211000     -7.294000      9.045000
C          -7.319000     -9.573000      9.814000
C          -7.324000     -4.820000      7.779000
C          -6.768000     -9.954000      5.337000
C          -4.823000    -10.848000      9.381000
C          -7.773000    -10.285000      7.539000
C          -3.161000     -6.810000     10.003000
C          -6.335000     -7.854000     10.915000
$end

--------------------------------------------------------------

             Standard Nuclear Orientation (Angstroms)
    I     Atom           X                Y                Z
 ----------------------------------------------------------------
    1      O       7.5198317569     7.6415126204     0.5973919903
    2      C       8.6240387392     8.3855581023     1.1804402396
    3      H       9.0344486129     9.1011911575     0.4572479652
    4      H       9.4788717407     7.7718501426     1.4903580995
    5      H       8.1806190738     8.9767054509     1.9916571111
    6      O       8.7517318689     6.1928975697    -0.6168989753
    7      C       7.6665003052     6.6081087747    -0.2868109438
    8      C       6.4204565583     5.9378782463    -0.7471086948
    9      H       6.5924172028     5.5861937106    -1.7719035641
   10      H       5.5675993396     6.6278877719    -0.7736872399
   11      C       5.9745387658     4.7700129548     0.1793917008
   12      H       5.8814283906     5.1643461318     1.1984656939
   13      H       4.9721178988     4.3595944449     0.0032041528
   14      C       6.9849209400     3.6508936100    -0.0616575769
   15      H       6.8358905117     3.3206369218    -1.0977031605
   16      H       8.0050868091     4.0545505682    -0.0816240406
   17      C       6.9797572777     2.5581238745     0.9779907491
   18      C       7.4814799537     3.1106231820     2.2774967597
   19      C       6.5084752049     3.6097877914     3.2048033173
   20      H       5.4450793191     3.5189917766     3.0070401418
   21      C       6.9837103144     4.4207446167     4.2591213994
   22      H       6.3428393690     4.8734304460     5.0089346904
   23      C       8.3756759942     4.5569884845     4.5423795057
   24      H       8.6609960909     5.1874114392     5.3804065580
   25      C       9.3082644360     3.9518810157     3.7540104617
   26      H      10.3455584670     4.1564934242     4.0022862268
   27      C       8.8911659585     3.2837032142     2.5621995348
   28      H       9.5062035405     2.7339330660     1.8546032114
   29      C       8.1261159351    -2.7471029321     1.6607486557
   30      C       6.2268553204    -2.3378516329     3.1187073286
   31      C       3.2064258499    -4.5588593408     0.7696548440
   32      C       7.1057867985    -1.2170773481    -3.0300913719
   33      C       1.8765506040    -1.6476206230    -0.7795213752
   34      C       7.3990706852    -1.9020233522     2.4422342336
   35      C       4.3472292131    -1.6340266469    -3.3634895279
   36      C       5.4576601843    -5.1804903836     1.2866585367
   37      C       3.8524575712     0.7181517860     1.7887522795
   38      C       6.1935653738    -0.1985361878    -2.8683169077
   39      C       5.8990831131     1.5717675146     0.8592663575
   40      C       3.6089280980     1.0654164823     0.4753176118
   41      C       4.1188711100     0.4850841755    -2.1945952217
   42      C       3.1547933163    -2.0219450593    -2.8410319342
   43      C       5.9832523819    -0.1519399598     2.7117776467
   44      C       2.7992144580    -3.8831661022    -1.3374226414
   45      C       7.2915346134     1.2136957535     0.4143872356
   46      C       7.4281174525     0.7679198178    -1.0272004111
   47      C       2.0248029418    -3.0408914762    -0.4668720927
   48      C       6.6482326278    -4.5913496041    -2.0366066346
   49      C       4.7442320377    -5.2797235541    -1.0429079589
   50      C       5.7242018641    -5.3862352863    -0.1242892185
   51      C       6.4352173370    -4.5147017819     2.0558805795
   52      C       8.2489624296    -0.4134453191    -1.0089812714
   53      C       5.2423664087     0.8273217794     1.9998454724
   54      C       5.7148189687    -3.6362534979     2.8533144659
   55      C       4.8208308636    -0.3901737089    -3.0320270935
   56      C       5.3609658129    -1.2554745967     3.2849911596
   57      C       2.6546029019     0.3747737868    -0.3016213093
   58      C       8.2623999092    -2.7529610531    -1.7477874466
   59      C       4.2143675201    -4.7551409362     1.6952698421
   60      C       4.8139083797     1.5629157264    -0.1321616248
   61      C       7.8672844783    -4.3044251999     0.1388473346
   62      C       2.9166083903     0.0859638652    -1.6432248100
   63      C       3.2566921675    -0.5208746640     2.3183814329
   64      C       4.5848930657    -3.8523872138    -2.9852617022
   65      C       5.2666301264    -2.7315264255    -3.5319715642
   66      C       2.2693516923    -1.2112727832     1.5753826287
   67      C       8.0731014009    -1.4097684644    -2.0181829800
   68      C       6.3574810386     0.7652991921    -1.8754508467
   69      C       7.3247224192    -3.4526636261    -2.5484491942
   70      C       7.8877677473     0.1025041684     1.1243015340
   71      C       3.4119878294    -2.7117708865     2.7498463788
   72      C       5.0968765502     1.1589171027    -1.4338636362
   73      C       1.9811894632    -0.7689082013     0.2548819258
   74      C       8.5419714421    -3.1733155959    -0.4352716119
   75      C       2.2941705552    -3.4662030763     0.8397017214
   76      C       7.6416974683    -4.0379742076     1.4813298744
   77      C       3.5330808915    -4.7756039324    -0.5721019394
   78      C       3.9879444198    -1.4535180612     3.0874005725
   79      C       2.3943259995    -2.5703278407     1.8479643108
   80      C       7.2541714435    -0.5193241598     2.1551973843
   81      C       8.5699562972    -0.8449173652     0.2692768443
   82      C       5.2636078188    -4.7742476460    -2.2191646930
   83      C       4.3336825418    -3.7907121391     2.6773920448
   84      C       2.4831310719    -1.1699665219    -1.9443199397
   85      C       6.6336795349    -2.5039601191    -3.3507741831
   86      C       3.3425125483    -3.3278291793    -2.4822532347
   87      C       8.7355977909    -2.2268851101     0.5608108006
   88      C       6.9492664511    -5.0123937824    -0.6991129198
   89      O     -12.0277438784    -2.8831440130     4.1341039565
   90      C     -12.4305432846    -3.3124249502     5.5232110493
   91      H     -12.7045444515    -2.4000811294     6.0666870038
   92      H     -11.5189962750    -3.6239181627     6.0467261187
   93      H     -13.1725678643    -4.1002783875     5.7027785422
   94      O     -10.7179298006    -4.7082168491     3.9280718613
   95      C     -11.1863042506    -3.6879178471     3.4517313099
   96      C     -10.8383260642    -3.1566705190     2.0892040778
   97      H     -11.7863536825    -2.9024930713     1.5987354651
   98      H     -10.3664700476    -4.0270983086     1.6169707004
   99      C      -9.8178834203    -2.0137078968     2.0248748092
  100      H     -10.0864278661    -1.2000795008     2.7106690306
  101      H      -8.8383663689    -2.4055062872     2.3266667363
  102      C      -9.7598537276    -1.5822588358     0.5316372988
  103      H      -9.1602271159    -2.3033377134    -0.0372116959
  104      H     -10.7626848838    -1.6967138982     0.1021821662
  105      C      -9.1264048169    -0.1924473303     0.2864282930
  106      C     -10.0895592764     0.9558476921     0.6371148034
  107      C     -10.9427455736     1.3995891068    -0.3658785660
  108      H     -10.7510991623     0.9575877815    -1.3386989407
  109      C     -11.8461137584     2.4296241528    -0.1932178383
  110      H     -12.4733014247     2.7191094477    -1.0318589387
  111      C     -11.9953292094     2.9654304405     1.0811904052
  112      H     -12.7295013280     3.7368914211     1.2944607865
  113      C     -11.2143378786     2.4369050226     2.1405536215
  114      H     -11.2586764504     2.9440777327     3.1002175904
  115      C     -10.2015366819     1.5017643405     1.9182393382
  116      H      -9.4490606057     1.2078783269     2.6440201355
  117      C      -5.9806476661     3.3455006493    -2.4915600155
  118      C      -5.5682255070     3.8621762311    -0.1474942515
  119      C      -1.3141075969     2.3030605439    -0.0128685443
  120      C      -5.1303444022    -1.5594955769    -3.3882379849
  121      C      -2.2749815316    -0.7071805929     1.4544131532
  122      C      -6.4342429345     3.4367996887    -1.1883206599
  123      C      -3.1137831610    -2.3208408356    -1.6647159636
  124      C      -2.4577922399     3.5937340479    -1.7018354899
  125      C      -5.9864974964     0.7097110944     2.1323638811
  126      C      -5.4671135902    -2.2213689041    -2.1689036531
  127      C      -7.6925928458    -0.0503927756     0.6094371706
  128      C      -5.7600934578    -0.6914900351     1.8381248524
  129      C      -4.9201462512    -2.5208128413    -0.0051363230
  130      C      -2.2373096641    -1.9809115903    -0.6617766248
  131      C      -6.9525610258     2.3350836151     0.6673016210
  132      C      -0.9376954394     0.0828285265    -0.4034868706
  133      C      -8.1598249635     0.0543583986    -0.8546537896
  134      C      -7.5104134655    -0.8628827147    -1.8535944517
  135      C      -1.3425631824     0.2496258695     0.9651408205
  136      C      -2.6729046095     0.9277023957    -3.9810835892
  137      C      -1.2340493273     1.5736674657    -2.3563920477
  138      C      -2.0255332669     2.6471907045    -2.7039636650
  139      C      -3.7715383208     4.0753169788    -1.7583608434
  140      C      -7.0570927121    -0.1160848404    -2.9612258116
  141      C      -7.0505958181     1.1016636347     1.3149723177
  142      C      -4.2116700309     4.2083679216    -0.3945945421
  143      C      -4.4643750655    -2.6392654190    -1.3224451756
  144      C      -5.8610037216     3.1593607169     0.9836667760
  145      C      -4.4227902065    -1.1823545102     1.9669545118
  146      C      -5.0590747513     0.5119134847    -4.2733448352
  147      C      -2.1803803055     3.3832820076    -0.3496803371
  148      C      -6.6896264364    -1.1629901995     0.8745019818
  149      C      -4.2054579255     2.8136853960    -3.7651427264
  150      C      -4.0613242690    -1.9977894695     0.9689418850
  151      C      -4.9558708937     1.5512783645     2.5392746031
  152      C      -1.7198176658    -0.7751390650    -2.5405197283
  153      C      -2.7526599029    -1.7084669694    -2.8495730184
  154      C      -3.6555806280     1.0094152220     2.5369167066
  155      C      -5.9180142533    -0.4542580446    -3.7287628782
  156      C      -6.6069090212    -1.8900263557    -1.4509833991
  157      C      -3.7614017719     0.0051908097    -4.3200456832
  158      C      -7.8230658648     1.3887269249    -1.4350630810
  159      C      -3.4807241171     3.1570810824     1.6603925753
  160      C      -6.2443133689    -2.0789570155    -0.0920781048
  161      C      -3.3870716453    -0.3096599939     2.2459192823
  162      C      -5.2665383637     1.8452461406    -3.9691493743
  163      C      -1.6321101833     1.6004852383     1.2263696471
  164      C      -4.6250038970     3.6597323369    -2.7265885623
  165      C      -0.8406756577     1.3645058064    -0.9920627046
  166      C      -4.8451586333     2.8398881181     1.9624655373
  167      C      -2.7188747778     2.0114170546     2.0685488196
  168      C      -7.3490947972     2.5231266846    -0.6527782146
  169      C      -7.2517702754     1.2591565504    -2.7237099945
  170      C      -1.6759851551     0.4598663849    -3.1092246164
  171      C      -3.1556965894     3.8928510000     0.4625158143
  172      C      -2.7042730527    -1.7975327330     0.6774710701
  173      C      -3.7987397144    -1.3123500251    -3.7387419531
  174      C      -1.3633455258    -1.0179162393    -1.2099879335
  175      C      -6.3375840559     2.2542395231    -3.2018244508
  176      C      -2.9098846332     2.2669867708    -3.6984834636
 ----------------------------------------------------------------

    9   -5804.2669883121      8.09E-06 Convergence criterion met
 Total energy in the final basis set = -5804.2669883121

                    Orbital Energies (a.u.)
 --------------------------------------------------------------

 Alpha MOs
 -- Occupied --
-19.196 -19.189 -19.132 -19.130 -10.316 -10.312 -10.250 -10.249
-10.248 -10.246 -10.243 -10.235 -10.235 -10.234 -10.230 -10.230
-10.229 -10.228 -10.227 -10.225 -10.225 -10.225 -10.224 -10.223
-10.223 -10.223 -10.222 -10.222 -10.222 -10.221 -10.221 -10.221
-10.221 -10.221 -10.221 -10.220 -10.220 -10.220 -10.220 -10.220
-10.219 -10.219 -10.219 -10.218 -10.218 -10.218 -10.216 -10.216
-10.216 -10.216 -10.215 -10.215 -10.215 -10.215 -10.215 -10.215
-10.214 -10.214 -10.214 -10.214 -10.214 -10.214 -10.214 -10.214
-10.214 -10.214 -10.213 -10.213 -10.213 -10.213 -10.213 -10.213
-10.213 -10.212 -10.212 -10.212 -10.212 -10.212 -10.212 -10.212
-10.212 -10.212 -10.211 -10.211 -10.211 -10.211 -10.211 -10.211
-10.211 -10.210 -10.210 -10.210 -10.210 -10.210 -10.210 -10.210
-10.210 -10.210 -10.210 -10.210 -10.210 -10.210 -10.210 -10.210
-10.210 -10.209 -10.209 -10.209 -10.209 -10.209 -10.208 -10.208
-10.208 -10.208 -10.208 -10.208 -10.207 -10.207 -10.207 -10.207
-10.206 -10.206 -10.206 -10.206 -10.206 -10.205 -10.205 -10.204
-10.204 -10.204 -10.204 -10.204 -10.203 -10.203 -10.203 -10.203
-10.203 -10.202 -10.201 -10.201 -10.201 -10.201 -10.200 -10.200
-10.197 -10.196 -10.195 -10.188  -1.090  -1.089  -1.010  -1.001
 -0.983  -0.982  -0.968  -0.965  -0.964  -0.963  -0.959  -0.958
 -0.939  -0.935  -0.927  -0.927  -0.927  -0.924  -0.921  -0.921
 -0.918  -0.917  -0.899  -0.897  -0.891  -0.890  -0.884  -0.882
 -0.874  -0.872  -0.858  -0.849  -0.842  -0.841  -0.838  -0.838
 -0.836  -0.834  -0.822  -0.821  -0.810  -0.808  -0.799  -0.797
 -0.794  -0.793  -0.793  -0.792  -0.791  -0.790  -0.783  -0.783
 -0.770  -0.770  -0.768  -0.767  -0.766  -0.766  -0.763  -0.763
 -0.755  -0.746  -0.744  -0.740  -0.734  -0.733  -0.716  -0.716
 -0.714  -0.713  -0.711  -0.711  -0.711  -0.708  -0.707  -0.707
 -0.707  -0.705  -0.705  -0.704  -0.704  -0.703  -0.673  -0.672
 -0.659  -0.659  -0.658  -0.655  -0.647  -0.646  -0.635  -0.633
 -0.627  -0.625  -0.624  -0.624  -0.624  -0.619  -0.617  -0.616
 -0.615  -0.614  -0.614  -0.612  -0.612  -0.610  -0.609  -0.609
 -0.608  -0.606  -0.603  -0.602  -0.568  -0.566  -0.563  -0.562
 -0.559  -0.558  -0.558  -0.557  -0.557  -0.556  -0.554  -0.551
 -0.538  -0.536  -0.533  -0.531  -0.526  -0.526  -0.525  -0.524
 -0.523  -0.519  -0.518  -0.518  -0.517  -0.515  -0.514  -0.512
 -0.509  -0.505  -0.503  -0.498  -0.493  -0.491  -0.487  -0.485
 -0.483  -0.482  -0.481  -0.480  -0.479  -0.477  -0.475  -0.475
 -0.471  -0.469  -0.469  -0.469  -0.468  -0.467  -0.466  -0.464
 -0.464  -0.464  -0.462  -0.462  -0.461  -0.458  -0.458  -0.457
 -0.457  -0.454  -0.454  -0.452  -0.447  -0.447  -0.443  -0.443
 -0.442  -0.439  -0.439  -0.438  -0.436  -0.434  -0.434  -0.432
 -0.431  -0.429  -0.428  -0.426  -0.426  -0.426  -0.424  -0.422
 -0.422  -0.421  -0.420  -0.419  -0.418  -0.418  -0.418  -0.417
 -0.416  -0.415  -0.415  -0.414  -0.413  -0.413  -0.412  -0.411
 -0.411  -0.411  -0.410  -0.407  -0.399  -0.398  -0.396  -0.396
 -0.394  -0.392  -0.392  -0.391  -0.391  -0.388  -0.386  -0.385
 -0.383  -0.381  -0.374  -0.373  -0.370  -0.367  -0.366  -0.365
 -0.364  -0.363  -0.362  -0.361  -0.360  -0.359  -0.359  -0.357
 -0.356  -0.356  -0.355  -0.354  -0.353  -0.351  -0.351  -0.350
 -0.350  -0.349  -0.349  -0.348  -0.346  -0.345  -0.344  -0.343
 -0.343  -0.342  -0.341  -0.340  -0.340  -0.337  -0.334  -0.332
 -0.330  -0.330  -0.329  -0.328  -0.327  -0.325  -0.325  -0.322
 -0.321  -0.310  -0.301  -0.296  -0.286  -0.284  -0.272  -0.270
 -0.267  -0.267  -0.266  -0.266  -0.264  -0.263  -0.263  -0.262
 -0.262  -0.261  -0.260  -0.258  -0.257  -0.255  -0.254  -0.253
 -0.251  -0.249  -0.246  -0.244  -0.222  -0.217  -0.213  -0.210
 -0.208  -0.205  -0.204  -0.202  -0.200  -0.199

          Ground-State Mulliken Net Atomic Charges

     Atom                 Charge (a.u.)
  ----------------------------------------
      1 O                    -0.478875
      2 C                    -0.083054
      3 H                     0.124525
      4 H                     0.137434
      5 H                     0.127807
      6 O                    -0.460687
      7 C                     0.602707
      8 C                    -0.249484
      9 H                     0.133293
     10 H                     0.113943
     11 C                    -0.195623
     12 H                     0.119384
     13 H                     0.106680
     14 C                    -0.188084
     15 H                     0.104785
     16 H                     0.141932
     17 C                     0.011032
     18 C                     0.083034
     19 C                    -0.104686
     20 H                     0.096518
     21 C                    -0.096697
     22 H                     0.087756
     23 C                    -0.076084
     24 H                     0.089360
     25 C                    -0.088934
     26 H                     0.093918
     27 C                    -0.099791
     28 H                     0.097420
     29 C                     0.001563
     30 C                    -0.013335
     31 C                     0.001631
     32 C                    -0.020191
     33 C                     0.014780
     34 C                     0.005926
     35 C                    -0.005887
     36 C                     0.015362
     37 C                    -0.017342
     38 C                     0.005571
     39 C                    -0.072839
     40 C                     0.012150
     41 C                    -0.018666
     42 C                     0.012839
     43 C                    -0.009233
     44 C                    -0.006768
     45 C                    -0.100861
     46 C                     0.014258
     47 C                    -0.039894
     48 C                    -0.000760
     49 C                     0.009196
     50 C                     0.003694
     51 C                    -0.019435
     52 C                    -0.003563
     53 C                     0.022360
     54 C                     0.004707
     55 C                     0.009055
     56 C                    -0.009176
     57 C                    -0.013856
     58 C                     0.012626
     59 C                    -0.016806
     60 C                     0.024826
     61 C                    -0.000791
     62 C                    -0.006454
     63 C                    -0.013732
     64 C                    -0.011183
     65 C                     0.007348
     66 C                    -0.006915
     67 C                     0.001147
     68 C                     0.024600
     69 C                    -0.009760
     70 C                     0.020105
     71 C                    -0.001573
     72 C                     0.006779
     73 C                    -0.008751
     74 C                    -0.015730
     75 C                     0.017091
     76 C                     0.006185
     77 C                     0.008978
     78 C                     0.003149
     79 C                     0.011574
     80 C                     0.024849
     81 C                     0.000663
     82 C                     0.003846
     83 C                     0.003818
     84 C                     0.019095
     85 C                    -0.015666
     86 C                    -0.000657
     87 C                    -0.000099
     88 C                    -0.019709
     89 O                    -0.465859
     90 C                    -0.099280
     91 H                     0.124550
     92 H                     0.140133
     93 H                     0.137315
     94 O                    -0.475081
     95 C                     0.575571
     96 C                    -0.247546
     97 H                     0.125151
     98 H                     0.137776
     99 C                    -0.187220
    100 H                     0.121393
    101 H                     0.123615
    102 C                    -0.178951
    103 H                     0.112028
    104 H                     0.112703
    105 C                     0.001134
    106 C                     0.096475
    107 C                    -0.100189
    108 H                     0.085936
    109 C                    -0.082235
    110 H                     0.094202
    111 C                    -0.086414
    112 H                     0.093828
    113 C                    -0.104521
    114 H                     0.090052
    115 C                    -0.102915
    116 H                     0.095375
    117 C                    -0.015453
    118 C                     0.002533
    119 C                    -0.016321
    120 C                    -0.001179
    121 C                    -0.002577
    122 C                    -0.015359
    123 C                     0.030272
    124 C                    -0.020343
    125 C                     0.025680
    126 C                     0.006198
    127 C                    -0.086420
    128 C                    -0.019109
    129 C                    -0.000542
    130 C                    -0.023604
    131 C                     0.009257
    132 C                    -0.002947
    133 C                    -0.081846
    134 C                     0.015069
    135 C                    -0.010219
    136 C                    -0.004488
    137 C                    -0.021915
    138 C                     0.011605
    139 C                     0.006350
    140 C                     0.007541
    141 C                     0.003452
    142 C                    -0.015623
    143 C                    -0.004154
    144 C                     0.012487
    145 C                    -0.036225
    146 C                     0.019242
    147 C                     0.038894
    148 C                     0.053016
    149 C                    -0.047259
    150 C                     0.042267
    151 C                    -0.013665
    152 C                     0.023550
    153 C                    -0.021694
    154 C                     0.002895
    155 C                    -0.006787
    156 C                     0.009858
    157 C                    -0.028890
    158 C                     0.032149
    159 C                    -0.012492
    160 C                    -0.038309
    161 C                     0.019035
    162 C                     0.002605
    163 C                    -0.000665
    164 C                     0.025092
    165 C                    -0.003780
    166 C                    -0.008012
    167 C                    -0.008706
    168 C                     0.000545
    169 C                    -0.008697
    170 C                     0.007807
    171 C                    -0.006787
    172 C                    -0.005705
    173 C                    -0.018963
    174 C                     0.004545
    175 C                     0.036744
    176 C                     0.023350
  ----------------------------------------
  Sum of atomic charges =     0.000000

                    Cartesian Multipole Moments
 -----------------------------------------------------------------
    Charge (ESU x 10^10)
                 0.0000
    Dipole Moment (Debye)
         X      -4.0164      Y       5.2323      Z       2.4717
       Tot       7.0440
    Quadrupole Moments (Debye-Ang)
        XX    -749.7969     XY      12.2575     YY    -799.6846
        XZ       5.2687     YZ      20.4625     ZZ    -796.8138

 Total job time:  854.61s(wall), 8104.00s(cpu)
        *  Thank you very much for using Q-Chem.  Have a nice day.  *
