 Q-Chem 4.4, Q-Chem, Inc., Pleasanton, CA (2016)
 Q-Chem 4.4.2 for Intel X86 Linux

User input:
--------------------------------------------------------------
$comment
SP
$end

$rem
MEM_STATIC 5000
MEM_TOTAL 20000
JOBTYPE SP
EXCHANGE B3LYP
BASIS 6-31g(d,p)
$end

$molecule
0 1
O         -10.516000      7.048000     -1.959000
C         -11.117000      8.236000     -2.478000
H         -10.711000      8.445000     -3.475000
H         -10.888000      9.011000     -1.736000
H         -12.213000      8.250000     -2.458000
O         -12.518000      6.320000     -1.116000
C         -11.302000      6.188000     -1.229000
C         -10.486000      5.152000     -0.498000
H          -9.579000      5.568000     -0.041000
H         -10.171000      4.548000     -1.358000
C         -11.232000      4.224000      0.508000
H         -11.598000      4.784000      1.378000
H         -12.143000      3.761000      0.110000
C         -10.307000      2.989000      0.870000
H         -10.221000      2.398000     -0.050000
H          -9.325000      3.274000      1.269000
C         -11.026000      2.083000      1.852000
C         -12.236000      1.366000      1.209000
C         -12.008000      0.413000      0.227000
H         -11.040000      0.062000     -0.118000
C         -13.101000     -0.224000     -0.403000
H         -12.862000     -1.046000     -1.072000
C         -14.397000      0.078000      0.013000
H         -15.236000     -0.435000     -0.447000
C         -14.621000      1.070000      0.974000
H         -15.620000      1.435000      1.193000
C         -13.530000      1.806000      1.503000
H         -13.545000      2.637000      2.203000
C         -12.963000      1.397000      7.005000
C         -12.373000     -0.897000      6.268000
C          -8.803000     -1.380000      8.966000
C          -8.890000      4.571000      6.381000
C          -6.571000     -0.655000      6.462000
C         -12.803000      0.406000      5.984000
C          -6.610000      2.919000      6.820000
C         -10.964000     -0.322000      9.382000
C          -9.391000     -0.863000      3.724000
C          -8.209000      4.080000      5.252000
C         -10.269000      1.201000      2.813000
C          -8.316000     -0.061000      3.530000
C          -7.076000      2.212000      4.551000
C          -6.130000      1.657000      7.087000
C         -11.670000     -0.384000      4.216000
C          -7.051000      0.019000      8.734000
C         -11.069000      2.440000      3.307000
C         -10.259000      3.531000      3.979000
C          -6.991000     -0.996000      7.787000
C          -9.629000      2.972000      9.477000
C          -8.931000      0.848000      9.896000
C         -10.334000      0.781000      9.884000
C         -12.091000     -0.175000      8.604000
C         -10.999000      3.946000      5.179000
C         -10.563000     -0.130000      3.433000
C         -11.944000     -1.188000      7.602000
C          -7.114000      3.213000      5.538000
C         -11.653000     -1.434000      5.179000
C          -7.122000     -0.221000      4.274000
C         -10.712000      4.080000      7.613000
C         -10.213000     -1.419000      8.981000
C          -8.743000      1.219000      3.110000
C         -11.907000      2.281000      8.798000
C          -6.605000      0.920000      4.838000
C          -9.424000     -1.924000      4.688000
C          -7.383000      2.404000      8.851000
C          -7.383000      3.438000      7.870000
C          -8.307000     -1.988000      5.524000
C         -10.304000      4.501000      6.330000
C          -8.846000      3.472000      4.141000
C          -9.623000      4.006000      8.496000
C         -12.077000      2.111000      4.310000
C         -10.110000     -2.503000      6.786000
C          -8.174000      2.377000      3.656000
C          -7.138000     -1.208000      5.314000
C         -11.881000      3.311000      7.845000
C          -8.057000     -1.834000      7.890000
C         -12.537000      1.118000      8.289000
C          -8.131000     -0.243000      9.515000
C         -10.527000     -2.178000      5.440000
C          -8.692000     -2.368000      6.810000
C         -12.393000      0.765000      4.675000
C         -12.064000      3.054000      5.368000
C          -8.529000      2.156000      9.654000
C         -10.857000     -2.022000      7.878000
C          -6.138000      0.607000      6.126000
C          -8.500000      4.227000      7.666000
C          -6.633000      1.319000      8.362000
C         -12.552000      2.760000      6.694000
C         -10.750000      2.109000      9.560000
O          -9.077000     13.992000      9.537000
C         -10.494000     14.511000      9.570000
H         -11.112000     13.947000     10.280000
H         -10.910000     14.307000      8.576000
H         -10.507000     15.578000      9.823000
O          -8.428000     15.178000      7.790000
C          -8.158000     14.453000      8.647000
C          -6.850000     13.671000      8.757000
H          -7.003000     12.585000      8.794000
H          -6.473000     13.853000      9.771000
C          -5.836000     13.951000      7.683000
H          -5.861000     15.006000      7.383000
H          -4.808000     13.875000      8.059000
C          -6.021000     13.054000      6.451000
H          -5.088000     13.083000      5.876000
H          -6.258000     12.038000      6.790000
C          -7.046000     13.464000      5.373000
C          -6.711000     14.676000      4.643000
C          -7.279000     15.888000      4.879000
H          -8.196000     15.927000      5.461000
C          -6.857000     17.109000      4.233000
H          -7.334000     18.067000      4.421000
C          -5.769000     17.099000      3.406000
H          -5.471000     18.011000      2.896000
C          -5.207000     15.817000      3.080000
H          -4.472000     15.687000      2.292000
C          -5.675000     14.675000      3.671000
H          -5.143000     13.742000      3.512000
C         -12.550000     13.661000      4.329000
C         -11.500000     13.450000      2.167000
C         -13.010000      9.199000      1.434000
C         -10.916000     10.006000      7.416000
C          -9.909000      7.745000      2.411000
C         -11.491000     13.958000      3.450000
C         -10.549000      7.666000      5.921000
C         -14.131000     11.038000      2.469000
C          -8.012000     11.300000      2.403000
C          -9.625000      9.579000      7.108000
C          -7.694000     12.342000      4.498000
C          -7.718000     10.267000      3.273000
C          -8.394000      8.749000      5.451000
C         -10.635000      7.181000      4.591000
C          -9.322000     13.349000      2.864000
C         -12.289000      7.504000      2.873000
C          -8.524000     12.979000      5.643000
C          -9.105000     11.930000      6.621000
C         -11.269000      7.858000      2.043000
C         -13.980000      9.763000      5.693000
C         -14.159000      8.890000      3.595000
C         -14.566000     10.264000      3.538000
C         -13.693000     12.348000      2.715000
C         -10.392000     12.342000      6.841000
C          -8.209000     12.513000      3.110000
C         -12.621000     12.679000      1.831000
C          -9.435000      8.443000      6.373000
C         -10.180000     13.033000      1.818000
C          -8.192000      8.986000      3.032000
C         -12.699000     11.343000      7.042000
C         -13.367000     10.525000      1.417000
C          -7.489000     10.811000      4.514000
C         -14.068000     12.045000      5.079000
C          -8.514000      8.230000      4.144000
C          -8.961000     10.992000      1.312000
C         -12.784000      7.759000      5.254000
C         -11.841000      8.076000      6.306000
C          -9.476000      9.710000      1.151000
C         -11.321000     11.378000      7.326000
C          -8.701000     10.561000      6.684000
C         -13.118000     10.025000      6.764000
C          -9.779000     13.751000      5.224000
C         -11.135000     11.068000      0.659000
C          -7.936000     10.049000      5.635000
C          -9.021000      8.725000      1.987000
C         -13.122000     12.353000      6.126000
C         -11.743000      8.797000      1.122000
C         -13.654000     12.882000      4.025000
C         -13.411000      8.350000      2.530000
C         -10.010000     11.874000      0.984000
C         -10.799000      9.751000      0.721000
C         -10.149000     13.919000      3.867000
C         -10.833000     13.364000      6.038000
C         -13.856000      8.615000      4.986000
C         -12.456000     11.491000      1.063000
C          -9.597000      7.477000      3.738000
C         -12.047000      9.232000      7.057000
C         -11.996000      7.220000      4.233000
C         -12.222000     13.340000      5.662000
C         -14.492000     10.745000      4.853000
$end

--------------------------------------------------------------

             Standard Nuclear Orientation (Angstroms)
    I     Atom           X                Y                Z
 ----------------------------------------------------------------
    1      O      -1.1521063390    -6.0974363929    -2.8023843539
    2      C      -2.3669085375    -6.7523688314    -2.4319452639
    3      H      -2.6832597965    -7.4203833201    -3.2420097822
    4      H      -3.0726308703    -5.9369458283    -2.2302739597
    5      H      -2.3471359648    -7.2527392781    -1.4567271029
    6      O      -0.2880975041    -6.3575285551    -0.6965643709
    7      C      -0.2029695553    -5.8904505457    -1.8294546417
    8      C       0.8749353775    -4.9367031782    -2.2788986481
    9      H       0.4790917121    -4.0762173273    -2.8333586494
   10      H       1.3833304531    -5.5858729985    -3.0026071472
   11      C       1.9173218992    -4.4733634213    -1.2165980274
   12      H       1.4551484419    -3.8427195202    -0.4464422214
   13      H       2.3657602445    -5.2873209648    -0.6343007084
   14      C       3.1542724406    -3.8062232324    -1.9492448226
   15      H       3.6505536437    -4.6155594798    -2.4985687762
   16      H       2.8809598760    -2.9705434772    -2.6062757114
   17      C       4.1716626512    -3.3495899713    -0.9203987582
   18      C       4.8577097065    -4.5384237672    -0.2079019907
   19      C       5.7040069342    -5.3609302933    -0.9371351611
   20      H       5.9917056097    -5.2306572416    -1.9761290996
   21      C       6.3083343160    -6.4772141639    -0.3158327098
   22      H       7.0543302047    -7.0103366565    -0.8986161530
   23      C       6.0857728619    -6.7039749695     1.0417098996
   24      H       6.5758571949    -7.5418582820     1.5279802989
   25      C       5.1985239579    -5.8952114555     1.7603558213
   26      H       4.8855799260    -6.1497703257     2.7685486672
   27      C       4.4859708106    -4.8614362854     1.1005112110
   28      H       3.7275350877    -4.1943945655     1.5012812175
   29      C       5.4098538999     0.2077599819     3.1524525456
   30      C       7.6035301289    -0.3244926865     2.1237656646
   31      C       8.2421621979     3.6996813099     0.2118122846
   32      C       2.0736144357     1.8161978815    -0.4993161712
   33      C       7.2134402206     2.6103036821    -2.8756547156
   34      C       6.2921456916    -0.6839070614     2.4620808500
   35      C       3.6936222706     3.1625757545    -2.4184478076
   36      C       7.2925484503     3.1176093632     2.3847750039
   37      C       7.2366487676    -1.1434601490    -1.6920050782
   38      C       2.4329036339     1.1122806622    -1.6633156645
   39      C       5.1203661004    -2.2108155130    -1.1990535603
   40      C       6.3888038671    -0.7472301783    -2.6721202933
   41      C       4.1905205678     0.8992987370    -3.1227454892
   42      C       4.9611200278     3.5336821578    -2.8058267859
   43      C       6.8738509514    -1.7562308700     0.5791699014
   44      C       6.7770781749     4.4259355769    -1.3395137757
   45      C       3.9588020390    -2.0670206650    -0.1747250129
   46      C       2.9150779899    -1.0152829608    -0.4948076754
   47      C       7.6933189833     3.5501614533    -1.9088611788
   48      C       3.9859776660     4.0694674821     1.4890955021
   49      C       6.1194697719     4.6153755500     0.9195897379
   50      C       6.2256209931     3.9357428067     2.1442828637
   51      C       7.1035366716     1.9115584041     3.0225348580
   52      C       2.6399918965    -0.2824251659     0.7490058531
   53      C       6.5131630051    -1.9012419971    -0.7444350164
   54      C       8.0099343135     1.0288371698     2.3509482759
   55      C       3.2914483123     1.8195999022    -2.5550053683
   56      C       8.0113309809    -0.9781299340     0.9409102999
   57      C       6.5855110140     0.4597631790    -3.3857345685
   58      C       2.7343365551     1.9998325209     1.6473821309
   59      C       8.3232776160     3.0424460907     1.4573275016
   60      C       5.0870293654    -1.2262658623    -2.4018667825
   61      C       4.6736183063     2.3452205762     3.1267550997
   62      C       5.4900641443     1.2815486898    -3.4949624503
   63      C       8.3866182714    -0.3889445884    -1.2865640721
   64      C       4.4252838302     4.5425914918    -0.8222200898
   65      C       3.3014839403     3.7555897936    -1.2085090160
   66      C       8.4989689030     0.8692442680    -1.8823988958
   67      C       2.1792880214     1.0969043795     0.7165567462
   68      C       2.9485326202    -0.2082751125    -1.6669480768
   69      C       2.8620038981     3.2853066556     1.0975246053
   70      C       4.4125648451    -1.6873838263     1.1595497663
   71      C       9.1859256973     1.0864891729     0.2599299804
   72      C       3.9714177237    -0.3944413985    -2.5641003375
   73      C       7.6687358086     1.2943565479    -2.9543380538
   74      C       3.5557589883     1.5948228680     2.7304233893
   75      C       8.5678959255     3.0757227010    -0.9819134767
   76      C       5.7995591613     1.5166366024     3.3596838212
   77      C       7.1447487104     4.5814008206    -0.0411864150
   78      C       8.7441848775    -0.2692537507     0.0189814941
   79      C       9.0128521896     1.7886380654    -0.9674890571
   80      C       5.7962002986    -1.6131619621     1.5128782917
   81      C       3.5766003168    -0.6847678191     1.7115519852
   82      C       4.7830717616     4.6871250418     0.5455250798
   83      C       8.8349107159     1.7259577682     1.4639658597
   84      C       5.9127945251     2.6109097251    -3.3243744584
   85      C       2.5291262929     3.1042429789    -0.2645614584
   86      C       5.4355720485     4.3905625940    -1.7892004051
   87      C       4.0117878815     0.2271438357     2.7420299895
   88      C       4.8850811932     3.5496359423     2.4532982908
   89      O      -6.9876404289     5.1742564991     1.8175024666
   90      C      -7.4597130538     4.5695488283     3.1174313377
   91      H      -6.8118645758     4.8597614471     3.9542042970
   92      H      -7.3410719472     3.4853331145     3.0029386576
   93      H      -8.4963316693     4.8620607652     3.3236487294
   94      O      -8.3557309650     4.0329952168     0.5114944381
   95      C      -7.5591912883     4.8611520768     0.6239878099
   96      C      -6.8084460454     5.5209151171    -0.5316861540
   97      H      -5.7199990901     5.4030268425    -0.4571235611
   98      H      -6.9021308809     6.6026440729    -0.3750508522
   99      C      -7.2205176136     5.0782737780    -1.9080355528
  100      H      -8.2984629043     4.8787766096    -1.9514501827
  101      H      -7.1382459573     5.8896382859    -2.6421029950
  102      C      -6.4422016174     3.8447695486    -2.3869400590
  103      H      -6.5538365357     3.7838264655    -3.4758746694
  104      H      -5.3916824622     3.9572510398    -2.0918071758
  105      C      -6.9249041615     2.4425220943    -1.9609009399
  106      C      -8.2111644166     2.0472556539    -2.5116894633
  107      C      -9.3776032080     2.0724677144    -1.8145173915
  108      H      -9.3334043013     2.1520110375    -0.7315338660
  109      C     -10.6671947793     1.7927814377    -2.4018590007
  110      H     -11.5882279695     1.8007157918    -1.8254286853
  111      C     -10.7689528892     1.5812038997    -3.7482071104
  112      H     -11.7343518924     1.3400248732    -4.1846534895
  113      C      -9.5414249217     1.4691190361    -4.4872984933
  114      H      -9.5097881064     1.1160299882    -5.5131621471
  115      C      -8.3344270052     1.6844107903    -3.8796188983
  116      H      -7.4370478583     1.7297701216    -4.4890835796
  117      C      -7.0626036837    -1.0658724713     2.4088779348
  118      C      -7.0927192451    -2.4818317722     0.4555686119
  119      C      -2.8908424683    -4.1453054579     1.1378272503
  120      C      -3.1744345040     2.1555297654     2.1573663840
  121      C      -1.4394520871    -1.9236957232    -1.2376226330
  122      C      -7.4739870127    -1.3148012900     1.0855755507
  123      C      -1.0020193074     0.8489593821     0.9662324508
  124      C      -4.5875750133    -3.6355116252     2.7412597929
  125      C      -5.0319555887    -0.7774355616    -2.6577297532
  126      C      -2.8168992318     2.4657643960     0.8459560733
  127      C      -5.8747145960     1.2870543371    -1.8808438452
  128      C      -3.9284319410     0.0513962051    -2.5822415982
  129      C      -2.1874779393     1.5344156436    -1.0740252647
  130      C      -0.6459586599    -0.3941388016     0.3836101708
  131      C      -6.9877818882    -0.8459620482    -1.1421210943
  132      C      -1.0859269319    -2.6622887621     1.0570288192
  133      C      -6.3733852698     1.9449457228    -0.5677556975
  134      C      -5.2181160202     2.4531463525     0.3275269846
  135      C      -1.5481369877    -2.8825771299    -0.2048946726
  136      C      -3.0109312433    -0.8252286180     4.0293226183
  137      C      -2.3406238425    -2.8144117774     3.1407212751
  138      C      -3.7013029543    -2.9585632317     3.5703102798
  139      C      -5.8796948774    -3.1181691460     2.5645028522
  140      C      -5.5693757197     2.0664760653     1.5930765540
  141      C      -6.1644776952    -0.1630108445    -2.0662038066
  142      C      -6.3257651779    -3.3628924107     1.2298370473
  143      C      -1.7634936281     1.8289700044     0.2529547775
  144      C      -6.7499479694    -2.1931416760    -0.8998855116
  145      C      -2.6636352162    -0.4765211801    -2.3693790150
  146      C      -4.4891603353     1.0789295326     3.6469844314
  147      C      -4.2013389682    -4.2341121883     1.5387340829
  148      C      -4.3559623253     1.2883043632    -2.1630352304
  149      C      -5.3381950689    -1.2421633181     3.9816514298
  150      C      -1.7943766636     0.2929706504    -1.6183557853
  151      C      -4.8038061659    -2.2066321835    -2.3559171346
  152      C      -1.0944374111    -0.7881363495     2.6275991953
  153      C      -1.3351477760     0.6046279843     2.3134208532
  154      C      -3.5290704805    -2.6838037455    -2.0695149125
  155      C      -4.5363811600     1.9832117964     2.5695760682
  156      C      -3.8617426117     2.6015034185    -0.0962505014
  157      C      -3.1927345168     0.5419170143     3.7914373736
  158      C      -7.1456750273     1.0382953233     0.3956360108
  159      C      -4.8797219982    -3.8037752922    -0.7428977061
  160      C      -3.4762395663     2.0060817231    -1.2981782890
  161      C      -2.4812624637    -1.8051454447    -2.1482800718
  162      C      -5.5705233121     0.1469862558     3.6618451622
  163      C      -2.5578711638    -3.8481519134    -0.1525474555
  164      C      -6.2850809618    -1.9113659430     3.1826170421
  165      C      -1.9283230418    -3.4339378312     1.9442579375
  166      C      -5.6826787814    -2.9279659162    -1.5233490763
  167      C      -3.5732080227    -3.6847613154    -1.1035719429
  168      C      -7.4336501573    -0.3161165211     0.0969524321
  169      C      -6.6512002247     1.2260714135     1.6776328164
  170      C      -1.9409599980    -1.4695531060     3.5066980031
  171      C      -5.2231012991    -4.0442250631     0.6396581023
  172      C      -1.0532178722    -0.6302576120    -0.9090834670
  173      C      -2.4064358667     1.2493278876     2.9294377859
  174      C      -0.6800249057    -1.3500248892     1.4166286984
  175      C      -6.6235234794     0.2366054713     2.7223644312
  176      C      -4.0544906124    -1.7346019808     4.1561765909
 ----------------------------------------------------------------

    9   -5804.2538712124      8.89E-06 Convergence criterion met
 Total energy in the final basis set = -5804.2538712124

                    Orbital Energies (a.u.)
 --------------------------------------------------------------

 Alpha MOs
 -- Occupied --
-19.188 -19.181 -19.140 -19.133 -10.317 -10.314 -10.250 -10.245
-10.242 -10.242 -10.241 -10.241 -10.239 -10.234 -10.233 -10.230
-10.230 -10.228 -10.228 -10.227 -10.224 -10.224 -10.223 -10.223
-10.222 -10.221 -10.221 -10.221 -10.220 -10.220 -10.219 -10.219
-10.218 -10.218 -10.218 -10.218 -10.218 -10.217 -10.217 -10.217
-10.217 -10.216 -10.216 -10.216 -10.216 -10.216 -10.216 -10.216
-10.215 -10.215 -10.215 -10.215 -10.215 -10.215 -10.215 -10.215
-10.215 -10.215 -10.215 -10.214 -10.214 -10.214 -10.214 -10.214
-10.214 -10.214 -10.213 -10.213 -10.213 -10.213 -10.213 -10.213
-10.213 -10.213 -10.213 -10.213 -10.213 -10.213 -10.213 -10.212
-10.212 -10.212 -10.212 -10.212 -10.212 -10.212 -10.212 -10.211
-10.211 -10.211 -10.211 -10.211 -10.211 -10.211 -10.211 -10.211
-10.210 -10.210 -10.210 -10.210 -10.210 -10.210 -10.209 -10.209
-10.209 -10.209 -10.209 -10.209 -10.209 -10.208 -10.208 -10.208
-10.208 -10.208 -10.207 -10.207 -10.207 -10.207 -10.207 -10.207
-10.207 -10.207 -10.207 -10.206 -10.206 -10.206 -10.206 -10.205
-10.205 -10.205 -10.205 -10.204 -10.202 -10.202 -10.202 -10.201
-10.200 -10.199 -10.199 -10.199 -10.199 -10.199 -10.195 -10.194
-10.193 -10.193 -10.192 -10.187  -1.108  -1.088  -1.018  -1.003
 -0.983  -0.981  -0.966  -0.962  -0.962  -0.960  -0.958  -0.957
 -0.933  -0.928  -0.925  -0.925  -0.924  -0.923  -0.922  -0.921
 -0.918  -0.917  -0.896  -0.893  -0.889  -0.888  -0.887  -0.882
 -0.874  -0.872  -0.853  -0.848  -0.841  -0.839  -0.839  -0.836
 -0.836  -0.833  -0.820  -0.820  -0.805  -0.802  -0.798  -0.796
 -0.794  -0.794  -0.793  -0.792  -0.791  -0.788  -0.784  -0.780
 -0.769  -0.768  -0.768  -0.765  -0.765  -0.765  -0.763  -0.762
 -0.750  -0.744  -0.743  -0.741  -0.733  -0.731  -0.716  -0.714
 -0.713  -0.712  -0.712  -0.712  -0.709  -0.708  -0.708  -0.706
 -0.705  -0.704  -0.704  -0.702  -0.701  -0.700  -0.672  -0.671
 -0.658  -0.656  -0.654  -0.653  -0.650  -0.644  -0.633  -0.631
 -0.628  -0.624  -0.623  -0.622  -0.622  -0.621  -0.617  -0.616
 -0.614  -0.613  -0.612  -0.609  -0.609  -0.608  -0.608  -0.606
 -0.605  -0.604  -0.602  -0.599  -0.563  -0.563  -0.562  -0.560
 -0.560  -0.557  -0.556  -0.555  -0.553  -0.552  -0.550  -0.549
 -0.535  -0.535  -0.534  -0.532  -0.529  -0.524  -0.524  -0.524
 -0.523  -0.521  -0.519  -0.516  -0.515  -0.512  -0.512  -0.512
 -0.511  -0.505  -0.502  -0.499  -0.494  -0.491  -0.486  -0.485
 -0.484  -0.482  -0.482  -0.479  -0.477  -0.477  -0.476  -0.475
 -0.473  -0.469  -0.468  -0.467  -0.466  -0.465  -0.465  -0.464
 -0.462  -0.462  -0.461  -0.461  -0.460  -0.459  -0.458  -0.458
 -0.455  -0.452  -0.452  -0.450  -0.449  -0.448  -0.445  -0.443
 -0.441  -0.441  -0.440  -0.439  -0.437  -0.436  -0.433  -0.431
 -0.431  -0.429  -0.429  -0.428  -0.425  -0.425  -0.424  -0.422
 -0.421  -0.421  -0.420  -0.419  -0.418  -0.417  -0.416  -0.416
 -0.416  -0.415  -0.414  -0.414  -0.413  -0.411  -0.411  -0.409
 -0.408  -0.408  -0.407  -0.407  -0.402  -0.401  -0.397  -0.395
 -0.395  -0.393  -0.392  -0.390  -0.387  -0.384  -0.383  -0.380
 -0.377  -0.373  -0.372  -0.371  -0.370  -0.368  -0.367  -0.365
 -0.364  -0.363  -0.361  -0.361  -0.360  -0.359  -0.357  -0.357
 -0.355  -0.354  -0.353  -0.352  -0.351  -0.351  -0.350  -0.349
 -0.348  -0.348  -0.347  -0.346  -0.343  -0.343  -0.343  -0.342
 -0.341  -0.340  -0.339  -0.338  -0.337  -0.336  -0.334  -0.332
 -0.331  -0.330  -0.328  -0.327  -0.326  -0.325  -0.323  -0.322
 -0.316  -0.302  -0.299  -0.291  -0.284  -0.283  -0.277  -0.271
 -0.269  -0.269  -0.268  -0.266  -0.265  -0.264  -0.262  -0.261
 -0.260  -0.259  -0.258  -0.257  -0.256  -0.255  -0.253  -0.251
 -0.250  -0.248  -0.244  -0.243  -0.223  -0.221  -0.212  -0.210
 -0.207  -0.205  -0.204  -0.203  -0.197  -0.196

          Ground-State Mulliken Net Atomic Charges

     Atom                 Charge (a.u.)
  ----------------------------------------
      1 O                    -0.472681
      2 C                    -0.099794
      3 H                     0.120764
      4 H                     0.120337
      5 H                     0.143122
      6 O                    -0.483857
      7 C                     0.601217
      8 C                    -0.256725
      9 H                     0.139001
     10 H                     0.133441
     11 C                    -0.186714
     12 H                     0.116509
     13 H                     0.130697
     14 C                    -0.185147
     15 H                     0.112490
     16 H                     0.105972
     17 C                     0.014716
     18 C                     0.084155
     19 C                    -0.108484
     20 H                     0.091559
     21 C                    -0.089075
     22 H                     0.092275
     23 C                    -0.079749
     24 H                     0.092313
     25 C                    -0.102452
     26 H                     0.096949
     27 C                    -0.094125
     28 H                     0.102282
     29 C                    -0.018666
     30 C                    -0.009119
     31 C                    -0.016062
     32 C                    -0.008215
     33 C                     0.017785
     34 C                     0.008734
     35 C                     0.007967
     36 C                     0.021426
     37 C                     0.019465
     38 C                    -0.003560
     39 C                    -0.087846
     40 C                     0.034329
     41 C                    -0.013779
     42 C                    -0.015794
     43 C                    -0.025701
     44 C                     0.020503
     45 C                    -0.085294
     46 C                     0.007667
     47 C                    -0.010716
     48 C                    -0.002812
     49 C                     0.003564
     50 C                    -0.000523
     51 C                    -0.002112
     52 C                    -0.017397
     53 C                     0.036085
     54 C                    -0.005191
     55 C                    -0.003909
     56 C                    -0.008329
     57 C                    -0.051292
     58 C                     0.020785
     59 C                     0.005125
     60 C                     0.003263
     61 C                    -0.005900
     62 C                     0.021341
     63 C                    -0.006867
     64 C                    -0.022781
     65 C                    -0.003003
     66 C                    -0.005046
     67 C                    -0.008358
     68 C                     0.020238
     69 C                    -0.016619
     70 C                     0.027339
     71 C                    -0.019228
     72 C                     0.004237
     73 C                    -0.017656
     74 C                    -0.012701
     75 C                     0.030593
     76 C                     0.018564
     77 C                    -0.027874
     78 C                     0.019023
     79 C                     0.013303
     80 C                     0.014006
     81 C                     0.026102
     82 C                     0.012065
     83 C                    -0.014403
     84 C                    -0.014761
     85 C                     0.026008
     86 C                     0.009760
     87 C                    -0.036280
     88 C                    -0.010371
     89 O                    -0.498326
     90 C                    -0.089658
     91 H                     0.133396
     92 H                     0.133570
     93 H                     0.130624
     94 O                    -0.430772
     95 C                     0.606574
     96 C                    -0.271494
     97 H                     0.137819
     98 H                     0.127250
     99 C                    -0.181982
    100 H                     0.126720
    101 H                     0.102705
    102 C                    -0.177222
    103 H                     0.103590
    104 H                     0.102151
    105 C                     0.030911
    106 C                     0.098380
    107 C                    -0.121926
    108 H                     0.116052
    109 C                    -0.091509
    110 H                     0.091765
    111 C                    -0.082878
    112 H                     0.089981
    113 C                    -0.095032
    114 H                     0.088493
    115 C                    -0.101952
    116 H                     0.082194
    117 C                     0.012616
    118 C                    -0.014281
    119 C                     0.012611
    120 C                    -0.002148
    121 C                    -0.028550
    122 C                     0.022422
    123 C                     0.006806
    124 C                     0.016873
    125 C                    -0.024323
    126 C                    -0.003686
    127 C                    -0.104388
    128 C                     0.030098
    129 C                    -0.017354
    130 C                     0.008579
    131 C                     0.033681
    132 C                    -0.025057
    133 C                    -0.099183
    134 C                     0.037384
    135 C                     0.034297
    136 C                     0.056628
    137 C                    -0.016363
    138 C                    -0.004256
    139 C                    -0.015799
    140 C                     0.024518
    141 C                     0.042326
    142 C                     0.005977
    143 C                    -0.006200
    144 C                    -0.006020
    145 C                     0.021699
    146 C                    -0.059013
    147 C                     0.019949
    148 C                     0.024853
    149 C                    -0.008085
    150 C                     0.003984
    151 C                    -0.030747
    152 C                    -0.000773
    153 C                    -0.022253
    154 C                     0.034145
    155 C                    -0.005724
    156 C                    -0.032733
    157 C                     0.023005
    158 C                     0.022333
    159 C                    -0.001906
    160 C                     0.003290
    161 C                    -0.012374
    162 C                    -0.004713
    163 C                     0.016611
    164 C                    -0.013615
    165 C                    -0.024692
    166 C                    -0.026882
    167 C                    -0.018057
    168 C                    -0.007456
    169 C                     0.003317
    170 C                    -0.014444
    171 C                    -0.013485
    172 C                     0.001597
    173 C                     0.004548
    174 C                     0.001167
    175 C                    -0.000879
    176 C                     0.000591
  ----------------------------------------
  Sum of atomic charges =     0.000000

                    Cartesian Multipole Moments
 -----------------------------------------------------------------
    Charge (ESU x 10^10)
                 0.0000
    Dipole Moment (Debye)
         X      -2.5738      Y      -0.0738      Z      -1.7144
       Tot       3.0934
    Quadrupole Moments (Debye-Ang)
        XX    -791.8760     XY     -31.5114     YY    -791.2377
        XZ       1.2802     YZ       8.6703     ZZ    -794.3958

 Total job time:  882.07s(wall), 8420.67s(cpu)
        *  Thank you very much for using Q-Chem.  Have a nice day.  *
