 Q-Chem 4.4, Q-Chem, Inc., Pleasanton, CA (2016)
 Q-Chem 4.4.2 for Intel X86 Linux

User input:
--------------------------------------------------------------
$comment
SP
$end

$rem
MEM_STATIC 5000
MEM_TOTAL 20000
JOBTYPE SP
EXCHANGE B3LYP
BASIS 6-31g(d,p)
$end

$molecule
0 1
O         -23.495000     11.527000      5.834000
C         -24.388000     12.558000      5.587000
H         -25.147000     12.675000      6.371000
H         -24.908000     12.571000      4.622000
H         -23.819000     13.496000      5.606000
O         -22.315000     12.177000      3.938000
C         -22.518000     11.378000      4.890000
C         -21.556000     10.255000      5.188000
H         -22.225000      9.395000      5.314000
H         -20.911000     10.343000      6.072000
C         -20.673000      9.928000      3.934000
H         -21.317000      9.595000      3.111000
H         -20.170000     10.819000      3.539000
C         -19.555000      8.957000      4.386000
H         -18.995000      8.593000      3.516000
H         -18.861000      9.527000      5.017000
C         -19.920000      7.618000      5.110000
C         -20.873000      6.809000      4.228000
C         -22.202000      6.452000      4.634000
H         -22.532000      6.798000      5.609000
C         -23.012000      5.646000      3.856000
H         -24.011000      5.353000      4.165000
C         -22.574000      5.214000      2.552000
H         -23.096000      4.582000      1.840000
C         -21.195000      5.410000      2.284000
H         -20.703000      4.980000      1.416000
C         -20.339000      6.188000      3.076000
H         -19.305000      6.363000      2.790000
C         -21.078000      4.478000      9.465000
C         -19.748000      2.950000      8.080000
C         -16.170000      2.928000     10.806000
C         -18.675000      8.895000     10.327000
C         -14.390000      5.329000      8.852000
C         -20.697000      4.010000      8.200000
C         -15.977000      8.177000     10.394000
C         -18.529000      2.828000     11.353000
C         -17.241000      5.063000      5.922000
C         -17.800000      9.142000      9.198000
C         -18.791000      6.804000      5.732000
C         -16.504000      6.249000      6.191000
C         -16.068000      8.322000      7.957000
C         -14.995000      7.164000     10.364000
C         -19.496000      4.425000      6.318000
C         -15.031000      4.851000     11.183000
C         -19.920000      7.325000      6.593000
C         -19.627000      8.328000      7.696000
C         -14.652000      4.405000      9.937000
C         -18.639000      6.185000     12.664000
C         -17.037000      4.447000     12.572000
C         -18.349000      3.918000     12.284000
C         -19.638000      2.891000     10.524000
C         -20.351000      7.923000      8.891000
C         -18.597000      5.272000      5.652000
C         -19.247000      2.447000      9.258000
C         -16.461000      8.780000      9.233000
C         -19.015000      3.207000      6.898000
C         -15.349000      6.257000      6.995000
C         -20.170000      7.397000     11.193000
C         -17.455000      2.341000     10.648000
C         -17.419000      7.305000      6.216000
C         -20.435000      4.961000     11.530000
C         -15.113000      7.267000      7.956000
C         -16.745000      3.862000      6.541000
C         -16.329000      6.722000     12.142000
C         -16.760000      7.923000     11.529000
C         -15.581000      3.820000      7.315000
C         -19.896000      8.228000     10.147000
C         -18.268000      8.782000      7.966000
C         -19.033000      7.387000     12.074000
C         -20.748000      6.319000      7.291000
C         -17.097000      2.407000      8.204000
C         -17.245000      8.303000      7.160000
C         -14.857000      5.046000      7.536000
C         -20.935000      6.200000     10.926000
C         -15.312000      3.223000      9.664000
C         -20.598000      3.910000     10.657000
C         -15.957000      3.940000     11.756000
C         -17.661000      2.957000      7.057000
C         -15.859000      2.942000      8.388000
C         -20.560000      4.881000      7.112000
C         -21.060000      6.768000      8.592000
C         -17.218000      5.828000     12.739000
C         -17.898000      2.096000      9.346000
C         -14.558000      6.703000      9.112000
C         -18.143000      8.314000     11.507000
C         -15.259000      6.226000     11.363000
C         -21.307000      5.875000      9.671000
C         -19.295000      4.979000     12.353000
O          -9.077000     13.992000      9.537000
C         -10.494000     14.511000      9.570000
H         -11.112000     13.947000     10.280000
H         -10.910000     14.307000      8.576000
H         -10.507000     15.578000      9.823000
O          -8.428000     15.178000      7.790000
C          -8.158000     14.453000      8.647000
C          -6.850000     13.671000      8.757000
H          -7.003000     12.585000      8.794000
H          -6.473000     13.853000      9.771000
C          -5.836000     13.951000      7.683000
H          -5.861000     15.006000      7.383000
H          -4.808000     13.875000      8.059000
C          -6.021000     13.054000      6.451000
H          -5.088000     13.083000      5.876000
H          -6.258000     12.038000      6.790000
C          -7.046000     13.464000      5.373000
C          -6.711000     14.676000      4.643000
C          -7.279000     15.888000      4.879000
H          -8.196000     15.927000      5.461000
C          -6.857000     17.109000      4.233000
H          -7.334000     18.067000      4.421000
C          -5.769000     17.099000      3.406000
H          -5.471000     18.011000      2.896000
C          -5.207000     15.817000      3.080000
H          -4.472000     15.687000      2.292000
C          -5.675000     14.675000      3.671000
H          -5.143000     13.742000      3.512000
C         -12.550000     13.661000      4.329000
C         -11.500000     13.450000      2.167000
C         -13.010000      9.199000      1.434000
C         -10.916000     10.006000      7.416000
C          -9.909000      7.745000      2.411000
C         -11.491000     13.958000      3.450000
C         -10.549000      7.666000      5.921000
C         -14.131000     11.038000      2.469000
C          -8.012000     11.300000      2.403000
C          -9.625000      9.579000      7.108000
C          -7.694000     12.342000      4.498000
C          -7.718000     10.267000      3.273000
C          -8.394000      8.749000      5.451000
C         -10.635000      7.181000      4.591000
C          -9.322000     13.349000      2.864000
C         -12.289000      7.504000      2.873000
C          -8.524000     12.979000      5.643000
C          -9.105000     11.930000      6.621000
C         -11.269000      7.858000      2.043000
C         -13.980000      9.763000      5.693000
C         -14.159000      8.890000      3.595000
C         -14.566000     10.264000      3.538000
C         -13.693000     12.348000      2.715000
C         -10.392000     12.342000      6.841000
C          -8.209000     12.513000      3.110000
C         -12.621000     12.679000      1.831000
C          -9.435000      8.443000      6.373000
C         -10.180000     13.033000      1.818000
C          -8.192000      8.986000      3.032000
C         -12.699000     11.343000      7.042000
C         -13.367000     10.525000      1.417000
C          -7.489000     10.811000      4.514000
C         -14.068000     12.045000      5.079000
C          -8.514000      8.230000      4.144000
C          -8.961000     10.992000      1.312000
C         -12.784000      7.759000      5.254000
C         -11.841000      8.076000      6.306000
C          -9.476000      9.710000      1.151000
C         -11.321000     11.378000      7.326000
C          -8.701000     10.561000      6.684000
C         -13.118000     10.025000      6.764000
C          -9.779000     13.751000      5.224000
C         -11.135000     11.068000      0.659000
C          -7.936000     10.049000      5.635000
C          -9.021000      8.725000      1.987000
C         -13.122000     12.353000      6.126000
C         -11.743000      8.797000      1.122000
C         -13.654000     12.882000      4.025000
C         -13.411000      8.350000      2.530000
C         -10.010000     11.874000      0.984000
C         -10.799000      9.751000      0.721000
C         -10.149000     13.919000      3.867000
C         -10.833000     13.364000      6.038000
C         -13.856000      8.615000      4.986000
C         -12.456000     11.491000      1.063000
C          -9.597000      7.477000      3.738000
C         -12.047000      9.232000      7.057000
C         -11.996000      7.220000      4.233000
C         -12.222000     13.340000      5.662000
C         -14.492000     10.745000      4.853000
$end

--------------------------------------------------------------

             Standard Nuclear Orientation (Angstroms)
    I     Atom           X                Y                Z
 ----------------------------------------------------------------
    1      O       5.7604865141    -5.8455015285     4.6197073630
    2      C       5.8762324544    -6.8370889549     5.5813602386
    3      H       6.6561760628    -6.6336336175     6.3261554409
    4      H       6.0068003610    -7.8717643704     5.2434359774
    5      H       4.9397731559    -6.8500803947     6.1530605138
    6      O       3.9213871649    -6.9800321003     3.7593179363
    7      C       4.7747234847    -6.0560092766     3.6967643865
    8      C       4.6657095052    -4.9582462300     2.6679742009
    9      H       5.6848326078    -4.9062031928     2.2658341457
   10      H       4.3587271031    -3.9590590560     3.0035510118
   11      C       3.7569712332    -5.4033267018     1.4699624619
   12      H       4.2072693591    -6.2713020004     0.9731682603
   13      H       2.7770852558    -5.7635564944     1.8060769780
   14      C       3.4888607375    -4.1553517169     0.5937523279
   15      H       2.9714812247    -4.4446431550    -0.3290829248
   16      H       2.8200526528    -3.4946016112     1.1601462224
   17      C       4.6845763092    -3.3134603084     0.0353571920
   18      C       5.6120034738    -4.2243506785    -0.7713469595
   19      C       6.9852044148    -4.4499010720    -0.4221017795
   20      H       7.3572212148    -3.9552218403     0.4701632922
   21      C       7.8262370249    -5.2070085863    -1.2161246762
   22      H       8.8722821819    -5.3652556400    -0.9710157216
   23      C       7.3155346050    -5.8806051379    -2.3841720742
   24      H       7.8541051252    -6.4985648118    -3.0961549647
   25      C       6.0253388843    -5.4660081883    -2.8029624415
   26      H       5.5973524815    -5.7657959781    -3.7555079365
   27      C       5.1657709796    -4.6652210368    -2.0380003802
   28      H       4.1590813995    -4.4314937448    -2.3749345611
   29      C       8.5074325509     0.6255213462     0.2271453059
   30      C       7.8195736624     0.7035149234    -2.1271435786
   31      C       5.7440786111     4.6824771374    -1.8208365573
   32      C       4.5458203317     1.0406772653     3.4147174522
   33      C       2.5019036567     3.2167197059    -1.5188866991
   34      C       8.0725928221    -0.0336188969    -0.9308091622
   35      C       2.7620527931     2.6920670359     2.0398348413
   36      C       7.8556952343     3.9649127610    -0.8720127579
   37      C       4.0806762051    -0.4624626319    -2.3877661877
   38      C       3.3840638395     0.4987568800     2.7380202166
   39      C       4.3762732171    -1.9771534449    -0.6304912668
   40      C       2.9539753951    -0.2749090901    -1.5407154491
   41      C       2.0493474114     0.6564039524     0.8924892747
   42      C       2.4844834880     3.5017428942     0.9178841805
   43      C       6.3418240634    -1.0676668570    -1.9756700717
   44      C       3.9450614787     4.9112870920    -0.4612180955
   45      C       5.2684662502    -2.0339174354     0.5894154678
   46      C       4.8372127823    -1.3440511174     1.8726036495
   47      C       3.5060353885     4.2589020176    -1.5911396888
   48      C       6.5961207167     3.8287259328     2.5036642382
   49      C       6.1747820459     5.1439350956     0.5831927902
   50      C       7.4204194723     4.4317559351     0.4240788522
   51      C       8.4746754124     2.7254882786    -0.9142204780
   52      C       5.9780483533    -0.6206307524     2.4124028486
   53      C       4.9865125926    -1.4297961895    -1.9416235788
   54      C       8.0191138048     2.0625383403    -2.0569076622
   55      C       2.5022206161     1.3216211534     2.0521361762
   56      C       6.7515882380     0.0445834608    -2.7795839673
   57      C       2.2540346972     0.9439461865    -1.4701475105
   58      C       6.7752864247     1.4804725398     3.1596761675
   59      C       7.0358100829     4.1068778693    -1.9653124636
   60      C       3.1539400496    -1.0692725132    -0.4084668505
   61      C       8.3430887822     2.4320781433     1.5000579755
   62      C       1.8236477047     1.4896743013    -0.2387804403
   63      C       4.4809738618     0.6827031500    -3.1623209746
   64      C       4.3059648054     4.3950831191     1.9280094464
   65      C       3.8550542331     3.2873983938     2.6854031387
   66      C       3.7908062412     1.8989473120    -3.1498793557
   67      C       5.8208192043     0.5065652494     3.1754848679
   68      C       3.5871274802    -0.5974269262     1.9483403949
   69      C       6.1216000379     2.7576422451     3.2624460641
   70      C       6.6578973177    -1.5572849365     0.4247134048
   71      C       6.0000780329     2.3180093887    -3.3191457915
   72      C       2.7747257502    -0.5642565464     0.8238364354
   73      C       2.6399457536     2.0283175409    -2.2926299858
   74      C       7.9307991959     1.2841122403     2.3137708133
   75      C       4.5674751673     4.1055601895    -2.4612459351
   76      C       8.7614892613     2.0069180044     0.2601068090
   77      C       5.3279788447     5.2072011453    -0.5865194587
   78      C       5.8361058693     0.9362317555    -3.3161958860
   79      C       4.7806084452     2.9081030909    -3.1872050956
   80      C       7.1956115753    -1.1233144546    -0.8628276617
   81      C       7.0574535297    -0.8283853848     1.5651546690
   82      C       5.6573145798     4.7230320533     1.8172426476
   83      C       7.1390115686     2.9289658131    -2.7091878842
   84      C       2.0047151631     2.8787857071    -0.2451896338
   85      C       4.7611861033     2.4430333459     3.4148047427
   86      C       3.4723448977     4.4791049740     0.7896882363
   87      C       8.0317670063     0.2061736025     1.5094774623
   88      C       7.6556215408     3.6551703384     1.5932635245
   89      O      -6.0448349617     3.5317645833     4.0127286809
   90      C      -5.1612552656     2.6712044228     4.8828218546
   91      H      -4.1653861745     3.1149013031     5.0073121424
   92      H      -5.0110520006     1.7384826662     4.3258863970
   93      H      -5.6270706437     2.5085725438     5.8622267277
   94      O      -7.6890265155     2.0691270797     3.8200328909
   95      C      -7.2826190307     3.1306380855     3.6175450130
   96      C      -7.9010541258     4.1384222281     2.6498688508
   97      H      -7.2070743907     4.4549177248     1.8609476077
   98      H      -8.0026589720     5.0748285618     3.2122465118
   99      C      -9.1757512762     3.6991844191     1.9848204901
  100      H      -9.7871093333     3.0940251081     2.6657562686
  101      H      -9.8549863931     4.5413613409     1.8023001123
  102      C      -8.9238041419     2.9253651451     0.6831352852
  103      H      -9.8581994466     2.9270008376     0.1096740929
  104      H      -8.1101040038     3.4167072857     0.1355761688
  105      C      -8.6240744258     1.4135466055     0.7564551382
  106      C      -9.7318939602     0.5943494345     1.2209127512
  107      C      -9.8303220794     0.0903549013     2.4793107073
  108      H      -8.9418330940     0.0795532647     3.1050939344
  109      C     -10.9883531612    -0.6211758036     2.9681144201
  110      H     -11.0431417893    -1.0324907838     3.9723331180
  111      C     -12.1010567840    -0.7292276079     2.1819920024
  112      H     -12.9601853918    -1.2912390578     2.5379262174
  113      C     -11.9879713139    -0.2764824535     0.8226254214
  114      H     -12.7430453385    -0.4908413218     0.0729705055
  115      C     -10.8496658505     0.3416148279     0.3813937104
  116      H     -10.8436110162     0.7953220600    -0.6049668152
  117      C      -4.5963158561    -2.2531840078     2.0812224813
  118      C      -5.9644033206    -3.3764270254     0.4417326787
  119      C      -2.7701300659    -3.2951929338    -2.8260508816
  120      C      -3.1272461985     2.2529962178     0.3220396835
  121      C      -4.2334951957    -0.4694738138    -4.4256508164
  122      C      -5.8591178659    -2.5201458559     1.5187338540
  123      C      -2.6527615925     2.0310386385    -2.4294895625
  124      C      -2.5131382826    -3.6510820497    -0.4772032576
  125      C      -7.5969556155    -0.7129991790    -2.2200834515
  126      C      -4.0370145629     2.8002686698    -0.5816684476
  127      C      -7.7789347774     0.7665866817    -0.3887936695
  128      C      -7.0472885767     0.4741746694    -2.6660760525
  129      C      -5.0843816035     2.3778341178    -2.4985621149
  130      C      -2.7215914854     1.0908702194    -3.4891436521
  131      C      -7.4635037723    -1.6916009062     0.0496194509
  132      C      -2.0570714682    -1.2180539733    -3.6264433946
  133      C      -7.1045367628     1.0476004183     0.9793848999
  134      C      -5.8101990589     1.8859553279     0.8517253769
  135      C      -3.3035423339    -1.4847087828    -4.1058405093
  136      C      -1.0364677466    -0.5795756967     0.1769334647
  137      C      -1.0544763538    -2.0482643092    -1.5661682103
  138      C      -1.4516448914    -2.7589572389    -0.3855130056
  139      C      -3.4696095398    -3.6738383300     0.5490057297
  140      C      -4.9216027518     1.2756232462     1.6957658695
  141      C      -7.8573126201    -0.6554863688    -0.8276275251
  142      C      -4.7618734977    -3.9496386316     0.0066137527
  143      C      -3.8188903057     2.6911215349    -1.9260380810
  144      C      -6.9146560846    -2.8505764135    -0.4848690795
  145      C      -6.0753083354     0.4730822886    -3.6555057960
  146      C      -2.4893499735     0.6099203332     1.7362263910
  147      C      -3.1711563432    -3.9327791486    -1.6777148054
  148      C      -7.1500543278     1.3956151670    -1.6517562757
  149      C      -2.3213374519    -1.8778138393     1.6789160098
  150      C      -5.1015785046     1.4502775952    -3.5622129805
  151      C      -6.9920564815    -1.9562845996    -2.7436141581
  152      C      -1.0948615108     0.3441147494    -2.0099682542
  153      C      -1.7109497156     1.5502981536    -1.4981099541
  154      C      -5.9631824638    -1.9139420205    -3.6786517839
  155      C      -3.5346260495     1.5176924807     1.4830216262
  156      C      -5.4114404964     2.5982426171    -0.3208719225
  157      C      -1.5533998845     0.6194261312     0.6808231170
  158      C      -6.6138264747    -0.1763128781     1.7590063825
  159      C      -5.4704471304    -3.5956692285    -2.3491727547
  160      C      -6.0699041708     2.3191032066    -1.5193195763
  161      C      -5.5778883297    -0.6889411448    -4.1551675598
  162      C      -2.9366614892    -0.6710875223     2.1800915529
  163      C      -3.6746210340    -2.7715605277    -3.7046532898
  164      C      -3.3940171546    -2.7896707674     1.6514169564
  165      C      -1.6894781760    -2.3393170117    -2.7898470940
  166      C      -6.6974552190    -3.0409386711    -1.8935290793
  167      C      -5.0440099265    -2.9358182808    -3.4600179456
  168      C      -6.7984221281    -1.4997366505     1.2888500646
  169      C      -5.3276206223     0.0715517867     2.2145484916
  170      C      -0.7508148298    -0.6956009936    -1.1414251897
  171      C      -4.5064301362    -4.0802217174    -1.3884094538
  172      C      -3.9593720119     0.8343896769    -4.0320857296
  173      C      -1.9218263251     1.6574376327    -0.1244923991
  174      C      -1.7497612461     0.1079007008    -3.2220801549
  175      C      -4.3060051991    -0.9187273026     2.4311639399
  176      C      -1.3754633067    -1.8354341372     0.6668003730
 ----------------------------------------------------------------

    9   -5804.2540886578      8.68E-06 Convergence criterion met
 Total energy in the final basis set = -5804.2540886578

                    Orbital Energies (a.u.)
 --------------------------------------------------------------

 Alpha MOs
 -- Occupied --
-19.204 -19.181 -19.140 -19.138 -10.323 -10.313 -10.249 -10.244
-10.243 -10.242 -10.241 -10.241 -10.239 -10.238 -10.231 -10.230
-10.229 -10.229 -10.227 -10.227 -10.226 -10.226 -10.225 -10.225
-10.224 -10.224 -10.223 -10.222 -10.222 -10.222 -10.221 -10.221
-10.221 -10.220 -10.220 -10.220 -10.220 -10.220 -10.220 -10.219
-10.219 -10.219 -10.219 -10.219 -10.218 -10.218 -10.217 -10.217
-10.217 -10.217 -10.217 -10.217 -10.217 -10.216 -10.216 -10.216
-10.216 -10.216 -10.216 -10.215 -10.215 -10.215 -10.215 -10.215
-10.215 -10.215 -10.215 -10.215 -10.215 -10.214 -10.214 -10.214
-10.214 -10.214 -10.214 -10.214 -10.214 -10.214 -10.214 -10.214
-10.214 -10.214 -10.214 -10.214 -10.213 -10.213 -10.213 -10.213
-10.213 -10.213 -10.213 -10.212 -10.212 -10.212 -10.212 -10.212
-10.212 -10.212 -10.212 -10.212 -10.211 -10.211 -10.211 -10.211
-10.211 -10.210 -10.210 -10.210 -10.210 -10.210 -10.210 -10.210
-10.210 -10.209 -10.209 -10.209 -10.207 -10.207 -10.207 -10.207
-10.207 -10.207 -10.207 -10.206 -10.206 -10.206 -10.206 -10.205
-10.205 -10.205 -10.205 -10.204 -10.203 -10.203 -10.202 -10.201
-10.201 -10.200 -10.199 -10.199 -10.198 -10.194 -10.194 -10.193
-10.193 -10.192 -10.191 -10.187  -1.107  -1.105  -1.017  -1.002
 -0.982  -0.980  -0.965  -0.964  -0.961  -0.959  -0.958  -0.957
 -0.931  -0.928  -0.927  -0.925  -0.924  -0.922  -0.922  -0.921
 -0.920  -0.915  -0.897  -0.893  -0.890  -0.888  -0.887  -0.880
 -0.873  -0.871  -0.849  -0.848  -0.840  -0.839  -0.838  -0.836
 -0.835  -0.835  -0.819  -0.818  -0.805  -0.802  -0.797  -0.797
 -0.795  -0.795  -0.793  -0.791  -0.790  -0.789  -0.783  -0.781
 -0.770  -0.768  -0.767  -0.766  -0.764  -0.764  -0.762  -0.760
 -0.750  -0.743  -0.742  -0.741  -0.733  -0.730  -0.715  -0.713
 -0.713  -0.712  -0.711  -0.711  -0.711  -0.710  -0.707  -0.707
 -0.705  -0.704  -0.704  -0.703  -0.701  -0.700  -0.672  -0.671
 -0.657  -0.656  -0.656  -0.652  -0.649  -0.645  -0.631  -0.630
 -0.627  -0.627  -0.625  -0.622  -0.622  -0.621  -0.615  -0.614
 -0.613  -0.612  -0.611  -0.611  -0.609  -0.608  -0.607  -0.605
 -0.603  -0.603  -0.601  -0.601  -0.572  -0.562  -0.560  -0.559
 -0.559  -0.558  -0.558  -0.556  -0.554  -0.552  -0.550  -0.549
 -0.536  -0.535  -0.534  -0.531  -0.528  -0.527  -0.525  -0.523
 -0.522  -0.520  -0.518  -0.518  -0.514  -0.514  -0.513  -0.511
 -0.511  -0.507  -0.504  -0.501  -0.494  -0.493  -0.489  -0.486
 -0.484  -0.483  -0.481  -0.480  -0.478  -0.477  -0.476  -0.475
 -0.472  -0.472  -0.469  -0.468  -0.468  -0.468  -0.465  -0.464
 -0.464  -0.463  -0.462  -0.461  -0.460  -0.460  -0.460  -0.458
 -0.453  -0.451  -0.451  -0.449  -0.448  -0.444  -0.443  -0.443
 -0.440  -0.440  -0.439  -0.438  -0.436  -0.436  -0.432  -0.432
 -0.429  -0.428  -0.428  -0.428  -0.427  -0.424  -0.424  -0.423
 -0.422  -0.421  -0.421  -0.420  -0.420  -0.417  -0.417  -0.416
 -0.416  -0.415  -0.415  -0.414  -0.414  -0.413  -0.412  -0.410
 -0.410  -0.409  -0.408  -0.407  -0.402  -0.401  -0.400  -0.397
 -0.394  -0.392  -0.392  -0.389  -0.388  -0.386  -0.382  -0.380
 -0.376  -0.374  -0.372  -0.371  -0.369  -0.367  -0.366  -0.364
 -0.363  -0.362  -0.361  -0.360  -0.360  -0.359  -0.358  -0.357
 -0.355  -0.354  -0.353  -0.352  -0.352  -0.351  -0.350  -0.350
 -0.349  -0.348  -0.347  -0.347  -0.347  -0.344  -0.342  -0.341
 -0.341  -0.339  -0.338  -0.338  -0.337  -0.335  -0.334  -0.333
 -0.332  -0.330  -0.328  -0.327  -0.327  -0.326  -0.324  -0.323
 -0.307  -0.302  -0.299  -0.299  -0.287  -0.283  -0.277  -0.271
 -0.270  -0.270  -0.268  -0.268  -0.266  -0.264  -0.263  -0.262
 -0.261  -0.260  -0.258  -0.258  -0.256  -0.255  -0.253  -0.251
 -0.249  -0.247  -0.244  -0.242  -0.223  -0.222  -0.211  -0.210
 -0.209  -0.207  -0.205  -0.203  -0.198  -0.195

          Ground-State Mulliken Net Atomic Charges

     Atom                 Charge (a.u.)
  ----------------------------------------
      1 O                    -0.440894
      2 C                    -0.089539
      3 H                     0.115887
      4 H                     0.126425
      5 H                     0.121791
      6 O                    -0.485649
      7 C                     0.604186
      8 C                    -0.271279
      9 H                     0.133861
     10 H                     0.142463
     11 C                    -0.171537
     12 H                     0.116457
     13 H                     0.129803
     14 C                    -0.196708
     15 H                     0.109532
     16 H                     0.107616
     17 C                     0.001046
     18 C                     0.075625
     19 C                    -0.103405
     20 H                     0.095637
     21 C                    -0.105412
     22 H                     0.095610
     23 C                    -0.085161
     24 H                     0.099041
     25 C                    -0.095735
     26 H                     0.086482
     27 C                    -0.090847
     28 H                     0.096200
     29 C                    -0.003559
     30 C                     0.003143
     31 C                    -0.003536
     32 C                    -0.025618
     33 C                    -0.005135
     34 C                    -0.007145
     35 C                     0.028753
     36 C                    -0.002401
     37 C                     0.008402
     38 C                    -0.012084
     39 C                    -0.101460
     40 C                     0.026247
     41 C                    -0.027017
     42 C                    -0.020583
     43 C                     0.026245
     44 C                     0.007306
     45 C                    -0.067193
     46 C                    -0.010332
     47 C                     0.013647
     48 C                    -0.002626
     49 C                    -0.006746
     50 C                    -0.009908
     51 C                     0.009640
     52 C                     0.000383
     53 C                     0.019319
     54 C                     0.026286
     55 C                     0.000339
     56 C                    -0.027736
     57 C                     0.010057
     58 C                    -0.017573
     59 C                     0.002768
     60 C                     0.034971
     61 C                    -0.018057
     62 C                     0.002157
     63 C                    -0.009397
     64 C                     0.014712
     65 C                    -0.006232
     66 C                    -0.021397
     67 C                     0.050134
     68 C                     0.017465
     69 C                     0.011430
     70 C                     0.005811
     71 C                     0.029850
     72 C                     0.005728
     73 C                    -0.025333
     74 C                    -0.017059
     75 C                    -0.010805
     76 C                    -0.007175
     77 C                    -0.005575
     78 C                     0.008052
     79 C                     0.009130
     80 C                     0.012724
     81 C                     0.001176
     82 C                    -0.021467
     83 C                    -0.035603
     84 C                     0.002588
     85 C                    -0.024159
     86 C                     0.005343
     87 C                     0.008459
     88 C                     0.026579
     89 O                    -0.498666
     90 C                    -0.089579
     91 H                     0.133267
     92 H                     0.133766
     93 H                     0.130589
     94 O                    -0.430675
     95 C                     0.607025
     96 C                    -0.271161
     97 H                     0.137599
     98 H                     0.126871
     99 C                    -0.182639
    100 H                     0.126904
    101 H                     0.102498
    102 C                    -0.177261
    103 H                     0.103473
    104 H                     0.101893
    105 C                     0.032598
    106 C                     0.098323
    107 C                    -0.121838
    108 H                     0.116012
    109 C                    -0.091234
    110 H                     0.091696
    111 C                    -0.083073
    112 H                     0.089939
    113 C                    -0.095283
    114 H                     0.088544
    115 C                    -0.101829
    116 H                     0.082095
    117 C                     0.012753
    118 C                    -0.013346
    119 C                     0.008708
    120 C                    -0.004155
    121 C                    -0.021714
    122 C                     0.021913
    123 C                    -0.005965
    124 C                     0.016638
    125 C                    -0.024642
    126 C                    -0.004821
    127 C                    -0.105591
    128 C                     0.029804
    129 C                    -0.018858
    130 C                     0.003081
    131 C                     0.032285
    132 C                    -0.024730
    133 C                    -0.100403
    134 C                     0.037947
    135 C                     0.040644
    136 C                     0.062826
    137 C                    -0.024800
    138 C                    -0.006320
    139 C                    -0.016476
    140 C                     0.025340
    141 C                     0.043232
    142 C                     0.006872
    143 C                    -0.001859
    144 C                    -0.006705
    145 C                     0.023299
    146 C                    -0.063532
    147 C                     0.019664
    148 C                     0.025765
    149 C                    -0.008476
    150 C                     0.003707
    151 C                    -0.030201
    152 C                     0.006034
    153 C                    -0.022410
    154 C                     0.029517
    155 C                    -0.005236
    156 C                    -0.033356
    157 C                     0.028526
    158 C                     0.023122
    159 C                    -0.002521
    160 C                     0.002760
    161 C                    -0.009858
    162 C                    -0.003926
    163 C                    -0.004954
    164 C                    -0.012763
    165 C                    -0.029973
    166 C                    -0.026288
    167 C                     0.004846
    168 C                    -0.006474
    169 C                     0.002309
    170 C                    -0.010841
    171 C                    -0.014984
    172 C                     0.004969
    173 C                     0.005436
    174 C                    -0.005018
    175 C                    -0.001030
    176 C                    -0.007058
  ----------------------------------------
  Sum of atomic charges =     0.000000

                    Cartesian Multipole Moments
 -----------------------------------------------------------------
    Charge (ESU x 10^10)
                 0.0000
    Dipole Moment (Debye)
         X      -0.7422      Y       0.2440      Z       1.2304
       Tot       1.4575
    Quadrupole Moments (Debye-Ang)
        XX    -769.6728     XY     -33.3295     YY    -807.2174
        XZ      -3.1199     YZ       8.1348     ZZ    -794.8889

 Total job time:  870.28s(wall), 8245.33s(cpu)
        *  Thank you very much for using Q-Chem.  Have a nice day.  *
