 Q-Chem 4.4, Q-Chem, Inc., Pleasanton, CA (2016)
 Q-Chem 4.4.2 for Intel X86 Linux

User input:
--------------------------------------------------------------
$comment
SP
$end

$rem
MEM_STATIC 5000
MEM_TOTAL 20000
JOBTYPE SP
EXCHANGE B3LYP
BASIS 6-31g(d,p)
$end

$molecule
0 1
O         -12.442000      3.160000     -3.806000
C         -11.058000      2.977000     -3.786000
H         -10.748000      2.707000     -2.769000
H         -10.500000      3.919000     -3.857000
H         -10.750000      2.195000     -4.490000
O         -12.854000      0.988000     -3.131000
C         -13.210000      2.151000     -3.286000
C         -14.567000      2.639000     -3.016000
H         -15.136000      1.741000     -2.745000
H         -14.965000      3.038000     -3.957000
C         -14.685000      3.627000     -1.887000
H         -14.259000      3.162000     -0.989000
H         -14.132000      4.548000     -2.108000
C         -16.126000      3.853000     -1.449000
H         -16.643000      3.787000     -2.414000
H         -16.491000      2.949000     -0.946000
C         -16.390000      5.101000     -0.518000
C         -16.039000      4.906000      0.951000
C         -16.930000      4.323000      1.864000
H         -17.935000      4.003000      1.603000
C         -16.556000      4.013000      3.171000
H         -17.334000      3.525000      3.750000
C         -15.273000      4.446000      3.670000
H         -14.885000      4.301000      4.674000
C         -14.447000      5.127000      2.778000
H         -13.419000      5.434000      2.942000
C         -14.818000      5.418000      1.401000
H         -14.047000      5.912000      0.817000
C         -19.670000      9.419000      0.529000
C         -17.410000     10.393000      0.635000
C         -17.754000     12.709000     -3.286000
C         -20.315000      6.974000     -3.787000
C         -16.008000     10.395000     -5.178000
C         -18.289000      9.310000      0.914000
C         -18.868000      8.216000     -5.741000
C         -19.430000     12.425000     -1.507000
C         -14.902000      8.378000     -1.774000
C         -19.105000      6.421000     -4.178000
C         -16.163000      6.359000     -1.328000
C         -15.120000      7.709000     -3.004000
C         -17.024000      6.957000     -4.916000
C         -18.039000      9.318000     -6.028000
C         -16.292000      8.442000      0.212000
C         -18.110000     11.642000     -5.246000
C         -17.529000      6.031000     -0.846000
C         -18.519000      5.903000     -1.876000
C         -16.751000     11.564000     -4.879000
C         -21.420000     10.314000     -3.372000
C         -20.051000     12.067000     -3.866000
C         -20.394000     12.105000     -2.471000
C         -19.296000     11.769000     -0.285000
C         -19.752000      6.463000     -1.449000
C         -15.615000      7.651000     -0.768000
C         -17.893000     11.559000      0.001000
C         -18.408000      7.060000     -5.163000
C         -16.177000      9.834000      0.225000
C         -15.224000      8.420000     -4.255000
C         -21.414000      8.106000     -2.191000
C         -18.092000     12.788000     -1.918000
C         -15.844000      6.514000     -2.851000
C         -21.112000     10.217000     -1.009000
C         -16.196000      8.031000     -5.191000
C         -14.874000      9.766000     -1.829000
C         -20.047000     10.216000     -5.344000
C         -20.104000      8.774000     -5.353000
C         -14.975000     10.488000     -2.991000
C         -20.652000      6.901000     -2.424000
C         -18.204000      5.915000     -3.254000
C         -21.429000      8.896000     -3.350000
C         -18.252000      6.998000      0.115000
C         -15.934000     11.734000     -1.410000
C         -16.895000      6.213000     -3.734000
C         -15.194000      9.812000     -4.191000
C         -21.183000      8.827000     -1.068000
C         -16.489000     12.229000     -3.678000
C         -20.152000     10.648000     -0.067000
C         -18.774000     12.383000     -4.261000
C         -15.472000     10.523000     -0.781000
C         -15.541000     11.713000     -2.766000
C         -17.631000      8.100000      0.626000
C         -19.609000      7.080000     -0.221000
C         -20.712000     10.964000     -4.388000
C         -17.194000     12.193000     -1.026000
C         -16.634000      9.264000     -5.759000
C         -20.843000      8.142000     -4.333000
C         -18.778000     10.528000     -5.786000
C         -20.330000      8.295000     -0.028000
C         -21.178000     10.954000     -2.154000
O          -9.077000     13.992000      9.537000
C         -10.494000     14.511000      9.570000
H         -11.112000     13.947000     10.280000
H         -10.910000     14.307000      8.576000
H         -10.507000     15.578000      9.823000
O          -8.428000     15.178000      7.790000
C          -8.158000     14.453000      8.647000
C          -6.850000     13.671000      8.757000
H          -7.003000     12.585000      8.794000
H          -6.473000     13.853000      9.771000
C          -5.836000     13.951000      7.683000
H          -5.861000     15.006000      7.383000
H          -4.808000     13.875000      8.059000
C          -6.021000     13.054000      6.451000
H          -5.088000     13.083000      5.876000
H          -6.258000     12.038000      6.790000
C          -7.046000     13.464000      5.373000
C          -6.711000     14.676000      4.643000
C          -7.279000     15.888000      4.879000
H          -8.196000     15.927000      5.461000
C          -6.857000     17.109000      4.233000
H          -7.334000     18.067000      4.421000
C          -5.769000     17.099000      3.406000
H          -5.471000     18.011000      2.896000
C          -5.207000     15.817000      3.080000
H          -4.472000     15.687000      2.292000
C          -5.675000     14.675000      3.671000
H          -5.143000     13.742000      3.512000
C         -12.550000     13.661000      4.329000
C         -11.500000     13.450000      2.167000
C         -13.010000      9.199000      1.434000
C         -10.916000     10.006000      7.416000
C          -9.909000      7.745000      2.411000
C         -11.491000     13.958000      3.450000
C         -10.549000      7.666000      5.921000
C         -14.131000     11.038000      2.469000
C          -8.012000     11.300000      2.403000
C          -9.625000      9.579000      7.108000
C          -7.694000     12.342000      4.498000
C          -7.718000     10.267000      3.273000
C          -8.394000      8.749000      5.451000
C         -10.635000      7.181000      4.591000
C          -9.322000     13.349000      2.864000
C         -12.289000      7.504000      2.873000
C          -8.524000     12.979000      5.643000
C          -9.105000     11.930000      6.621000
C         -11.269000      7.858000      2.043000
C         -13.980000      9.763000      5.693000
C         -14.159000      8.890000      3.595000
C         -14.566000     10.264000      3.538000
C         -13.693000     12.348000      2.715000
C         -10.392000     12.342000      6.841000
C          -8.209000     12.513000      3.110000
C         -12.621000     12.679000      1.831000
C          -9.435000      8.443000      6.373000
C         -10.180000     13.033000      1.818000
C          -8.192000      8.986000      3.032000
C         -12.699000     11.343000      7.042000
C         -13.367000     10.525000      1.417000
C          -7.489000     10.811000      4.514000
C         -14.068000     12.045000      5.079000
C          -8.514000      8.230000      4.144000
C          -8.961000     10.992000      1.312000
C         -12.784000      7.759000      5.254000
C         -11.841000      8.076000      6.306000
C          -9.476000      9.710000      1.151000
C         -11.321000     11.378000      7.326000
C          -8.701000     10.561000      6.684000
C         -13.118000     10.025000      6.764000
C          -9.779000     13.751000      5.224000
C         -11.135000     11.068000      0.659000
C          -7.936000     10.049000      5.635000
C          -9.021000      8.725000      1.987000
C         -13.122000     12.353000      6.126000
C         -11.743000      8.797000      1.122000
C         -13.654000     12.882000      4.025000
C         -13.411000      8.350000      2.530000
C         -10.010000     11.874000      0.984000
C         -10.799000      9.751000      0.721000
C         -10.149000     13.919000      3.867000
C         -10.833000     13.364000      6.038000
C         -13.856000      8.615000      4.986000
C         -12.456000     11.491000      1.063000
C          -9.597000      7.477000      3.738000
C         -12.047000      9.232000      7.057000
C         -11.996000      7.220000      4.233000
C         -12.222000     13.340000      5.662000
C         -14.492000     10.745000      4.853000
$end

--------------------------------------------------------------

             Standard Nuclear Orientation (Angstroms)
    I     Atom           X                Y                Z
 ----------------------------------------------------------------
    1      O       4.4791875342    -5.9951355948     3.8421181927
    2      C       3.5662961301    -6.6275293479     4.6883170022
    3      H       2.7922897215    -7.1121519881     4.0805802368
    4      H       2.9103204811    -5.9228454864     5.2145162071
    5      H       4.0619156102    -7.3710520076     5.3235645017
    6      O       5.0582298241    -7.9749474289     2.7990419117
    7      C       5.0169271848    -6.7499965930     2.8325014626
    8      C       5.6245078832    -5.8783435762     1.8207901830
    9      H       6.1459014933    -6.5637071155     1.1410611766
   10      H       6.3681809749    -5.2536310766     2.3304671646
   11      C       4.6572552305    -5.0593266823     1.0094070223
   12      H       3.9435484207    -5.7495461586     0.5421547733
   13      H       4.1074202338    -4.3535228948     1.6437677162
   14      C       5.3032827692    -4.4261409246    -0.2157971303
   15      H       6.2997870080    -4.1936247530     0.1788996293
   16      H       5.5370361007    -5.2142682065    -0.9422025044
   17      C       4.4771029231    -3.2904664203    -0.9380375905
   18      C       3.3613466819    -3.7761039867    -1.8536964595
   19      C       3.5919403817    -4.1419794811    -3.1879755413
   20      H       4.5629023786    -4.0747618672    -3.6709461336
   21      C       2.6018450076    -4.7221255555    -3.9800403635
   22      H       2.9353580713    -4.9941334055    -4.9767598656
   23      C       1.2483904543    -4.8061551825    -3.4864020405
   24      H       0.3868741794    -5.1981244453    -4.0190696714
   25      C       1.0168976506    -4.3297926679    -2.1975301165
   26      H       0.0961628885    -4.4044397774    -1.6277895554
   27      C       2.0558861228    -3.7594923485    -1.3527156396
   28      H       1.7284246530    -3.4789186408    -0.3559306174
   29      C       4.6487517403     1.7001374585    -3.2968810800
   30      C       2.6873036707     1.8480200774    -1.8141929128
   31      C       4.6556627599     4.6262443387     1.2294012536
   32      C       8.6639102609     0.1776734688    -0.7312405255
   33      C       5.4207201271     2.1251070117     3.4969495544
   34      C       3.4804891941     1.0914537563    -2.7207441398
   35      C       8.4916834408     1.1078124141     1.8299444472
   36      C       4.7794341013     4.6898626742    -1.2272440937
   37      C       3.1533675149    -0.5603815288     1.3695087372
   38      C       8.2572381783    -0.6906131770     0.2705010170
   39      C       4.4170794658    -2.0865839865    -0.0230199567
   40      C       4.3121133504    -0.9569511913     2.0822678770
   41      C       7.1043095249    -0.7854166691     2.2260747993
   42      C       7.7319932904     1.8997331106     2.7129769981
   43      C       2.8305875577    -0.2925949335    -1.0188998205
   44      C       6.5084208918     3.9962796485     2.3595591159
   45      C       5.1674917151    -2.0017585683    -1.3019062317
   46      C       6.5545710983    -1.6621363255    -1.1675502988
   47      C       5.3565908756     3.4261597284     2.9391321402
   48      C       8.0540410897     3.6134822772    -1.3412630058
   49      C       6.8345479507     4.8613286978     0.1239747888
   50      C       6.1703149635     4.8329768024    -1.1500380481
   51      C       4.1254655382     3.8766399571    -2.1505912282
   52      C       6.9519217597    -0.7842642852    -2.2104650282
   53      C       3.2489999224    -1.1317155182     0.0605526970
   54      C       3.0387121161     3.1788474183    -1.4976306073
   55      C       8.1886341413    -0.1989140264     1.5424603054
   56      C       2.2787769078     0.9689188816    -0.7840681768
   57      C       4.9454260561    -0.0985655862     3.0535696683
   58      C       8.0320640399     1.3970457736    -2.5061609562
   59      C       3.9915222421     4.6380001535    -0.0158650526
   60      C       5.1153341320    -1.8535599115     1.3566376826
   61      C       6.3652877056     3.1199118564    -2.9514003439
   62      C       6.3469863980    -0.0208673695     3.0959087202
   63      C       2.7066766208     0.7348879763     1.5999369345
   64      C       8.3910218233     3.3177644293     1.0214709910
   65      C       8.9166587145     1.9897736836     0.8144916734
   66      C       3.2774757015     1.5912331846     2.5069045711
   67      C       8.0528939278     0.0476394658    -1.9907710725
   68      C       7.2107506552    -1.5799251695     0.0818186279
   69      C       8.5185786910     2.2880702439    -1.5381811592
   70      C       4.7345181368    -0.9804403409    -2.3746512895
   71      C       2.5200046220     2.8726782978     0.8468160236
   72      C       6.5086378910    -1.6741556396     1.3190911464
   73      C       4.4201128594     1.1846323607     3.1953761358
   74      C       6.9152172051     1.8515379355    -3.1229437563
   75      C       4.1871194096     3.8080962900     2.2760100149
   76      C       4.9542438416     3.0846907184    -3.0007935142
   77      C       6.0944462630     4.7837127684     1.2784596347
   78      C       2.2013573079     1.5073810388     0.5151033710
   79      C       3.1189784880     2.8953837510     2.1252294037
   80      C       3.6102855092    -0.2211512912    -2.2306126208
   81      C       5.8638543867    -0.4111901498    -2.9760021476
   82      C       7.9939069065     4.1157643842    -0.0373778249
   83      C       2.9971732841     3.6705557582    -0.1931063899
   84      C       6.6027321749     1.3492757331     3.3993209414
   85      C       8.9897733113     1.5140854083    -0.5100157522
   86      C       7.6877856661     3.2450438265     2.2060551464
   87      C       5.8367349806     0.9390654156    -3.4335930632
   88      C       6.8959424162     3.9765136643    -2.0331471540
   89      O      -9.9760739466     1.3170692507    -2.8113150430
   90      C      -9.1859888877     2.2677597033    -3.6775091685
   91      H      -9.0218247474     1.8549916357    -4.6808997492
   92      H      -8.1951588552     2.3414804265    -3.2132580493
   93      H      -9.6937365634     3.2373318463    -3.7467129081
   94      O      -9.7075228329     2.4330315878    -0.9239056117
   95      C     -10.2001447958     1.5566856799    -1.4916339371
   96      C     -10.9181435859     0.3780625603    -0.8360324733
   97      H     -10.4737609990    -0.5911602838    -1.0954649209
   98      H     -11.8873194081     0.2941574721    -1.3430898290
   99      C     -11.0305364856     0.4404050652     0.6618170679
  100      H     -11.1732371189     1.4731303125     1.0035261442
  101      H     -11.9589169967    -0.0192697762     1.0234033879
  102      C      -9.8174869298    -0.1799911698     1.3691198932
  103      H     -10.1083000893    -0.3889613508     2.4053216929
  104      H      -9.5307114264    -1.0943736418     0.8352561413
  105      C      -8.5546887121     0.6802838974     1.5837741972
  106      C      -8.7254143936     1.7951802535     2.5013404655
  107      C      -8.8852086615     3.0864407135     2.1084330762
  108      H      -8.6326211770     3.3527848304     1.0854988779
  109      C      -9.1729247311     4.1702188545     3.0188645148
  110      H      -9.2806919539     5.1999765083     2.6892853890
  111      C      -9.3976522536     3.9054881552     4.3406769816
  112      H      -9.5830787616     4.7241945627     5.0305935189
  113      C      -9.1529710112     2.5622346171     4.7895032530
  114      H      -9.1174694826     2.2973730539     5.8414809114
  115      C      -8.8245448708     1.5745577657     3.9011904097
  116      H      -8.7817953831     0.5462478608     4.2469435310
  117      C      -4.1322797398     2.8218260739    -1.1141614930
  118      C      -3.4121726962     2.5517269099     1.1727047661
  119      C      -0.4800988963    -0.8284070797     0.2420988105
  120      C      -6.0185013305    -1.5295921893    -2.8651261442
  121      C      -2.7723674336    -3.3399522608     1.3015759252
  122      C      -4.4059602015     2.8603217663     0.2663992939
  123      C      -4.5403818771    -3.6484549282    -1.7830459368
  124      C      -0.9743420112     1.1305973191    -1.0337587477
  125      C      -5.2687278044    -0.6444225274     2.9565690839
  126      C      -6.5763307868    -2.3175052514    -1.8591970689
  127      C      -7.1728766808    -0.0424169425     1.6965217309
  128      C      -5.6837164460    -1.8183077965     2.3564001058
  129      C      -6.0978347612    -3.2905485440     0.0835170902
  130      C      -3.4708066157    -3.9040415698    -0.8873868339
  131      C      -5.3355612859     1.6466139236     2.0218459883
  132      C      -1.3340261027    -2.8351260848    -0.5990160216
  133      C      -7.5389866970     0.6824527239     0.3750750150
  134      C      -7.4099052954    -0.2300894942    -0.8679256656
  135      C      -1.6308632707    -2.7366543658     0.7264299472
  136      C      -2.7108581291    -0.5217646146    -3.5431040433
  137      C      -0.9576134553    -1.0114775475    -2.1712117890
  138      C      -1.0962887089     0.4151542057    -2.2188039597
  139      C      -1.8717531054     2.1787261559    -0.7797129458
  140      C      -6.7937286885     0.5536769495    -1.8063016834
  141      C      -5.9869036691     0.4648371287     2.4429608260
  142      C      -2.1625970448     2.2453333934     0.6171314545
  143      C      -5.8610826721    -3.3488980692    -1.3193174621
  144      C      -3.9673206947     1.7687682014     2.2295284792
  145      C      -4.7741545924    -2.8280295010     2.0791325205
  146      C      -4.9871272753     0.3589240930    -3.5552767144
  147      C      -0.6630203256     0.5316867133     0.1901505195
  148      C      -6.8154809752    -1.5436389595     1.6269317511
  149      C      -3.0182328100     1.7188558500    -2.8521592271
  150      C      -5.0079938436    -3.5695768595     0.9358081047
  151      C      -3.8112567638    -0.4788963656     3.1412993077
  152      C      -2.5938808351    -2.7357448593    -2.6923627261
  153      C      -4.0253079519    -2.8859041649    -2.8501936234
  154      C      -2.9239161619    -1.4861455602     2.7769564522
  155      C      -6.1368510640    -0.1012923857    -2.8866205977
  156      C      -7.2746391434    -1.6518163867    -0.8261918538
  157      C      -4.0798352510    -0.6989082124    -3.7738653602
  158      C      -6.6573740709     1.8734925691    -0.0131945621
  159      C      -1.9103829403     0.3959189164     2.2582149799
  160      C      -6.9662584487    -2.2505055224     0.3962003361
  161      C      -3.4450101576    -2.6641996572     2.3113433164
  162      C      -4.4455562945     1.5599250533    -3.0053834828
  163      C      -1.0270379712    -1.5844845072     1.2388142022
  164      C      -2.9122550534     2.4982452711    -1.6841687111
  165      C      -0.6178957884    -1.6286701250    -0.9509682768
  166      C      -3.1673783488     0.7351059251     2.8290045352
  167      C      -1.7445783870    -0.9545284224     2.2636771603
  168      C      -5.5908665952     2.3259309253     0.8019338561
  169      C      -6.3157291887     1.7574784572    -1.3522615882
  170      C      -1.9636396946    -1.5460617478    -3.0681208918
  171      C      -1.3916193804     1.1778169705     1.1597133633
  172      C      -3.7461544043    -3.8628291886     0.4598897283
  173      C      -4.7463121614    -1.8325476222    -3.4099845878
  174      C      -2.3103376975    -3.3708628588    -1.4798717299
  175      C      -5.1033508205     2.2433354346    -1.9567073591
  176      C      -2.1466310994     0.6728887156    -3.1112252644
 ----------------------------------------------------------------

    9   -5804.2546098575      7.81E-06 Convergence criterion met
 Total energy in the final basis set = -5804.2546098575

                    Orbital Energies (a.u.)
 --------------------------------------------------------------

 Alpha MOs
 -- Occupied --
-19.192 -19.182 -19.141 -19.138 -10.315 -10.314 -10.251 -10.245
-10.242 -10.242 -10.240 -10.239 -10.239 -10.236 -10.230 -10.230
-10.229 -10.227 -10.225 -10.225 -10.225 -10.223 -10.223 -10.223
-10.223 -10.222 -10.222 -10.222 -10.221 -10.221 -10.221 -10.221
-10.220 -10.220 -10.220 -10.219 -10.219 -10.219 -10.219 -10.219
-10.219 -10.218 -10.218 -10.218 -10.218 -10.218 -10.218 -10.218
-10.217 -10.217 -10.217 -10.217 -10.217 -10.217 -10.217 -10.217
-10.216 -10.216 -10.216 -10.216 -10.216 -10.216 -10.216 -10.216
-10.215 -10.215 -10.215 -10.215 -10.215 -10.215 -10.215 -10.215
-10.215 -10.215 -10.215 -10.214 -10.214 -10.214 -10.214 -10.214
-10.214 -10.214 -10.214 -10.214 -10.214 -10.214 -10.213 -10.213
-10.213 -10.213 -10.213 -10.213 -10.213 -10.213 -10.213 -10.213
-10.213 -10.213 -10.213 -10.213 -10.212 -10.212 -10.212 -10.211
-10.211 -10.211 -10.211 -10.210 -10.210 -10.210 -10.210 -10.210
-10.210 -10.209 -10.209 -10.209 -10.209 -10.209 -10.208 -10.208
-10.207 -10.207 -10.207 -10.207 -10.206 -10.206 -10.206 -10.205
-10.205 -10.204 -10.204 -10.204 -10.203 -10.203 -10.202 -10.201
-10.200 -10.200 -10.199 -10.196 -10.195 -10.195 -10.194 -10.194
-10.194 -10.193 -10.192 -10.188  -1.109  -1.099  -1.018  -1.013
 -0.983  -0.982  -0.966  -0.964  -0.962  -0.962  -0.959  -0.958
 -0.934  -0.929  -0.926  -0.925  -0.925  -0.924  -0.921  -0.921
 -0.920  -0.919  -0.894  -0.894  -0.889  -0.888  -0.886  -0.883
 -0.875  -0.872  -0.850  -0.849  -0.842  -0.842  -0.840  -0.839
 -0.837  -0.835  -0.825  -0.821  -0.816  -0.806  -0.798  -0.797
 -0.797  -0.795  -0.795  -0.793  -0.791  -0.789  -0.785  -0.782
 -0.772  -0.769  -0.769  -0.768  -0.766  -0.765  -0.764  -0.763
 -0.747  -0.747  -0.743  -0.742  -0.737  -0.731  -0.717  -0.716
 -0.714  -0.713  -0.713  -0.712  -0.711  -0.710  -0.709  -0.709
 -0.706  -0.705  -0.705  -0.703  -0.703  -0.701  -0.673  -0.673
 -0.659  -0.659  -0.656  -0.654  -0.651  -0.651  -0.632  -0.631
 -0.628  -0.626  -0.624  -0.624  -0.623  -0.618  -0.617  -0.616
 -0.614  -0.613  -0.613  -0.613  -0.612  -0.610  -0.608  -0.606
 -0.604  -0.603  -0.602  -0.600  -0.572  -0.568  -0.564  -0.561
 -0.561  -0.560  -0.557  -0.555  -0.554  -0.553  -0.553  -0.550
 -0.539  -0.536  -0.533  -0.532  -0.529  -0.528  -0.524  -0.523
 -0.523  -0.522  -0.519  -0.519  -0.516  -0.513  -0.513  -0.512
 -0.512  -0.507  -0.505  -0.502  -0.494  -0.492  -0.488  -0.487
 -0.486  -0.485  -0.484  -0.483  -0.481  -0.479  -0.477  -0.476
 -0.473  -0.472  -0.470  -0.469  -0.468  -0.467  -0.466  -0.465
 -0.464  -0.464  -0.463  -0.463  -0.462  -0.460  -0.459  -0.458
 -0.456  -0.453  -0.452  -0.451  -0.450  -0.450  -0.447  -0.445
 -0.443  -0.442  -0.440  -0.438  -0.438  -0.437  -0.434  -0.433
 -0.431  -0.430  -0.429  -0.429  -0.426  -0.425  -0.425  -0.423
 -0.422  -0.421  -0.421  -0.420  -0.418  -0.418  -0.417  -0.417
 -0.417  -0.416  -0.416  -0.415  -0.414  -0.413  -0.413  -0.411
 -0.411  -0.410  -0.408  -0.408  -0.404  -0.403  -0.400  -0.398
 -0.395  -0.395  -0.393  -0.392  -0.391  -0.386  -0.385  -0.384
 -0.378  -0.375  -0.373  -0.371  -0.368  -0.366  -0.365  -0.363
 -0.362  -0.362  -0.361  -0.361  -0.360  -0.360  -0.359  -0.357
 -0.355  -0.355  -0.353  -0.353  -0.352  -0.351  -0.350  -0.349
 -0.349  -0.348  -0.348  -0.347  -0.345  -0.343  -0.343  -0.342
 -0.340  -0.339  -0.338  -0.338  -0.337  -0.337  -0.335  -0.333
 -0.331  -0.331  -0.330  -0.330  -0.329  -0.325  -0.324  -0.323
 -0.308  -0.303  -0.300  -0.299  -0.290  -0.285  -0.278  -0.273
 -0.270  -0.270  -0.270  -0.267  -0.267  -0.265  -0.264  -0.263
 -0.262  -0.261  -0.259  -0.257  -0.257  -0.255  -0.252  -0.251
 -0.249  -0.248  -0.246  -0.243  -0.226  -0.222  -0.213  -0.212
 -0.209  -0.208  -0.205  -0.204  -0.202  -0.197

          Ground-State Mulliken Net Atomic Charges

     Atom                 Charge (a.u.)
  ----------------------------------------
      1 O                    -0.451664
      2 C                    -0.082571
      3 H                     0.114452
      4 H                     0.118090
      5 H                     0.128813
      6 O                    -0.471899
      7 C                     0.593662
      8 C                    -0.250593
      9 H                     0.129179
     10 H                     0.132450
     11 C                    -0.181817
     12 H                     0.114001
     13 H                     0.119305
     14 C                    -0.207787
     15 H                     0.111210
     16 H                     0.108253
     17 C                     0.015480
     18 C                     0.076178
     19 C                    -0.097383
     20 H                     0.090865
     21 C                    -0.096373
     22 H                     0.093482
     23 C                    -0.092792
     24 H                     0.097890
     25 C                    -0.085347
     26 H                     0.091194
     27 C                    -0.107913
     28 H                     0.100816
     29 C                    -0.012498
     30 C                    -0.014611
     31 C                    -0.009258
     32 C                     0.004052
     33 C                    -0.010907
     34 C                    -0.019074
     35 C                     0.032942
     36 C                     0.006809
     37 C                    -0.000152
     38 C                    -0.003359
     39 C                    -0.075524
     40 C                    -0.004107
     41 C                    -0.001947
     42 C                    -0.017307
     43 C                     0.010348
     44 C                    -0.008669
     45 C                    -0.089975
     46 C                     0.047504
     47 C                     0.000871
     48 C                    -0.001999
     49 C                     0.005136
     50 C                    -0.008158
     51 C                    -0.019482
     52 C                     0.028742
     53 C                     0.020622
     54 C                     0.023446
     55 C                    -0.003856
     56 C                     0.002296
     57 C                    -0.011636
     58 C                    -0.043837
     59 C                    -0.036004
     60 C                     0.011597
     61 C                     0.024487
     62 C                     0.016551
     63 C                     0.001003
     64 C                     0.018883
     65 C                    -0.052060
     66 C                     0.050934
     67 C                    -0.025467
     68 C                     0.006713
     69 C                     0.017727
     70 C                     0.038441
     71 C                    -0.023379
     72 C                    -0.011172
     73 C                     0.000083
     74 C                     0.028707
     75 C                     0.023599
     76 C                    -0.008460
     77 C                     0.012767
     78 C                    -0.018042
     79 C                    -0.030185
     80 C                     0.011850
     81 C                    -0.010410
     82 C                     0.009638
     83 C                     0.032984
     84 C                    -0.022842
     85 C                     0.009530
     86 C                     0.000382
     87 C                    -0.014612
     88 C                    -0.005764
     89 O                    -0.498544
     90 C                    -0.089538
     91 H                     0.133081
     92 H                     0.133632
     93 H                     0.130801
     94 O                    -0.430795
     95 C                     0.606952
     96 C                    -0.271570
     97 H                     0.137468
     98 H                     0.127154
     99 C                    -0.182177
    100 H                     0.127044
    101 H                     0.102586
    102 C                    -0.176772
    103 H                     0.103608
    104 H                     0.101621
    105 C                     0.030491
    106 C                     0.099125
    107 C                    -0.122009
    108 H                     0.116045
    109 C                    -0.091743
    110 H                     0.091989
    111 C                    -0.082993
    112 H                     0.090281
    113 C                    -0.094954
    114 H                     0.088731
    115 C                    -0.101825
    116 H                     0.082018
    117 C                     0.012910
    118 C                    -0.013636
    119 C                     0.017231
    120 C                    -0.002305
    121 C                    -0.023790
    122 C                     0.022762
    123 C                    -0.005443
    124 C                     0.029070
    125 C                    -0.024310
    126 C                    -0.004323
    127 C                    -0.104023
    128 C                     0.029422
    129 C                    -0.018390
    130 C                     0.001337
    131 C                     0.033129
    132 C                    -0.058146
    133 C                    -0.099766
    134 C                     0.037088
    135 C                     0.031148
    136 C                     0.055727
    137 C                    -0.017300
    138 C                    -0.004162
    139 C                    -0.021542
    140 C                     0.026485
    141 C                     0.041829
    142 C                     0.007305
    143 C                    -0.001558
    144 C                    -0.005288
    145 C                     0.023926
    146 C                    -0.059418
    147 C                     0.024265
    148 C                     0.025521
    149 C                    -0.007238
    150 C                     0.002376
    151 C                    -0.030107
    152 C                    -0.001357
    153 C                    -0.021232
    154 C                     0.028625
    155 C                    -0.006535
    156 C                    -0.033743
    157 C                     0.023311
    158 C                     0.023424
    159 C                    -0.001499
    160 C                     0.003679
    161 C                    -0.010493
    162 C                    -0.004318
    163 C                    -0.011185
    164 C                    -0.013338
    165 C                    -0.001020
    166 C                    -0.027389
    167 C                     0.004635
    168 C                    -0.006808
    169 C                     0.002283
    170 C                    -0.014550
    171 C                    -0.021932
    172 C                     0.005081
    173 C                     0.002718
    174 C                     0.009518
    175 C                    -0.001286
    176 C                    -0.000152
  ----------------------------------------
  Sum of atomic charges =     0.000000

                    Cartesian Multipole Moments
 -----------------------------------------------------------------
    Charge (ESU x 10^10)
                 0.0000
    Dipole Moment (Debye)
         X      -4.3652      Y       0.7776      Z      -0.6649
       Tot       4.4835
    Quadrupole Moments (Debye-Ang)
        XX    -775.3284     XY       2.1057     YY    -829.2088
        XZ      -7.7503     YZ       5.0557     ZZ    -789.7610

 Total job time:  871.75s(wall), 8351.99s(cpu)
        *  Thank you very much for using Q-Chem.  Have a nice day.  *
