 Q-Chem 4.4, Q-Chem, Inc., Pleasanton, CA (2016)
 Q-Chem 4.4.2 for Intel X86 Linux

User input:
--------------------------------------------------------------
$comment
SP
$end

$rem
MEM_STATIC 5000
MEM_TOTAL 20000
JOBTYPE SP
EXCHANGE B3LYP
BASIS 6-31g(d,p)
$end

$molecule
0 1
O         -23.495000     11.527000      5.834000
C         -24.388000     12.558000      5.587000
H         -25.147000     12.675000      6.371000
H         -24.908000     12.571000      4.622000
H         -23.819000     13.496000      5.606000
O         -22.315000     12.177000      3.938000
C         -22.518000     11.378000      4.890000
C         -21.556000     10.255000      5.188000
H         -22.225000      9.395000      5.314000
H         -20.911000     10.343000      6.072000
C         -20.673000      9.928000      3.934000
H         -21.317000      9.595000      3.111000
H         -20.170000     10.819000      3.539000
C         -19.555000      8.957000      4.386000
H         -18.995000      8.593000      3.516000
H         -18.861000      9.527000      5.017000
C         -19.920000      7.618000      5.110000
C         -20.873000      6.809000      4.228000
C         -22.202000      6.452000      4.634000
H         -22.532000      6.798000      5.609000
C         -23.012000      5.646000      3.856000
H         -24.011000      5.353000      4.165000
C         -22.574000      5.214000      2.552000
H         -23.096000      4.582000      1.840000
C         -21.195000      5.410000      2.284000
H         -20.703000      4.980000      1.416000
C         -20.339000      6.188000      3.076000
H         -19.305000      6.363000      2.790000
C         -21.078000      4.478000      9.465000
C         -19.748000      2.950000      8.080000
C         -16.170000      2.928000     10.806000
C         -18.675000      8.895000     10.327000
C         -14.390000      5.329000      8.852000
C         -20.697000      4.010000      8.200000
C         -15.977000      8.177000     10.394000
C         -18.529000      2.828000     11.353000
C         -17.241000      5.063000      5.922000
C         -17.800000      9.142000      9.198000
C         -18.791000      6.804000      5.732000
C         -16.504000      6.249000      6.191000
C         -16.068000      8.322000      7.957000
C         -14.995000      7.164000     10.364000
C         -19.496000      4.425000      6.318000
C         -15.031000      4.851000     11.183000
C         -19.920000      7.325000      6.593000
C         -19.627000      8.328000      7.696000
C         -14.652000      4.405000      9.937000
C         -18.639000      6.185000     12.664000
C         -17.037000      4.447000     12.572000
C         -18.349000      3.918000     12.284000
C         -19.638000      2.891000     10.524000
C         -20.351000      7.923000      8.891000
C         -18.597000      5.272000      5.652000
C         -19.247000      2.447000      9.258000
C         -16.461000      8.780000      9.233000
C         -19.015000      3.207000      6.898000
C         -15.349000      6.257000      6.995000
C         -20.170000      7.397000     11.193000
C         -17.455000      2.341000     10.648000
C         -17.419000      7.305000      6.216000
C         -20.435000      4.961000     11.530000
C         -15.113000      7.267000      7.956000
C         -16.745000      3.862000      6.541000
C         -16.329000      6.722000     12.142000
C         -16.760000      7.923000     11.529000
C         -15.581000      3.820000      7.315000
C         -19.896000      8.228000     10.147000
C         -18.268000      8.782000      7.966000
C         -19.033000      7.387000     12.074000
C         -20.748000      6.319000      7.291000
C         -17.097000      2.407000      8.204000
C         -17.245000      8.303000      7.160000
C         -14.857000      5.046000      7.536000
C         -20.935000      6.200000     10.926000
C         -15.312000      3.223000      9.664000
C         -20.598000      3.910000     10.657000
C         -15.957000      3.940000     11.756000
C         -17.661000      2.957000      7.057000
C         -15.859000      2.942000      8.388000
C         -20.560000      4.881000      7.112000
C         -21.060000      6.768000      8.592000
C         -17.218000      5.828000     12.739000
C         -17.898000      2.096000      9.346000
C         -14.558000      6.703000      9.112000
C         -18.143000      8.314000     11.507000
C         -15.259000      6.226000     11.363000
C         -21.307000      5.875000      9.671000
C         -19.295000      4.979000     12.353000
O         -10.516000      7.048000     -1.959000
C         -11.117000      8.236000     -2.478000
H         -10.711000      8.445000     -3.475000
H         -10.888000      9.011000     -1.736000
H         -12.213000      8.250000     -2.458000
O         -12.518000      6.320000     -1.116000
C         -11.302000      6.188000     -1.229000
C         -10.486000      5.152000     -0.498000
H          -9.579000      5.568000     -0.041000
H         -10.171000      4.548000     -1.358000
C         -11.232000      4.224000      0.508000
H         -11.598000      4.784000      1.378000
H         -12.143000      3.761000      0.110000
C         -10.307000      2.989000      0.870000
H         -10.221000      2.398000     -0.050000
H          -9.325000      3.274000      1.269000
C         -11.026000      2.083000      1.852000
C         -12.236000      1.366000      1.209000
C         -12.008000      0.413000      0.227000
H         -11.040000      0.062000     -0.118000
C         -13.101000     -0.224000     -0.403000
H         -12.862000     -1.046000     -1.072000
C         -14.397000      0.078000      0.013000
H         -15.236000     -0.435000     -0.447000
C         -14.621000      1.070000      0.974000
H         -15.620000      1.435000      1.193000
C         -13.530000      1.806000      1.503000
H         -13.545000      2.637000      2.203000
C         -12.963000      1.397000      7.005000
C         -12.373000     -0.897000      6.268000
C          -8.803000     -1.380000      8.966000
C          -8.890000      4.571000      6.381000
C          -6.571000     -0.655000      6.462000
C         -12.803000      0.406000      5.984000
C          -6.610000      2.919000      6.820000
C         -10.964000     -0.322000      9.382000
C          -9.391000     -0.863000      3.724000
C          -8.209000      4.080000      5.252000
C         -10.269000      1.201000      2.813000
C          -8.316000     -0.061000      3.530000
C          -7.076000      2.212000      4.551000
C          -6.130000      1.657000      7.087000
C         -11.670000     -0.384000      4.216000
C          -7.051000      0.019000      8.734000
C         -11.069000      2.440000      3.307000
C         -10.259000      3.531000      3.979000
C          -6.991000     -0.996000      7.787000
C          -9.629000      2.972000      9.477000
C          -8.931000      0.848000      9.896000
C         -10.334000      0.781000      9.884000
C         -12.091000     -0.175000      8.604000
C         -10.999000      3.946000      5.179000
C         -10.563000     -0.130000      3.433000
C         -11.944000     -1.188000      7.602000
C          -7.114000      3.213000      5.538000
C         -11.653000     -1.434000      5.179000
C          -7.122000     -0.221000      4.274000
C         -10.712000      4.080000      7.613000
C         -10.213000     -1.419000      8.981000
C          -8.743000      1.219000      3.110000
C         -11.907000      2.281000      8.798000
C          -6.605000      0.920000      4.838000
C          -9.424000     -1.924000      4.688000
C          -7.383000      2.404000      8.851000
C          -7.383000      3.438000      7.870000
C          -8.307000     -1.988000      5.524000
C         -10.304000      4.501000      6.330000
C          -8.846000      3.472000      4.141000
C          -9.623000      4.006000      8.496000
C         -12.077000      2.111000      4.310000
C         -10.110000     -2.503000      6.786000
C          -8.174000      2.377000      3.656000
C          -7.138000     -1.208000      5.314000
C         -11.881000      3.311000      7.845000
C          -8.057000     -1.834000      7.890000
C         -12.537000      1.118000      8.289000
C          -8.131000     -0.243000      9.515000
C         -10.527000     -2.178000      5.440000
C          -8.692000     -2.368000      6.810000
C         -12.393000      0.765000      4.675000
C         -12.064000      3.054000      5.368000
C          -8.529000      2.156000      9.654000
C         -10.857000     -2.022000      7.878000
C          -6.138000      0.607000      6.126000
C          -8.500000      4.227000      7.666000
C          -6.633000      1.319000      8.362000
C         -12.552000      2.760000      6.694000
C         -10.750000      2.109000      9.560000
$end

--------------------------------------------------------------

             Standard Nuclear Orientation (Angstroms)
    I     Atom           X                Y                Z
 ----------------------------------------------------------------
    1      O      11.3637783321     3.1107729244    -1.3658168566
    2      C      12.5937902683     3.6519297419    -1.7058741100
    3      H      13.4329910584     2.9633186051    -1.5446824964
    4      H      12.8724034629     4.6173761089    -1.2676025044
    5      H      12.5842192961     3.8331112432    -2.7880236653
    6      O      10.3570836826     5.0411569518    -2.1842906738
    7      C      10.2957453628     3.9344809867    -1.5864446077
    8      C       8.9700995823     3.3175908930    -1.2156523788
    9      H       9.1288593662     3.0207056312    -0.1717694963
   10      H       8.6218960878     2.4485499829    -1.7890172041
   11      C       7.8384456901     4.4026780023    -1.1827976413
   12      H       8.0738312880     5.1524031676    -0.4176441947
   13      H       7.7888990491     4.9765644908    -2.1161327519
   14      C       6.4835557981     3.6656121310    -1.0483495775
   15      H       5.6743956969     4.3875804019    -0.8839788182
   16      H       6.2908319746     3.1572357968    -2.0018211453
   17      C       6.2493866923     2.6556755298     0.1244738923
   18      C       6.4981687140     3.3623296898     1.4584009532
   19      C       7.5172633326     2.9540867992     2.3821487005
   20      H       8.1407724740     2.1135409034     2.0923902706
   21      C       7.6644940944     3.5530351909     3.6193244870
   22      H       8.4188704513     3.2364136144     4.3334659922
   23      C       6.8488279569     4.6849539859     3.9830999584
   24      H       6.8505203774     5.2471050006     4.9119892804
   25      C       5.7308854840     4.9173404242     3.1416237730
   26      H       4.9466914179     5.6248550597     3.3962817934
   27      C       5.5330864433     4.2954528999     1.9008919540
   28      H       4.6939912367     4.5589007982     1.2620716044
   29      C       6.4210884028    -2.2677804127     2.5527838200
   30      C       4.2863554634    -1.3755101668     3.3705112109
   31      C       1.7185124121    -4.2141031326     1.0078398333
   32      C       6.7454727313    -2.1471802344    -2.5371643531
   33      C       1.0694568199    -1.8298541185    -1.5700275948
   34      C       5.6425501208    -1.1793480124     2.9694408175
   35      C       4.1102925092    -2.5355725482    -3.3763267972
   36      C       3.7641955002    -4.6394882062     2.2359759178
   37      C       2.8410731005     1.0957452750     0.6852109608
   38      C       5.9297886036    -1.0415274664    -2.9991885520
   39      C       4.9934917012     1.7920814896     0.0920069117
   40      C       2.8569282250     1.0867889473    -0.7366872069
   41      C       3.8338069666    -0.1364855485    -3.0072572745
   42      C       2.7653861504    -2.8090799552    -3.0479770076
   43      C       4.5028661767     0.6785741482     2.3324198191
   44      C       1.7813389990    -4.1683188024    -1.2574053223
   45      C       6.3620916839     1.1484298698     0.0990552912
   46      C       6.8086506842     0.3115579294    -1.0878303033
   47      C       1.0188318924    -3.0927571373    -0.8613964624
   48      C       5.7671480545    -5.0770269017    -0.7299996309
   49      C       3.5228224050    -5.5025455154    -0.1156314283
   50      C       4.3200283660    -5.2823563043     1.0676303209
   51      C       4.5910048716    -3.7612664393     2.9187670949
   52      C       7.4287635714    -0.9050384177    -0.5862534543
   53      C       4.0481502961     1.4823297993     1.2758327090
   54      C       3.8158268095    -2.6665115447     3.3104093970
   55      C       4.6194376102    -1.2373677295    -3.4112769715
   56      C       3.5868018082    -0.2083672808     2.9846820166
   57      C       2.0222856780     0.2477079733    -1.4981462916
   58      C       7.4146161876    -3.2720387432    -0.6620842561
   59      C       2.4865301507    -4.1354547972     2.2014566866
   60      C       4.1656786859     1.3720539124    -1.1351619626
   61      C       6.4788565002    -4.1825619557     1.4386754367
   62      C       2.4958406896    -0.4469115770    -2.6350571638
   63      C       1.9276215956     0.1744218140     1.3083862399
   64      C       3.9861292944    -4.5657411289    -2.2995575414
   65      C       4.8455201075    -3.6537670770    -2.9581027252
   66      C       1.0550732334    -0.6484073935     0.5891175481
   67      C       7.4153352423    -2.0703947540    -1.3069130754
   68      C       5.9309053131     0.0877904105    -2.2303661500
   69      C       6.5996916970    -4.1890826217    -1.4130560261
   70      C       6.6826170675     0.2707496519     1.2443783520
   71      C       1.7885922146    -1.7734853612     2.4005521925
   72      C       4.6828201968     0.6943159811    -2.2263319558
   73      C       1.0935780065    -0.6003687653    -0.8504319205
   74      C       7.4173443492    -3.2661959333     0.7833504255
   75      C       0.9389952137    -3.0831431561     0.5172937407
   76      C       5.9382762846    -3.5871646383     2.5551762495
   77      C       2.2106451848    -4.8963318651    -0.1166077156
   78      C       2.3414836302    -0.4974978153     2.4492539921
   79      C       1.0389411519    -1.8875171341     1.2701783433
   80      C       5.7721012537     0.0802426680     2.3712754377
   81      C       7.3994393940    -0.8609542415     0.8005787915
   82      C       4.3967722642    -5.3148185800    -1.1967332927
   83      C       2.5117730638    -2.9114851968     2.8743156708
   84      C       1.9451460371    -1.7345601425    -2.6690214314
   85      C       6.2099664455    -3.4609809589    -2.5492339158
   86      C       2.6944079287    -3.9920862997    -2.3110922941
   87      C       7.3505649332    -2.1112476172     1.4766533152
   88      C       5.6652603482    -5.0367549941     0.6733855867
   89      O      -3.2454314639     8.8442520541    -3.0818987907
   90      C      -2.2319737554     9.6713245527    -3.6570166527
   91      H      -2.6459527774    10.6654510301    -3.8640430194
   92      H      -1.9084191019     9.1312622603    -4.5555015477
   93      H      -1.2922273731     9.7151461848    -3.0941948325
   94      O      -1.7650161398     7.9585692981    -1.5743930615
   95      C      -2.8818363286     7.9692038219    -2.0857134822
   96      C      -3.9644171614     6.9626085325    -1.7885642539
   97      H      -4.4452515451     6.5731601967    -2.6950311805
   98      H      -4.6842416162     7.6292548547    -1.2975689023
   99      C      -3.6205030970     5.8015565911    -0.8070259175
  100      H      -2.8777143852     5.1171959273    -1.2364108398
  101      H      -3.1494850658     6.1225701758     0.1298765815
  102      C      -4.9596485925     5.0972129708    -0.3353444505
  103      H      -5.4893024421     5.8376031448     0.2765102625
  104      H      -5.5797896561     4.7276054045    -1.1621245350
  105      C      -4.6318114527     3.9633242887     0.6180391378
  106      C      -4.0772804513     4.4753018061     1.9678585294
  107      C      -4.9193771113     5.1789670795     2.8165312567
  108      H      -5.9761310726     5.3738085040     2.6598217016
  109      C      -4.4217252906     5.6916523658     4.0358812732
  110      H      -5.1528316315     6.1240053600     4.7133179172
  111      C      -3.0989875675     5.4339302747     4.3934008384
  112      H      -2.7248863996     5.7987309108     5.3450619189
  113      C      -2.2444330334     4.7599574828     3.5140498140
  114      H      -1.1764247879     4.6921876196     3.6983122167
  115      C      -2.7084976130     4.3694635658     2.2318733181
  116      H      -2.1573821719     3.8971129944     1.4232060761
  117      C      -2.4316803402    -1.0867137788     1.2756960429
  118      C      -4.2091073743    -0.9695335172     3.0021742282
  119      C      -7.0058257393    -3.8939168912     1.0314532259
  120      C      -4.4053001470     0.0754308888    -3.3941246849
  121      C      -8.9732499970    -1.4140227472    -0.2940021012
  122      C      -3.2419658515    -0.3509400714     2.1988409078
  123      C      -7.0885476951    -0.8797921151    -3.3049248609
  124      C      -4.5712721662    -3.9186514964     1.2176737917
  125      C      -7.1653040961     1.3383307647     1.8619639849
  126      C      -5.4259197457     1.0102400929    -3.1412405474
  127      C      -5.5470560144     2.7752117261     0.7768154933
  128      C      -7.7092156150     1.6646390440     0.6644047311
  129      C      -7.4441903670     1.1677053904    -2.0612857433
  130      C      -8.0805315986    -1.4745797155    -2.5589163854
  131      C      -4.9072402598     1.1041447871     2.5772615728
  132      C      -7.8315378661    -3.4209755226    -1.0118418935
  133      C      -4.1621781155     2.6453049693     0.0808309822
  134      C      -4.1852865046     2.2190008868    -1.3737121872
  135      C      -8.5561099356    -2.7572670332    -0.0294365000
  136      C      -4.0376681143    -3.2736124675    -2.2378836694
  137      C      -5.6193865375    -4.2392838126    -0.9188739336
  138      C      -4.4654935973    -4.1676722806    -0.1210989835
  139      C      -3.6782342877    -3.0681563963     1.8309954302
  140      C      -3.1402693282     1.2000123832    -1.5452538160
  141      C      -5.8556069340     1.8640212142     1.9243890992
  142      C      -4.4851872155    -2.3554700897     2.7758166834
  143      C      -6.7382830193     0.4606450571    -3.0509192621
  144      C      -5.2788232144    -0.0868690445     3.2654259142
  145      C      -8.6715130827     0.8402010812     0.0326946480
  146      C      -2.8908285662    -1.1382693803    -2.2487441860
  147      C      -5.8272598221    -3.8411708904     1.8047877191
  148      C      -6.7799165215     2.4090333039    -0.0967847203
  149      C      -2.5709178384    -2.6621937904    -0.3398276036
  150      C      -8.4400627091     0.5466780119    -1.2892512406
  151      C      -7.4998260222     0.1463702716     2.5854494815
  152      C      -6.3357394553    -2.9298234202    -2.8376279507
  153      C      -5.9897270910    -1.7262492490    -3.5182171500
  154      C      -8.3326944649    -0.7393078141     1.8980009483
  155      C      -3.2504035330     0.1846479584    -2.5809934270
  156      C      -5.3844948423     1.9707034619    -2.0993441543
  157      C      -3.6967428333    -2.0703653168    -2.9216374607
  158      C      -3.2968136405     1.6486841217     0.7038921440
  159      C      -6.8410986866    -1.9889768324     3.0478476245
  160      C      -6.5871927071     2.1342751071    -1.4570076669
  161      C      -8.9701144137    -0.4080464571     0.6720226768
  162      C      -2.2440546760    -1.4881178738    -1.0358816354
  163      C      -8.0537649661    -3.0048473711     1.2097416582
  164      C      -2.7079546495    -2.4211479055     1.0500169179
  165      C      -6.9104173879    -4.1823545618    -0.3662073039
  166      C      -6.5602725152    -0.5837229507     3.2418274931
  167      C      -7.9715720828    -2.0563033402     2.1835432558
  168      C      -3.6388189128     0.9817895592     1.9217102898
  169      C      -2.6507617164     0.8558739241    -0.2773575194
  170      C      -5.3478054217    -3.7054549024    -2.1727887601
  171      C      -5.7759979889    -2.8868391335     2.8447767201
  172      C      -8.7674184190    -0.8022198548    -1.5090574836
  173      C      -4.6834138616    -1.2739873783    -3.5470432978
  174      C      -7.6002633246    -2.7641736880    -2.2440072382
  175      C      -2.1522665394    -0.4730782397    -0.0161206442
  176      C      -3.5047036242    -3.5049850630    -0.9453224236
 ----------------------------------------------------------------

    9   -5804.2863597957      9.60E-06 Convergence criterion met
 Total energy in the final basis set = -5804.2863597957

                    Orbital Energies (a.u.)
 --------------------------------------------------------------

 Alpha MOs
 -- Occupied --
-19.204 -19.193 -19.139 -19.138 -10.323 -10.322 -10.244 -10.243
-10.243 -10.242 -10.242 -10.242 -10.241 -10.239 -10.235 -10.231
-10.231 -10.230 -10.229 -10.229 -10.228 -10.227 -10.227 -10.226
-10.225 -10.225 -10.225 -10.224 -10.224 -10.223 -10.222 -10.221
-10.221 -10.221 -10.221 -10.220 -10.220 -10.220 -10.220 -10.220
-10.219 -10.219 -10.219 -10.219 -10.219 -10.219 -10.219 -10.218
-10.218 -10.218 -10.217 -10.217 -10.217 -10.217 -10.217 -10.217
-10.217 -10.217 -10.216 -10.216 -10.216 -10.216 -10.216 -10.216
-10.215 -10.215 -10.215 -10.215 -10.215 -10.215 -10.215 -10.215
-10.215 -10.215 -10.215 -10.214 -10.214 -10.214 -10.214 -10.214
-10.214 -10.214 -10.214 -10.214 -10.213 -10.213 -10.213 -10.213
-10.213 -10.213 -10.213 -10.213 -10.213 -10.213 -10.212 -10.212
-10.212 -10.212 -10.211 -10.211 -10.211 -10.211 -10.211 -10.211
-10.211 -10.211 -10.211 -10.211 -10.211 -10.210 -10.210 -10.210
-10.210 -10.210 -10.210 -10.209 -10.209 -10.209 -10.209 -10.209
-10.208 -10.208 -10.208 -10.208 -10.208 -10.207 -10.207 -10.207
-10.207 -10.207 -10.207 -10.206 -10.206 -10.205 -10.205 -10.205
-10.205 -10.204 -10.204 -10.203 -10.202 -10.202 -10.201 -10.201
-10.201 -10.200 -10.199 -10.195  -1.105  -1.093  -1.008  -1.002
 -0.981  -0.980  -0.964  -0.963  -0.961  -0.959  -0.958  -0.957
 -0.934  -0.931  -0.928  -0.924  -0.923  -0.922  -0.921  -0.919
 -0.918  -0.915  -0.897  -0.897  -0.890  -0.887  -0.883  -0.880
 -0.873  -0.871  -0.855  -0.849  -0.839  -0.839  -0.837  -0.836
 -0.835  -0.834  -0.821  -0.818  -0.805  -0.803  -0.797  -0.795
 -0.794  -0.793  -0.792  -0.791  -0.789  -0.789  -0.782  -0.781
 -0.770  -0.769  -0.766  -0.766  -0.766  -0.764  -0.763  -0.760
 -0.753  -0.750  -0.747  -0.744  -0.735  -0.733  -0.714  -0.713
 -0.713  -0.712  -0.711  -0.711  -0.709  -0.709  -0.708  -0.707
 -0.705  -0.705  -0.704  -0.704  -0.702  -0.700  -0.672  -0.672
 -0.657  -0.656  -0.656  -0.654  -0.645  -0.645  -0.634  -0.631
 -0.627  -0.626  -0.625  -0.623  -0.622  -0.622  -0.618  -0.616
 -0.614  -0.613  -0.611  -0.611  -0.609  -0.609  -0.609  -0.607
 -0.605  -0.604  -0.601  -0.600  -0.572  -0.565  -0.563  -0.561
 -0.560  -0.559  -0.558  -0.558  -0.556  -0.552  -0.551  -0.550
 -0.536  -0.536  -0.534  -0.534  -0.527  -0.525  -0.525  -0.524
 -0.524  -0.522  -0.518  -0.517  -0.514  -0.513  -0.513  -0.512
 -0.508  -0.507  -0.504  -0.501  -0.494  -0.493  -0.489  -0.487
 -0.484  -0.483  -0.481  -0.480  -0.479  -0.478  -0.477  -0.477
 -0.473  -0.470  -0.470  -0.468  -0.468  -0.468  -0.468  -0.464
 -0.463  -0.463  -0.462  -0.462  -0.460  -0.460  -0.460  -0.458
 -0.455  -0.453  -0.453  -0.451  -0.450  -0.444  -0.443  -0.443
 -0.442  -0.440  -0.440  -0.438  -0.437  -0.436  -0.433  -0.432
 -0.432  -0.430  -0.429  -0.428  -0.427  -0.426  -0.424  -0.423
 -0.422  -0.422  -0.421  -0.421  -0.420  -0.418  -0.417  -0.417
 -0.416  -0.415  -0.415  -0.414  -0.413  -0.411  -0.410  -0.409
 -0.409  -0.408  -0.408  -0.407  -0.402  -0.401  -0.400  -0.396
 -0.393  -0.392  -0.388  -0.388  -0.386  -0.385  -0.383  -0.380
 -0.376  -0.374  -0.374  -0.373  -0.372  -0.370  -0.368  -0.366
 -0.365  -0.364  -0.362  -0.362  -0.359  -0.359  -0.358  -0.357
 -0.356  -0.355  -0.353  -0.353  -0.353  -0.352  -0.351  -0.350
 -0.350  -0.349  -0.348  -0.348  -0.347  -0.345  -0.344  -0.343
 -0.343  -0.342  -0.342  -0.340  -0.339  -0.338  -0.334  -0.333
 -0.332  -0.331  -0.328  -0.327  -0.325  -0.325  -0.324  -0.322
 -0.318  -0.308  -0.299  -0.296  -0.287  -0.284  -0.273  -0.271
 -0.271  -0.270  -0.268  -0.265  -0.265  -0.264  -0.262  -0.262
 -0.262  -0.260  -0.259  -0.258  -0.257  -0.257  -0.254  -0.253
 -0.253  -0.251  -0.245  -0.243  -0.223  -0.222  -0.211  -0.210
 -0.208  -0.207  -0.206  -0.203  -0.198  -0.195

          Ground-State Mulliken Net Atomic Charges

     Atom                 Charge (a.u.)
  ----------------------------------------
      1 O                    -0.441012
      2 C                    -0.089465
      3 H                     0.116058
      4 H                     0.126317
      5 H                     0.121804
      6 O                    -0.485625
      7 C                     0.604191
      8 C                    -0.271370
      9 H                     0.133985
     10 H                     0.142594
     11 C                    -0.171463
     12 H                     0.116453
     13 H                     0.129412
     14 C                    -0.197019
     15 H                     0.109433
     16 H                     0.107413
     17 C                     0.001943
     18 C                     0.075188
     19 C                    -0.103626
     20 H                     0.095983
     21 C                    -0.105536
     22 H                     0.095660
     23 C                    -0.084483
     24 H                     0.098661
     25 C                    -0.096526
     26 H                     0.086116
     27 C                    -0.090313
     28 H                     0.096283
     29 C                    -0.003662
     30 C                     0.003887
     31 C                    -0.005797
     32 C                    -0.025203
     33 C                     0.006123
     34 C                    -0.008012
     35 C                     0.028981
     36 C                    -0.002235
     37 C                     0.009364
     38 C                    -0.012541
     39 C                    -0.101088
     40 C                     0.026230
     41 C                    -0.035693
     42 C                    -0.020260
     43 C                     0.026672
     44 C                     0.003410
     45 C                    -0.066538
     46 C                    -0.010757
     47 C                     0.018620
     48 C                    -0.001722
     49 C                    -0.005870
     50 C                    -0.009729
     51 C                     0.008957
     52 C                     0.000516
     53 C                     0.017982
     54 C                     0.026208
     55 C                     0.005531
     56 C                    -0.028926
     57 C                    -0.006339
     58 C                    -0.017032
     59 C                     0.003820
     60 C                     0.033445
     61 C                    -0.017961
     62 C                     0.003105
     63 C                    -0.021391
     64 C                     0.015638
     65 C                    -0.005965
     66 C                    -0.008921
     67 C                     0.050276
     68 C                     0.018486
     69 C                     0.011447
     70 C                     0.005575
     71 C                     0.025566
     72 C                     0.007483
     73 C                    -0.015991
     74 C                    -0.016952
     75 C                    -0.008489
     76 C                    -0.006184
     77 C                    -0.005162
     78 C                     0.008839
     79 C                     0.015278
     80 C                     0.013491
     81 C                     0.000241
     82 C                    -0.020333
     83 C                    -0.035089
     84 C                    -0.003418
     85 C                    -0.023910
     86 C                     0.007059
     87 C                     0.008921
     88 C                     0.026487
     89 O                    -0.469965
     90 C                    -0.097238
     91 H                     0.125178
     92 H                     0.121709
     93 H                     0.145761
     94 O                    -0.476198
     95 C                     0.591508
     96 C                    -0.256906
     97 H                     0.138091
     98 H                     0.136705
     99 C                    -0.183780
    100 H                     0.115555
    101 H                     0.131995
    102 C                    -0.184400
    103 H                     0.112956
    104 H                     0.106170
    105 C                     0.013956
    106 C                     0.084158
    107 C                    -0.108633
    108 H                     0.091982
    109 C                    -0.088845
    110 H                     0.092782
    111 C                    -0.079861
    112 H                     0.092362
    113 C                    -0.101565
    114 H                     0.095834
    115 C                    -0.094797
    116 H                     0.101408
    117 C                    -0.015645
    118 C                    -0.008565
    119 C                    -0.015247
    120 C                    -0.016062
    121 C                     0.019456
    122 C                     0.003962
    123 C                     0.008001
    124 C                     0.021913
    125 C                     0.021392
    126 C                    -0.004312
    127 C                    -0.088975
    128 C                     0.032318
    129 C                    -0.014467
    130 C                    -0.016324
    131 C                    -0.025534
    132 C                     0.021118
    133 C                    -0.082622
    134 C                     0.000175
    135 C                    -0.011446
    136 C                    -0.001951
    137 C                     0.002649
    138 C                     0.000477
    139 C                    -0.005030
    140 C                    -0.024883
    141 C                     0.035520
    142 C                    -0.003628
    143 C                    -0.003074
    144 C                    -0.008410
    145 C                    -0.050525
    146 C                     0.022496
    147 C                     0.004646
    148 C                     0.004320
    149 C                    -0.001402
    150 C                     0.022469
    151 C                    -0.007434
    152 C                    -0.022028
    153 C                    -0.002787
    154 C                    -0.003570
    155 C                    -0.013516
    156 C                     0.019726
    157 C                    -0.018203
    158 C                     0.025725
    159 C                    -0.018899
    160 C                     0.004288
    161 C                    -0.017997
    162 C                    -0.006732
    163 C                     0.030678
    164 C                     0.022077
    165 C                    -0.027609
    166 C                     0.018355
    167 C                     0.013009
    168 C                     0.015712
    169 C                     0.024594
    170 C                     0.012689
    171 C                    -0.014432
    172 C                    -0.015258
    173 C                     0.028735
    174 C                     0.010484
    175 C                    -0.028091
    176 C                    -0.015768
  ----------------------------------------
  Sum of atomic charges =     0.000000

                    Cartesian Multipole Moments
 -----------------------------------------------------------------
    Charge (ESU x 10^10)
                 0.0000
    Dipole Moment (Debye)
         X       0.3645      Y       4.0254      Z       1.3304
       Tot       4.2552
    Quadrupole Moments (Debye-Ang)
        XX    -792.8720     XY     -22.9372     YY    -794.4071
        XZ       8.4646     YZ       7.9258     ZZ    -798.4222

 Total job time:  852.75s(wall), 8104.31s(cpu)
        *  Thank you very much for using Q-Chem.  Have a nice day.  *
