 Q-Chem 4.4, Q-Chem, Inc., Pleasanton, CA (2016)
 Q-Chem 4.4.2 for Intel X86 Linux

User input:
--------------------------------------------------------------
$comment
SP
$end

$rem
MEM_STATIC 5000
MEM_TOTAL 20000
JOBTYPE SP
EXCHANGE B3LYP
BASIS 6-31g(d,p)
$end

$molecule
0 1
O         -22.482000     -7.515000    -14.379000
C         -21.848000     -6.987000    -15.584000
H         -21.082000     -7.631000    -16.032000
H         -21.431000     -5.997000    -15.363000
H         -22.698000     -6.836000    -16.261000
O         -22.627000     -9.698000    -15.113000
C         -22.791000     -8.853000    -14.247000
C         -23.228000     -9.179000    -12.831000
H         -24.299000     -8.943000    -12.870000
H         -22.698000     -8.571000    -12.087000
C         -23.057000    -10.710000    -12.555000
H         -23.628000    -11.232000    -13.333000
H         -22.022000    -11.038000    -12.710000
C         -23.579000    -11.165000    -11.176000
H         -23.459000    -12.252000    -11.256000
H         -22.985000    -10.813000    -10.323000
C         -25.032000    -11.032000    -10.835000
C         -25.954000    -11.782000    -11.783000
C         -26.634000    -11.119000    -12.804000
H         -26.406000    -10.115000    -13.150000
C         -27.548000    -11.830000    -13.629000
H         -28.171000    -11.357000    -14.382000
C         -27.804000    -13.157000    -13.306000
H         -28.557000    -13.624000    -13.936000
C         -27.183000    -13.850000    -12.236000
H         -27.406000    -14.873000    -11.947000
C         -26.260000    -13.129000    -11.457000
H         -25.785000    -13.656000    -10.635000
C         -29.089000     -7.813000     -9.102000
C         -29.579000     -9.918000     -8.007000
C         -28.569000     -8.597000     -3.840000
C         -24.298000     -6.471000     -7.935000
C         -25.400000    -10.095000     -3.856000
C         -29.161000     -9.216000     -9.163000
C         -23.775000     -7.362000     -5.381000
C         -29.651000     -7.411000     -5.564000
C         -26.255000    -11.944000     -7.269000
C         -23.549000     -7.612000     -7.758000
C         -25.334000    -11.067000     -9.312000
C         -24.902000    -11.627000     -6.961000
C         -23.296000     -9.431000     -6.549000
C         -24.233000     -8.051000     -4.269000
C         -27.869000    -11.010000     -8.873000
C         -26.465000     -8.016000     -3.333000
C         -25.520000     -9.792000    -10.130000
C         -24.721000     -8.635000     -9.663000
C         -26.489000     -9.396000     -3.305000
C         -27.050000     -5.169000     -6.175000
C         -27.901000     -6.341000     -4.364000
C         -28.930000     -6.256000     -5.346000
C         -29.959000     -7.835000     -6.828000
C         -25.545000     -7.519000     -9.786000
C         -26.610000    -11.590000     -8.610000
C         -30.098000     -9.235000     -6.905000
C         -23.298000     -8.036000     -6.446000
C         -28.830000    -11.076000     -7.846000
C         -24.589000    -11.224000     -5.653000
C         -26.340000     -5.649000     -8.468000
C         -29.588000     -8.582000     -4.778000
C         -24.348000    -11.019000     -8.152000
C         -28.746000     -5.994000     -7.694000
C         -23.768000    -10.111000     -5.484000
C         -27.265000    -12.003000     -6.269000
C         -25.527000     -6.169000     -4.552000
C         -24.545000     -6.187000     -5.539000
C         -26.936000    -11.648000     -4.992000
C         -25.296000     -6.411000     -8.985000
C         -23.749000     -8.687000     -8.623000
C         -26.055000     -5.199000     -7.185000
C         -26.919000     -9.323000    -10.258000
C         -29.032000    -10.894000     -5.415000
C         -23.528000     -9.871000     -7.898000
C         -25.600000    -11.265000     -4.613000
C         -27.688000     -6.120000     -8.713000
C         -27.823000     -9.811000     -3.600000
C         -29.528000     -7.128000     -7.930000
C         -27.746000     -7.522000     -3.648000
C         -28.529000    -11.518000     -6.572000
C         -27.996000    -10.920000     -4.461000
C         -28.070000     -9.931000     -9.664000
C         -26.879000     -7.915000    -10.043000
C         -26.780000     -5.698000     -4.868000
C         -29.793000     -9.686000     -5.573000
C         -24.245000     -9.451000     -4.275000
C         -24.830000     -5.747000     -6.846000
C         -25.377000     -7.354000     -3.802000
C         -27.948000     -7.187000     -9.515000
C         -28.430000     -5.551000     -6.420000
O         -12.114000    -11.398000    -10.603000
C         -11.392000    -11.471000     -9.347000
H         -11.674000    -12.316000     -8.707000
H         -11.552000    -10.584000     -8.722000
H         -10.322000    -11.493000     -9.588000
O         -11.214000     -9.489000    -11.073000
C         -11.912000    -10.388000    -11.412000
C         -12.525000    -10.674000    -12.728000
H         -12.132000    -11.577000    -13.213000
H         -12.154000    -10.023000    -13.530000
C         -14.073000    -10.793000    -12.607000
H         -14.327000    -11.268000    -13.563000
H         -14.267000    -11.425000    -11.731000
C         -14.768000     -9.393000    -12.403000
H         -14.001000     -8.843000    -11.844000
H         -14.752000     -8.795000    -13.322000
C         -16.129000     -9.492000    -11.721000
C         -17.305000     -9.883000    -12.627000
C         -18.140000     -8.850000    -13.129000
H         -17.926000     -7.796000    -12.983000
C         -19.221000     -9.230000    -13.954000
H         -19.958000     -8.516000    -14.308000
C         -19.461000    -10.566000    -14.263000
H         -20.378000    -10.763000    -14.810000
C         -18.717000    -11.560000    -13.687000
H         -18.845000    -12.594000    -13.992000
C         -17.635000    -11.212000    -12.850000
H         -17.107000    -12.022000    -12.354000
C         -19.549000     -6.967000     -8.172000
C         -19.889000     -9.311000     -7.781000
C         -17.903000     -9.525000     -3.746000
C         -14.565000     -5.906000     -7.761000
C         -14.913000    -10.957000     -4.868000
C         -19.595000     -8.240000     -8.626000
C         -13.520000     -7.725000     -5.807000
C         -19.364000     -7.781000     -4.654000
C         -16.691000    -11.498000     -8.488000
C         -13.879000     -7.083000     -8.145000
C         -16.084000    -10.000000    -10.264000
C         -15.313000    -11.231000     -8.416000
C         -13.500000     -9.251000     -7.620000
C         -13.778000     -8.781000     -4.963000
C         -18.416000    -10.099000     -9.301000
C         -15.665000     -9.103000     -3.425000
C         -16.374000     -8.497000    -10.547000
C         -15.482000     -7.490000     -9.968000
C         -15.793000    -10.464000     -3.925000
C         -16.829000     -5.408000     -5.026000
C         -17.236000     -7.156000     -3.646000
C         -18.482000     -6.748000     -4.242000
C         -19.937000     -7.751000     -5.949000
C         -16.217000     -6.401000     -9.499000
C         -17.214000    -10.748000     -9.517000
C         -20.011000     -9.085000     -6.417000
C         -13.348000     -7.947000     -7.168000
C         -19.197000    -10.495000     -8.187000
C         -14.682000    -11.241000     -7.133000
C         -16.602000     -5.050000     -7.460000
C         -19.062000     -9.155000     -4.415000
C         -14.925000    -10.260000     -9.369000
C         -18.748000     -5.731000     -6.399000
C         -13.660000    -10.323000     -6.731000
C         -17.423000    -11.869000     -7.363000
C         -14.940000     -6.893000     -4.263000
C         -14.257000     -6.613000     -5.444000
C         -16.804000    -11.912000     -6.135000
C         -15.723000     -5.615000     -8.422000
C         -14.349000     -7.879000     -9.137000
C         -16.077000     -5.080000     -6.160000
C         -17.697000     -7.947000    -10.165000
C         -18.821000    -11.073000     -5.866000
C         -14.047000     -9.233000     -8.917000
C         -15.427000    -11.547000     -6.015000
C         -18.017000     -5.402000     -7.563000
C         -17.178000    -10.684000     -4.089000
C         -19.635000     -6.718000     -6.796000
C         -16.955000     -8.514000     -3.411000
C         -18.680000    -11.329000     -7.282000
C         -17.654000    -11.443000     -5.190000
C         -18.675000     -8.753000     -9.585000
C         -17.569000     -6.674000     -9.566000
C         -16.212000     -6.333000     -4.121000
C         -19.477000     -9.917000     -5.451000
C         -13.918000    -10.107000     -5.369000
C         -14.782000     -5.715000     -6.363000
C         -14.688000     -8.274000     -3.989000
C         -18.469000     -6.198000     -8.605000
C         -18.226000     -5.654000     -5.078000
$end

--------------------------------------------------------------

             Standard Nuclear Orientation (Angstroms)
    I     Atom           X                Y                Z
 ----------------------------------------------------------------
    1      O       0.7719199807    -5.6955860741     3.2365256256
    2      C       0.0582990068    -6.6557027150     4.0741927083
    3      H      -0.7376436165    -7.2172069749     3.5708197783
    4      H      -0.3408235468    -6.1348020345     4.9529382165
    5      H       0.8604892992    -7.3160247412     4.4264647005
    6      O       0.8624958266    -7.0291125147     1.3553628872
    7      C       1.0866879665    -5.9709795247     1.9219045538
    8      C       1.6185182443    -4.7385581960     1.2143770107
    9      H       2.6848139180    -4.7791024460     1.4705560495
   10      H       1.1415693157    -3.8189430978     1.5762164651
   11      C       1.4638497607    -4.8996489118    -0.3346567014
   12      H       1.9795483725    -5.8299694229    -0.6036691328
   13      H       0.4200830380    -5.0732085052    -0.6232084232
   14      C       2.0777204912    -3.7449653765    -1.1538139878
   15      H       1.9505144803    -4.1233235006    -2.1751037413
   16      H       1.5438659424    -2.7898539880    -1.0694898732
   17      C       3.5508205472    -3.4766222125    -1.0977143334
   18      C       4.4046960682    -4.6575865582    -1.5307360520
   19      C       5.0148073204    -5.4897753629    -0.5928469043
   20      H       4.7656481488    -5.5195346598     0.4639170672
   21      C       5.8691531075    -6.5414776439    -1.0236108631
   22      H       6.4402969808    -7.1677755728    -0.3450737747
   23      C       6.1440756282    -6.6275990611    -2.3829469912
   24      H       6.8515357766    -7.4126983701    -2.6381277375
   25      C       5.5961088840    -5.7609854728    -3.3624894026
   26      H       5.8363613155    -5.7908190428    -4.4213414826
   27      C       4.7296692676    -4.7498297786    -2.9092151443
   28      H       4.3107804570    -4.0826793020    -3.6565306104
   29      C       7.7224677664    -1.1691602544     1.5663948593
   30      C       8.2819774105    -0.7541422755    -0.7541350447
   31      C       7.5606508325     3.6735794308    -0.6909016700
   32      C       3.0246125572     0.6446121422     2.4364064264
   33      C       4.3951224043     3.4400099739    -2.1780788885
   34      C       7.7875179845    -1.6320364392     0.2401866906
   35      C       2.6751358929     2.8674645277     0.8467148421
   36      C       8.5249192629     2.2917024474     0.9553359789
   37      C       5.0121823468    -0.4069376398    -2.9646067552
   38      C       2.2872741677     0.5380340485     1.2791751577
   39      C       3.9557982815    -2.0500683645    -1.5591199612
   40      C       3.6839017245     0.0669927776    -2.7721943131
   41      C       2.1138120692     1.1924765786    -0.8127299251
   42      C       3.2065294420     3.7043540144    -0.1219264141
   43      C       6.5149165210    -1.7808924456    -1.5846769768
   44      C       5.4971659864     4.4624752249    -0.3152692488
   45      C       4.0880320138    -2.4812169666    -0.1010492760
   46      C       3.3248674348    -1.6523376568     0.8610722938
   47      C       5.5204334453     4.0944214130    -1.6455906449
   48      C       5.8925429056     2.5175229126     3.2323264996
   49      C       6.8627336791     3.8593414142     1.6088244294
   50      C       7.8226079840     2.8767647451     1.9877365675
   51      C       8.7453068900     0.9418710823     0.9138561074
   52      C       4.1406630973    -1.5061818197     1.9803027921
   53      C       5.2756723787    -1.6117944595    -2.2376163515
   54      C       8.8761170758     0.4601389616    -0.4037450686
   55      C       2.1254358532     1.6883654095     0.4951680660
   56      C       7.5435172835    -0.8808651550    -1.9231106444
   57      C       3.4614836346     1.4532451604    -2.7634464853
   58      C       5.0270975838     0.2347383045     3.4119033027
   59      C       8.5134145436     2.7137897025    -0.3917779697
   60      C       3.0511982546    -0.8622050999    -1.8604165860
   61      C       7.4795828123     0.7182028369     2.9034593531
   62      C       2.6559883327     1.9860642145    -1.7591297156
   63      C       6.0878430999     0.4660394292    -3.2877877902
   64      C       4.4817678719     3.8848490846     1.7853327389
   65      C       3.4347833943     3.0005182427     2.0315023263
   66      C       5.8472606317     1.8100222612    -3.3165144928
   67      C       3.9488800159    -0.4080746973     2.8101497644
   68      C       2.4258733276    -0.6086453691     0.4982996324
   69      C       4.8309994392     1.6086339282     3.4733063390
   70      C       5.4759389375    -2.5620645348     0.4095621634
   71      C       7.9109858942     1.4824065261    -2.4365332595
   72      C       2.2525562843    -0.2381947435    -0.8467094890
   73      C       4.5409005299     2.3695367602    -3.0807332171
   74      C       6.3543929592    -0.2225020125     3.0538693951
   75      C       6.8304602741     3.6062468659    -1.9359719789
   76      C       8.2415654737     0.1178963591     1.8973825387
   77      C       6.7546557614     4.2176958586     0.2704137093
   78      C       7.3291729681     0.2312897574    -2.7144443068
   79      C       6.9423310073     2.4554811234    -2.7510512052
   80      C       6.6635875840    -2.2430618722    -0.3218945980
   81      C       5.4533140274    -1.9526035960     1.6973255258
   82      C       5.7112115474     3.6344024426     2.3487603991
   83      C       8.6617161098     1.6254564820    -1.2202726569
   84      C       3.2154712979     3.2988774956    -1.4619595614
   85      C       3.6309132294     1.8572895510     2.8300229874
   86      C       4.3809868884     4.2742479013     0.4335055477
   87      C       6.5571591249    -1.3106060045     2.2638006736
   88      C       7.2519305500     2.0835378800     2.9601662086
   89      O      -9.3220325622    -2.5087075426    -1.7421505325
   90      C      -9.9569334203    -1.2809008042    -2.1820829291
   91      H      -9.6335750472    -0.9282420169    -3.1691088367
   92      H      -9.7530700233    -0.4409983999    -1.5068069362
   93      H     -11.0409040277    -1.4471972879    -2.1534787036
   94      O     -10.2483817569    -2.3549171298     0.2055164509
   95      C      -9.5767800499    -2.9812240581    -0.5474887142
   96      C      -9.0553851938    -4.3615340632    -0.4365261356
   97      H      -9.4822002648    -5.0567796015    -1.1710637702
   98      H      -9.4789352347    -4.9185337655     0.4090521839
   99      C      -7.5029640344    -4.3816358699    -0.5577303487
  100      H      -7.3155657176    -5.4479128957    -0.7366498144
  101      H      -7.2509261605    -3.7368060738    -1.4092627581
  102      C      -6.7930617829    -3.8333566414     0.7384446707
  103      H      -7.5191704194    -3.0915793298     1.0931313888
  104      H      -6.8705062121    -4.5407122751     1.5727535870
  105      C      -5.3889537029    -3.2989790173     0.4735540243
  106      C      -4.2781353833    -4.3541979931     0.3771767771
  107      C      -3.4773378244    -4.5948465906     1.5248394114
  108      H      -3.6789213488    -4.1407918127     2.4898401065
  109      C      -2.4557604323    -5.5632190816     1.4142937164
  110      H      -1.7432507854    -5.7467912279     2.2123615519
  111      C      -2.2398688010    -6.2552179653     0.2258050339
  112      H      -1.3626304182    -6.8948019230     0.2087117372
  113      C      -2.9447640575    -5.9386816862    -0.9039185877
  114      H      -2.8397740971    -6.5334238392    -1.8060404640
  115      C      -3.9665816174    -4.9678868965    -0.8274767750
  116      H      -4.4610839562    -4.6896380268    -1.7542696340
  117      C      -1.7304211082     0.5892462214     1.9446997502
  118      C      -1.3689661141     0.2728141373    -0.4073287410
  119      C      -3.0758899636     4.2011358008    -1.7951028148
  120      C      -6.6728518472     1.6127043364     2.7569865695
  121      C      -6.1380505523     2.9169503209    -2.9012891385
  122      C      -1.7178378037    -0.2106894159     0.8544219705
  123      C      -7.5857242168     3.0317071341     0.4392296588
  124      C      -1.6768725394     3.7336406639     0.1605862054
  125      C      -4.6117875524    -0.8159724789    -2.3589113868
  126      C      -7.3856188727     0.9552499649     1.7259201716
  127      C      -5.3355509083    -2.0474850629    -0.4285817880
  128      C      -5.9811797791    -0.5803255444    -2.1477421378
  129      C      -7.7320350076     0.8644420989    -0.5081881053
  130      C      -7.2728088743     3.5208986432    -0.8084929289
  131      C      -2.9435585240    -1.3083122479    -0.7562858970
  132      C      -5.2860311910     4.7756760176    -1.5213359536
  133      C      -5.0626883109    -1.9089006872     1.0977007461
  134      C      -5.9112882531    -1.0095411389     1.8825475724
  135      C      -5.1949367580     3.9012770949    -2.6814365217
  136      C      -4.2268765675     4.2209965697     2.4963305574
  137      C      -3.7300915691     5.0157486624     0.4354747214
  138      C      -2.5268229202     4.4800530066     1.0180300605
  139      C      -1.1933624834     2.4660940035     0.5677685841
  140      C      -5.1440097952    -0.2991056836     2.8059501021
  141      C      -4.1586933874    -1.6206847931    -1.3381206301
  142      C      -1.1539121570     1.6335445750    -0.5765046005
  143      C      -7.8504500989     1.6782767353     0.6105053517
  144      C      -2.0892309187    -0.4072780738    -1.4389532830
  145      C      -6.5233349888     0.6852630583    -2.5333626992
  146      C      -4.6184802577     2.0103820475     3.5277756524
  147      C      -1.9644629238     3.5905303936    -1.2297418931
  148      C      -6.4313770686    -1.1894154354    -0.9527836008
  149      C      -2.4064696503     2.6896649287     2.6110522264
  150      C      -7.5138564624     1.3985576459    -1.7857732120
  151      C      -3.8055499213     0.1059303439    -3.0216074465
  152      C      -6.0622913575     4.6518113636     0.8226023351
  153      C      -6.8236279575     3.6471999077     1.4148627544
  154      C      -4.3395413659     1.3087300791    -3.4230049231
  155      C      -5.5620254601     0.9873028404     3.2443300894
  156      C      -6.9857760259    -0.2511449363     1.2533558479
  157      C      -5.0537612973     3.2795503803     3.1200169498
  158      C      -3.7157123391    -1.4739629091     1.5395580315
  159      C      -2.3073349273     1.6722791420    -2.6597617969
  160      C      -7.2746232215    -0.4067251680    -0.1123974568
  161      C      -5.7044826960     1.6181388297    -3.1315338435
  162      C      -3.2144448943     1.7184330713     3.2445999233
  163      C      -3.8247397456     3.5905853226    -2.8212641654
  164      C      -1.5504229706     1.9703759029     1.7935227899
  165      C      -3.9969732849     4.8719903365    -0.9380090584
  166      C      -2.5449430833     0.2545241959    -2.5048867607
  167      C      -3.4262665374     2.2901050942    -3.2272546556
  168      C      -2.7019859708    -1.2133827792     0.6192445816
  169      C      -3.8002277700    -0.5299695159     2.5871493715
  170      C      -4.7825266763     4.8634498757     1.3414081763
  171      C      -1.6224257981     2.3553686309    -1.6581704456
  172      C      -7.1632736083     2.7455734019    -1.9615691605
  173      C      -6.3607682142     2.9897208314     2.5462654777
  174      C      -6.2976269113     4.5368846275    -0.5835093327
  175      C      -2.8359661572     0.4654092911     2.7859396442
  176      C      -2.8371268036     4.0092086602     2.2999368829
 ----------------------------------------------------------------

    9   -5804.2681284120      7.68E-06 Convergence criterion met
 Total energy in the final basis set = -5804.2681284120

                    Orbital Energies (a.u.)
 --------------------------------------------------------------

 Alpha MOs
 -- Occupied --
-19.197 -19.187 -19.146 -19.125 -10.326 -10.306 -10.255 -10.247
-10.244 -10.244 -10.241 -10.239 -10.239 -10.238 -10.236 -10.234
-10.227 -10.227 -10.225 -10.225 -10.224 -10.224 -10.224 -10.222
-10.222 -10.222 -10.221 -10.221 -10.220 -10.220 -10.220 -10.219
-10.219 -10.218 -10.218 -10.218 -10.218 -10.218 -10.217 -10.217
-10.217 -10.217 -10.217 -10.216 -10.216 -10.216 -10.216 -10.216
-10.216 -10.216 -10.216 -10.216 -10.216 -10.215 -10.215 -10.215
-10.215 -10.215 -10.215 -10.215 -10.215 -10.214 -10.214 -10.214
-10.214 -10.214 -10.214 -10.214 -10.213 -10.213 -10.213 -10.213
-10.213 -10.213 -10.213 -10.213 -10.213 -10.213 -10.213 -10.212
-10.212 -10.212 -10.212 -10.212 -10.212 -10.212 -10.211 -10.211
-10.211 -10.211 -10.211 -10.211 -10.210 -10.210 -10.210 -10.210
-10.210 -10.209 -10.209 -10.209 -10.209 -10.209 -10.209 -10.209
-10.209 -10.209 -10.209 -10.209 -10.209 -10.209 -10.209 -10.208
-10.208 -10.208 -10.208 -10.208 -10.207 -10.207 -10.207 -10.207
-10.207 -10.207 -10.207 -10.206 -10.206 -10.206 -10.205 -10.205
-10.205 -10.205 -10.205 -10.205 -10.204 -10.204 -10.204 -10.204
-10.203 -10.202 -10.202 -10.201 -10.201 -10.200 -10.200 -10.198
-10.197 -10.197 -10.196 -10.190  -1.114  -1.092  -1.017  -1.013
 -0.984  -0.983  -0.967  -0.966  -0.964  -0.964  -0.960  -0.958
 -0.934  -0.929  -0.928  -0.928  -0.926  -0.926  -0.924  -0.922
 -0.920  -0.917  -0.897  -0.893  -0.892  -0.890  -0.884  -0.879
 -0.873  -0.871  -0.855  -0.853  -0.844  -0.844  -0.842  -0.841
 -0.838  -0.836  -0.821  -0.821  -0.808  -0.802  -0.801  -0.798
 -0.797  -0.795  -0.795  -0.794  -0.792  -0.791  -0.782  -0.780
 -0.773  -0.773  -0.770  -0.770  -0.769  -0.768  -0.763  -0.763
 -0.754  -0.751  -0.748  -0.746  -0.736  -0.731  -0.716  -0.715
 -0.714  -0.714  -0.714  -0.712  -0.712  -0.711  -0.710  -0.709
 -0.709  -0.708  -0.706  -0.705  -0.704  -0.703  -0.674  -0.673
 -0.662  -0.659  -0.658  -0.657  -0.648  -0.648  -0.632  -0.629
 -0.628  -0.627  -0.625  -0.622  -0.620  -0.620  -0.619  -0.617
 -0.617  -0.616  -0.615  -0.615  -0.613  -0.613  -0.611  -0.609
 -0.608  -0.607  -0.604  -0.602  -0.570  -0.567  -0.566  -0.564
 -0.563  -0.560  -0.558  -0.557  -0.556  -0.553  -0.552  -0.550
 -0.537  -0.536  -0.531  -0.531  -0.529  -0.527  -0.526  -0.525
 -0.525  -0.522  -0.519  -0.518  -0.516  -0.515  -0.515  -0.515
 -0.511  -0.508  -0.503  -0.501  -0.494  -0.492  -0.489  -0.487
 -0.486  -0.485  -0.484  -0.481  -0.480  -0.480  -0.476  -0.474
 -0.473  -0.472  -0.471  -0.469  -0.468  -0.468  -0.467  -0.467
 -0.465  -0.464  -0.464  -0.463  -0.462  -0.460  -0.460  -0.459
 -0.458  -0.455  -0.454  -0.452  -0.448  -0.446  -0.445  -0.445
 -0.444  -0.444  -0.440  -0.439  -0.437  -0.437  -0.436  -0.433
 -0.432  -0.431  -0.429  -0.428  -0.428  -0.427  -0.426  -0.424
 -0.424  -0.423  -0.421  -0.421  -0.420  -0.419  -0.419  -0.418
 -0.417  -0.417  -0.416  -0.415  -0.414  -0.414  -0.413  -0.412
 -0.411  -0.408  -0.408  -0.408  -0.403  -0.402  -0.400  -0.398
 -0.395  -0.395  -0.394  -0.392  -0.388  -0.387  -0.386  -0.386
 -0.382  -0.377  -0.374  -0.374  -0.370  -0.370  -0.367  -0.366
 -0.365  -0.364  -0.363  -0.363  -0.361  -0.360  -0.359  -0.357
 -0.355  -0.355  -0.355  -0.354  -0.353  -0.352  -0.351  -0.350
 -0.349  -0.347  -0.347  -0.346  -0.346  -0.345  -0.344  -0.343
 -0.342  -0.342  -0.340  -0.339  -0.337  -0.336  -0.335  -0.334
 -0.333  -0.331  -0.330  -0.330  -0.328  -0.327  -0.325  -0.323
 -0.309  -0.306  -0.303  -0.298  -0.286  -0.284  -0.279  -0.271
 -0.270  -0.270  -0.268  -0.267  -0.266  -0.265  -0.264  -0.264
 -0.262  -0.261  -0.260  -0.259  -0.258  -0.257  -0.256  -0.255
 -0.253  -0.252  -0.247  -0.246  -0.224  -0.218  -0.212  -0.211
 -0.211  -0.210  -0.207  -0.207  -0.198  -0.195

          Ground-State Mulliken Net Atomic Charges

     Atom                 Charge (a.u.)
  ----------------------------------------
      1 O                    -0.488609
      2 C                    -0.087185
      3 H                     0.136848
      4 H                     0.131561
      5 H                     0.130544
      6 O                    -0.473665
      7 C                     0.608194
      8 C                    -0.258238
      9 H                     0.135182
     10 H                     0.138732
     11 C                    -0.188831
     12 H                     0.125518
     13 H                     0.119169
     14 C                    -0.188171
     15 H                     0.108083
     16 H                     0.105135
     17 C                     0.024225
     18 C                     0.075812
     19 C                    -0.114795
     20 H                     0.092439
     21 C                    -0.085778
     22 H                     0.098027
     23 C                    -0.085686
     24 H                     0.084787
     25 C                    -0.083053
     26 H                     0.097515
     27 C                    -0.104646
     28 H                     0.099178
     29 C                    -0.025685
     30 C                     0.004882
     31 C                    -0.001765
     32 C                    -0.011851
     33 C                     0.042528
     34 C                    -0.017343
     35 C                     0.029247
     36 C                     0.040014
     37 C                    -0.008122
     38 C                    -0.017053
     39 C                    -0.101178
     40 C                     0.016099
     41 C                     0.009884
     42 C                    -0.022458
     43 C                     0.015991
     44 C                     0.001611
     45 C                    -0.097234
     46 C                     0.061557
     47 C                    -0.011859
     48 C                     0.002724
     49 C                    -0.020740
     50 C                    -0.010258
     51 C                     0.011514
     52 C                     0.002030
     53 C                     0.019318
     54 C                    -0.019549
     55 C                     0.021671
     56 C                     0.003013
     57 C                    -0.018125
     58 C                    -0.009721
     59 C                    -0.006290
     60 C                     0.016458
     61 C                    -0.011667
     62 C                    -0.007978
     63 C                     0.003877
     64 C                    -0.007603
     65 C                    -0.010965
     66 C                     0.006567
     67 C                    -0.023728
     68 C                     0.003491
     69 C                    -0.004574
     70 C                     0.031963
     71 C                    -0.014893
     72 C                    -0.023386
     73 C                    -0.026456
     74 C                    -0.015368
     75 C                    -0.029704
     76 C                    -0.012198
     77 C                     0.037918
     78 C                     0.005597
     79 C                     0.011144
     80 C                     0.026841
     81 C                    -0.015490
     82 C                     0.013117
     83 C                    -0.013566
     84 C                    -0.022030
     85 C                     0.014332
     86 C                     0.001693
     87 C                     0.054083
     88 C                    -0.008918
     89 O                    -0.445461
     90 C                    -0.091488
     91 H                     0.124205
     92 H                     0.134548
     93 H                     0.123628
     94 O                    -0.483233
     95 C                     0.600735
     96 C                    -0.263579
     97 H                     0.128244
     98 H                     0.119969
     99 C                    -0.194868
    100 H                     0.105082
    101 H                     0.131449
    102 C                    -0.199227
    103 H                     0.123957
    104 H                     0.111863
    105 C                     0.025408
    106 C                     0.081286
    107 C                    -0.104046
    108 H                     0.096830
    109 C                    -0.103774
    110 H                     0.083123
    111 C                    -0.088894
    112 H                     0.119109
    113 C                    -0.097677
    114 H                     0.094243
    115 C                    -0.104414
    116 H                     0.094194
    117 C                    -0.037400
    118 C                    -0.019666
    119 C                    -0.004721
    120 C                    -0.029845
    121 C                    -0.003034
    122 C                     0.031518
    123 C                     0.002052
    124 C                    -0.014411
    125 C                     0.019824
    126 C                     0.003235
    127 C                    -0.085090
    128 C                    -0.006259
    129 C                    -0.001946
    130 C                     0.024560
    131 C                     0.005994
    132 C                    -0.030559
    133 C                    -0.095241
    134 C                     0.020561
    135 C                    -0.009446
    136 C                     0.011054
    137 C                     0.007362
    138 C                    -0.009364
    139 C                    -0.010599
    140 C                     0.003141
    141 C                     0.014712
    142 C                    -0.000796
    143 C                    -0.019898
    144 C                    -0.013641
    145 C                    -0.009694
    146 C                    -0.032467
    147 C                     0.002168
    148 C                     0.031861
    149 C                     0.032024
    150 C                    -0.046481
    151 C                    -0.005759
    152 C                    -0.008538
    153 C                     0.020807
    154 C                    -0.002180
    155 C                     0.023208
    156 C                     0.013615
    157 C                    -0.000359
    158 C                     0.005312
    159 C                    -0.029578
    160 C                     0.014015
    161 C                     0.027332
    162 C                    -0.020208
    163 C                     0.011259
    164 C                     0.011459
    165 C                     0.009732
    166 C                     0.024147
    167 C                    -0.002129
    168 C                     0.017632
    169 C                     0.012514
    170 C                     0.007356
    171 C                     0.028912
    172 C                     0.001543
    173 C                     0.002469
    174 C                    -0.015856
    175 C                     0.017709
    176 C                    -0.028836
  ----------------------------------------
  Sum of atomic charges =     0.000000

                    Cartesian Multipole Moments
 -----------------------------------------------------------------
    Charge (ESU x 10^10)
                 0.0000
    Dipole Moment (Debye)
         X       0.3338      Y      -5.0506      Z      -0.7986
       Tot       5.1243
    Quadrupole Moments (Debye-Ang)
        XX    -821.4000     XY      -0.1908     YY    -791.1306
        XZ      12.8335     YZ      -5.1324     ZZ    -794.4449

 Total job time:  884.82s(wall), 8444.56s(cpu)
        *  Thank you very much for using Q-Chem.  Have a nice day.  *
