 Q-Chem 4.4, Q-Chem, Inc., Pleasanton, CA (2016)
 Q-Chem 4.4.2 for Intel X86 Linux

User input:
--------------------------------------------------------------
$comment
SP
$end

$rem
MEM_STATIC 5000
MEM_TOTAL 20000
JOBTYPE SP
EXCHANGE B3LYP
BASIS 6-31g(d,p)
$end

$molecule
0 1
O         -22.482000     -7.515000    -14.379000
C         -21.848000     -6.987000    -15.584000
H         -21.082000     -7.631000    -16.032000
H         -21.431000     -5.997000    -15.363000
H         -22.698000     -6.836000    -16.261000
O         -22.627000     -9.698000    -15.113000
C         -22.791000     -8.853000    -14.247000
C         -23.228000     -9.179000    -12.831000
H         -24.299000     -8.943000    -12.870000
H         -22.698000     -8.571000    -12.087000
C         -23.057000    -10.710000    -12.555000
H         -23.628000    -11.232000    -13.333000
H         -22.022000    -11.038000    -12.710000
C         -23.579000    -11.165000    -11.176000
H         -23.459000    -12.252000    -11.256000
H         -22.985000    -10.813000    -10.323000
C         -25.032000    -11.032000    -10.835000
C         -25.954000    -11.782000    -11.783000
C         -26.634000    -11.119000    -12.804000
H         -26.406000    -10.115000    -13.150000
C         -27.548000    -11.830000    -13.629000
H         -28.171000    -11.357000    -14.382000
C         -27.804000    -13.157000    -13.306000
H         -28.557000    -13.624000    -13.936000
C         -27.183000    -13.850000    -12.236000
H         -27.406000    -14.873000    -11.947000
C         -26.260000    -13.129000    -11.457000
H         -25.785000    -13.656000    -10.635000
C         -29.089000     -7.813000     -9.102000
C         -29.579000     -9.918000     -8.007000
C         -28.569000     -8.597000     -3.840000
C         -24.298000     -6.471000     -7.935000
C         -25.400000    -10.095000     -3.856000
C         -29.161000     -9.216000     -9.163000
C         -23.775000     -7.362000     -5.381000
C         -29.651000     -7.411000     -5.564000
C         -26.255000    -11.944000     -7.269000
C         -23.549000     -7.612000     -7.758000
C         -25.334000    -11.067000     -9.312000
C         -24.902000    -11.627000     -6.961000
C         -23.296000     -9.431000     -6.549000
C         -24.233000     -8.051000     -4.269000
C         -27.869000    -11.010000     -8.873000
C         -26.465000     -8.016000     -3.333000
C         -25.520000     -9.792000    -10.130000
C         -24.721000     -8.635000     -9.663000
C         -26.489000     -9.396000     -3.305000
C         -27.050000     -5.169000     -6.175000
C         -27.901000     -6.341000     -4.364000
C         -28.930000     -6.256000     -5.346000
C         -29.959000     -7.835000     -6.828000
C         -25.545000     -7.519000     -9.786000
C         -26.610000    -11.590000     -8.610000
C         -30.098000     -9.235000     -6.905000
C         -23.298000     -8.036000     -6.446000
C         -28.830000    -11.076000     -7.846000
C         -24.589000    -11.224000     -5.653000
C         -26.340000     -5.649000     -8.468000
C         -29.588000     -8.582000     -4.778000
C         -24.348000    -11.019000     -8.152000
C         -28.746000     -5.994000     -7.694000
C         -23.768000    -10.111000     -5.484000
C         -27.265000    -12.003000     -6.269000
C         -25.527000     -6.169000     -4.552000
C         -24.545000     -6.187000     -5.539000
C         -26.936000    -11.648000     -4.992000
C         -25.296000     -6.411000     -8.985000
C         -23.749000     -8.687000     -8.623000
C         -26.055000     -5.199000     -7.185000
C         -26.919000     -9.323000    -10.258000
C         -29.032000    -10.894000     -5.415000
C         -23.528000     -9.871000     -7.898000
C         -25.600000    -11.265000     -4.613000
C         -27.688000     -6.120000     -8.713000
C         -27.823000     -9.811000     -3.600000
C         -29.528000     -7.128000     -7.930000
C         -27.746000     -7.522000     -3.648000
C         -28.529000    -11.518000     -6.572000
C         -27.996000    -10.920000     -4.461000
C         -28.070000     -9.931000     -9.664000
C         -26.879000     -7.915000    -10.043000
C         -26.780000     -5.698000     -4.868000
C         -29.793000     -9.686000     -5.573000
C         -24.245000     -9.451000     -4.275000
C         -24.830000     -5.747000     -6.846000
C         -25.377000     -7.354000     -3.802000
C         -27.948000     -7.187000     -9.515000
C         -28.430000     -5.551000     -6.420000
O         -35.478000    -21.206000     -6.395000
C         -36.715000    -21.594000     -5.695000
H         -36.422000    -22.148000     -4.795000
H         -37.388000    -22.154000     -6.356000
H         -37.215000    -20.624000     -5.586000
O         -34.925000    -23.349000     -6.752000
C         -34.648000    -22.181000     -6.788000
C         -33.231000    -21.665000     -7.134000
H         -32.628000    -22.579000     -7.195000
H         -32.898000    -21.143000     -6.228000
C         -33.054000    -20.751000     -8.420000
H         -33.425000    -21.281000     -9.306000
H         -33.726000    -19.884000     -8.432000
C         -31.633000    -20.291000     -8.636000
H         -30.938000    -21.127000     -8.776000
H         -31.656000    -19.878000     -9.652000
C         -31.117000    -19.269000     -7.557000
C         -32.151000    -18.300000     -7.022000
C         -32.614000    -18.285000     -5.684000
H         -32.266000    -19.068000     -5.017000
C         -33.490000    -17.264000     -5.227000
H         -33.862000    -17.409000     -4.218000
C         -34.073000    -16.459000     -6.173000
H         -34.871000    -15.813000     -5.820000
C         -33.587000    -16.404000     -7.521000
H         -34.112000    -15.800000     -8.255000
C         -32.603000    -17.307000     -7.957000
H         -32.341000    -17.327000     -9.011000
C         -27.254000    -15.347000     -8.043000
C         -27.476000    -15.590000     -5.666000
C         -23.460000    -17.743000     -4.863000
C         -26.306000    -19.891000    -10.115000
C         -24.940000    -20.988000     -4.688000
C         -28.066000    -15.592000     -6.915000
C         -24.806000    -21.475000     -8.311000
C         -24.075000    -15.859000     -6.334000
C         -28.655000    -19.339000     -4.672000
C         -26.927000    -20.888000     -9.305000
C         -29.868000    -19.452000     -6.683000
C         -28.383000    -20.588000     -5.220000
C         -27.014000    -21.923000     -7.328000
C         -24.311000    -21.458000     -6.998000
C         -29.126000    -17.158000     -5.688000
C         -23.093000    -19.762000     -5.818000
C         -29.754000    -18.758000     -8.004000
C         -28.827000    -19.383000     -9.046000
C         -23.969000    -19.999000     -4.683000
C         -23.771000    -17.739000     -9.269000
C         -22.822000    -17.770000     -7.186000
C         -23.401000    -16.493000     -7.407000
C         -25.295000    -15.196000     -6.547000
C         -28.188000    -18.369000     -9.771000
C         -29.414000    -18.562000     -5.565000
C         -26.138000    -15.446000     -5.470000
C         -26.206000    -21.735000     -8.458000
C         -28.103000    -16.589000     -4.934000
C         -27.164000    -21.303000     -5.002000
C         -25.967000    -17.672000    -10.362000
C         -24.092000    -16.457000     -5.040000
C         -28.990000    -20.655000     -6.473000
C         -25.211000    -15.804000     -8.933000
C         -26.452000    -21.942000     -6.046000
C         -27.666000    -18.740000     -3.832000
C         -23.363000    -19.870000     -8.268000
C         -24.209000    -20.503000     -9.110000
C         -26.493000    -19.396000     -3.635000
C         -26.936000    -18.681000    -10.316000
C         -28.155000    -20.599000     -8.735000
C         -24.715000    -18.333000    -10.189000
C         -29.348000    -17.308000     -8.089000
C         -26.051000    -17.169000     -3.819000
C         -28.240000    -21.235000     -7.508000
C         -26.241000    -20.688000     -4.168000
C         -26.217000    -16.400000     -9.767000
C         -24.177000    -18.690000     -4.114000
C         -25.866000    -15.215000     -7.828000
C         -22.846000    -18.388000     -5.935000
C         -27.468000    -17.350000     -3.997000
C         -25.469000    -18.427000     -3.586000
C         -29.084000    -16.552000     -6.942000
C         -28.492000    -17.124000     -9.238000
C         -23.027000    -18.520000     -8.386000
C         -25.395000    -16.211000     -4.568000
C         -25.124000    -21.757000     -5.891000
C         -24.917000    -19.698000    -10.052000
C         -23.352000    -20.452000     -7.002000
C         -27.447000    -16.134000     -9.203000
C         -23.962000    -16.500000     -8.697000
$end

--------------------------------------------------------------

             Standard Nuclear Orientation (Angstroms)
    I     Atom           X                Y                Z
 ----------------------------------------------------------------
    1      O      -8.0297604651     5.5396823951    -3.6725222388
    2      C      -8.8219742478     6.5404544101    -4.3821825072
    3      H      -8.4369755819     7.5658501937    -4.3318286173
    4      H      -9.8548419974     6.5034247890    -4.0152451569
    5      H      -8.8306344553     6.1602144421    -5.4112464350
    6      O      -5.9685187250     6.3791112236    -4.2823679005
    7      C      -6.6506339420     5.5735103643    -3.6686879461
    8      C      -6.0790411328     4.5701960453    -2.6843389035
    9      H      -6.0476848733     3.6570203463    -3.2921093599
   10      H      -6.7160838508     4.4548878743    -1.7983475936
   11      C      -4.6164947408     4.9707523225    -2.2971816744
   12      H      -4.0558622943     5.0476160134    -3.2371775430
   13      H      -4.5709417862     5.9795296829    -1.8692480749
   14      C      -3.9036592098     3.9515771599    -1.3837828056
   15      H      -2.8941856477     4.3778799676    -1.3438072681
   16      H      -4.2981730471     3.8994611814    -0.3610454214
   17      C      -3.6389778660     2.5579516541    -1.8664117893
   18      C      -2.7905200009     2.4977274526    -3.1264833336
   19      C      -3.3707528459     2.2987809888    -4.3787453469
   20      H      -4.4308581062     2.3982724705    -4.5932081226
   21      C      -2.5487919993     2.1709944508    -5.5318251219
   22      H      -2.9315091977     1.9296815190    -6.5188218874
   23      C      -1.1730156098     2.1460058446    -5.3384113286
   24      H      -0.6050064295     1.9835946541    -6.2510920922
   25      C      -0.5441951125     2.2794942290    -4.0744668545
   26      H       0.5269449436     2.2186385870    -3.9049541085
   27      C      -1.3828802122     2.4358042129    -2.9560816381
   28      H      -0.9044811085     2.5352504321    -1.9863998619
   29      C      -5.5610629260    -2.4905512889    -2.6681012907
   30      C      -3.2962929070    -2.9004686396    -1.9111769043
   31      C      -4.3751217615    -4.5882846624     2.1033511347
   32      C      -7.9064579244     0.4463189708     0.7946215367
   33      C      -3.7112658849    -1.6068401410     3.8229746228
   34      C      -4.1979512809    -2.1467472250    -2.7003411496
   35      C      -6.9053850749    -0.2168771883     3.2742081968
   36      C      -5.4351964757    -4.8879397794     0.0210580691
   37      C      -2.0817365423    -0.0443145731     0.5516533345
   38      C      -6.9720918954     1.2652205834     1.3867121318
   39      C      -3.3695770195     1.5320666614    -0.7319774961
   40      C      -2.6866446369     0.8126304770     1.5137829402
   41      C      -5.1531993964     1.3249038308     2.6206160937
   42      C      -6.0111015210    -0.9837557843     4.0044021054
   43      C      -2.7556696333    -0.7722562436    -1.6991427721
   44      C      -5.3976564150    -3.2934831470     3.6197079259
   45      C      -4.6392534171     1.4679302339    -1.5764615776
   46      C      -5.9007162984     1.5699212026    -0.8061056588
   47      C      -4.0590496141    -2.9628564205     3.6873673682
   48      C      -8.2988278467    -3.0482790933     0.7828650864
   49      C      -6.7685211382    -4.3695089170     1.9186551774
   50      C      -6.7019967320    -4.7197755379     0.5390618324
   51      C      -5.0851035596    -4.3711360318    -1.1965973980
   52      C      -6.7868547226     0.6686356830    -1.3909168295
   53      C      -2.4779420062     0.2685972157    -0.7880217914
   54      C      -3.7101332606    -4.0743205994    -1.2778825507
   55      C      -6.4859826612     0.9012577305     2.6497837268
   56      C      -2.3472430613    -2.0687804542    -1.3319661028
   57      C      -3.0130626016     0.2826328224     2.7722724310
   58      C      -8.2538082322    -1.1553188211    -0.7685934668
   59      C      -4.2389341516    -4.9347306524     0.7692379045
   60      C      -3.5348225246     1.7199421551     0.7705193331
   61      C      -7.2486726724    -3.4221638329    -1.3669689331
   62      C      -4.2691367635     0.5686257125     3.3031742736
   63      C      -1.6708908785    -1.3685428445     0.8697827509
   64      C      -7.5369451135    -2.3867558609     3.0044815505
   65      C      -7.8653427599    -1.0716918054     2.6857677041
   66      C      -1.9582724933    -1.8567736940     2.1123757837
   67      C      -7.8306662095     0.1631215301    -0.6252935401
   68      C      -5.9788951466     1.8350431758     0.5912799025
   69      C      -8.6212931937    -1.7075481727     0.4519848987
   70      C      -4.7613380612     0.2725641424    -2.4423375773
   71      C      -2.2151760975    -3.5413840475     0.6167991407
   72      C      -4.8153607664     1.9518092487     1.3715846060
   73      C      -2.6150732074    -1.0679011185     3.1230779563
   74      C      -7.4950532328    -2.0001625046    -1.6683156468
   75      C      -3.3629953488    -3.7851919862     2.7503088443
   76      C      -5.9890432302    -3.6361566287    -1.9332875288
   77      C      -5.5926310902    -4.3025469771     2.6563818840
   78      C      -1.8600934653    -2.3676233449    -0.0740236566
   79      C      -2.3432401746    -3.1864998277     1.9739081204
   80      C      -3.8299376929    -0.8107963405    -2.5205962383
   81      C      -6.1050779194    -0.1784197147    -2.2965097533
   82      C      -7.7167366009    -3.3664515616     2.0560210320
   83      C      -3.2091412792    -4.3975992259     0.0317540264
   84      C      -4.6597750414    -0.6204591220     4.0503616613
   85      C      -8.3579929969    -0.7422006723     1.4083463418
   86      C      -6.3523670264    -2.3404289172     3.7685846652
   87      C      -6.4881545753    -1.5139102410    -2.4422709618
   88      C      -7.6179767505    -3.9426659563    -0.1373864685
   89      O       9.1996534772    -5.5508906036    -3.1926902192
   90      C       9.9514192028    -6.8172783758    -3.2353903859
   91      H      10.5087840647    -6.8991508988    -2.2944300781
   92      H      10.5861159007    -6.8739812458    -4.1283600865
   93      H       9.1510396713    -7.5367471115    -3.4464314809
   94      O      11.0910016616    -4.3497931533    -3.1160484537
   95      C       9.8937220688    -4.4144905919    -3.0483371680
   96      C       9.0119814568    -3.2190477125    -2.6155429728
   97      H       9.7382081755    -2.4554913130    -2.3117299087
   98      H       8.5233478050    -3.5558288367    -1.6924911710
   99      C       7.9514126827    -2.6499571531    -3.6508452525
  100      H       8.4592042608    -2.3523349484    -4.5766453046
  101      H       7.2796688022    -3.4193677018    -4.0510758943
  102      C       7.1364398741    -1.5038550896    -3.1033360002
  103      H       7.7565443239    -0.6451340224    -2.8212197120
  104      H       6.6363593061    -1.1050018937    -3.9945091336
  105      C       6.1394432465    -1.9136109928    -1.9574394847
  106      C       5.5162939295    -3.2879487577    -2.0886745288
  107      C       5.7574135115    -4.3620816839    -1.1982039767
  108      H       6.4972240629    -4.2179240094    -0.4165512962
  109      C       5.0371001306    -5.5812257811    -1.3144033896
  110      H       5.3751585494    -6.3685169487    -0.6485361934
  111      C       4.3041829603    -5.7776863011    -2.4576731239
  112      H       3.9150356045    -6.7803879298    -2.6056014147
  113      C       3.9889060063    -4.6981610633    -3.3473644767
  114      H       3.4579185589    -4.9042377356    -4.2719085459
  115      C       4.5712331620    -3.4332494178    -3.1612069823
  116      H       4.4143946848    -2.6684912051    -3.9165258343
  117      C       1.3604662673     0.4436839029    -0.4926566314
  118      C       1.9012379955    -0.9048869750     1.4171560624
  119      C       3.0751985257     2.5139255358     4.3054101526
  120      C       5.2865095964     3.4895401414    -1.5644623750
  121      C       6.5838859922     2.0770215831     3.8061334774
  122      C       1.9155122397    -0.7367185015     0.0461634984
  123      C       6.6359695807     4.1928478615     0.8225416052
  124      C       1.2547432146     2.2784765332     2.6555531201
  125      C       5.9085557693    -1.3883792254     1.7922793799
  126      C       6.4855557139     2.8280400585    -1.1638927203
  127      C       6.1018911028    -1.3025378822    -0.5494105468
  128      C       6.9871780282    -0.5530382444     1.5219675820
  129      C       7.7139196022     2.0059059481     0.5101863287
  130      C       6.6373496897     3.9102758681     2.1971085057
  131      C       3.8148298381    -1.8210674467     0.5922999517
  132      C       4.8292904310     3.8409871388     3.7714213046
  133      C       5.2650629629    -0.7084061654    -1.6386300689
  134      C       5.5292277158     0.7508368838    -2.0081496309
  135      C       5.3930803188     2.6027915672     4.2820901688
  136      C       2.6803446140     4.5439995727     0.4025313698
  137      C       2.6982064893     4.2441771918     2.6719450591
  138      C       1.5863960698     3.5504064076     2.1266280043
  139      C       0.8927682528     1.2214888706     1.8040314187
  140      C       4.3183980897     1.3784200785    -2.3277946687
  141      C       5.2514433891    -1.7480545550     0.6022810702
  142      C       1.4548321955     0.0436341067     2.2834271628
  143      C       7.2145676465     3.1991540750    -0.0301048262
  144      C       3.0954107057    -1.5303032123     1.7484566332
  145      C       7.4000351613     0.5142849797     2.3793357194
  146      C       3.0389037224     3.3069250591    -1.6861610473
  147      C       1.9723928243     1.7518627588     3.7690996931
  148      C       7.0678339350    -0.3794460140     0.1412766817
  149      C       1.2049265791     2.6873658031    -0.1513401567
  150      C       7.7302540692     1.8034074613     1.8952699175
  151      C       5.1776970660    -1.1777764402     3.0022438515
  152      C       4.7397649506     4.9200143079     1.5544978606
  153      C       5.4680711060     4.8357328343     0.4196693373
  154      C       5.5427669400    -0.1525686460     3.8151072876
  155      C       4.2538996588     2.7616282694    -2.1169675998
  156      C       6.5689770129     1.4574684878    -1.3399025392
  157      C       3.3868536986     4.4101453661    -0.8517811769
  158      C       3.7591896897    -0.7173056266    -1.5560014746
  159      C       3.2688513110    -0.2861881876     3.8008759767
  160      C       7.3328281519     0.9203252386    -0.3175236626
  161      C       6.6693237445     0.6700932265     3.5487349736
  162      C       1.9377039419     2.4590339983    -1.3653047046
  163      C       4.2431603868     1.7927598053     4.6015251305
  164      C       0.9153652704     1.4261907550     0.4166059204
  165      C       3.4322850912     3.7394464756     3.7461315003
  166      C       3.7722111112    -1.2985130199     2.9097186698
  167      C       4.3628900584     0.3987809861     4.3571793562
  168      C       3.0875775677    -1.2969713961    -0.4744443780
  169      C       3.2498941786     0.5258868602    -2.0869285160
  170      C       3.3439326923     4.8977165611     1.5762950404
  171      C       2.1052637187     0.3824602864     3.4721296712
  172      C       7.2424472020     2.7542158781     2.7197951232
  173      C       4.7662620036     4.5355377778    -0.7861498497
  174      C       5.4321541138     4.4264597894     2.6584010194
  175      C       2.0431421927     1.0960239228    -1.5465181400
  176      C       1.5940207565     3.7647357900     0.7363493344
 ----------------------------------------------------------------

    9   -5804.2885680971      9.03E-06 Convergence criterion met
 Total energy in the final basis set = -5804.2885680971

                    Orbital Energies (a.u.)
 --------------------------------------------------------------

 Alpha MOs
 -- Occupied --
-19.188 -19.187 -19.135 -19.129 -10.316 -10.310 -10.250 -10.247
-10.247 -10.246 -10.242 -10.238 -10.237 -10.236 -10.235 -10.234
-10.231 -10.229 -10.228 -10.228 -10.226 -10.226 -10.224 -10.224
-10.224 -10.223 -10.222 -10.222 -10.222 -10.221 -10.221 -10.221
-10.221 -10.221 -10.221 -10.221 -10.221 -10.220 -10.220 -10.220
-10.220 -10.220 -10.220 -10.220 -10.219 -10.219 -10.218 -10.218
-10.218 -10.218 -10.218 -10.218 -10.218 -10.218 -10.218 -10.217
-10.217 -10.217 -10.217 -10.217 -10.217 -10.217 -10.216 -10.216
-10.216 -10.216 -10.216 -10.215 -10.215 -10.215 -10.215 -10.214
-10.214 -10.214 -10.214 -10.214 -10.213 -10.213 -10.213 -10.213
-10.213 -10.213 -10.213 -10.213 -10.213 -10.212 -10.212 -10.212
-10.212 -10.212 -10.212 -10.212 -10.212 -10.212 -10.212 -10.212
-10.212 -10.211 -10.211 -10.211 -10.211 -10.211 -10.211 -10.211
-10.210 -10.210 -10.210 -10.210 -10.210 -10.210 -10.209 -10.209
-10.209 -10.209 -10.209 -10.208 -10.208 -10.208 -10.208 -10.208
-10.208 -10.208 -10.208 -10.208 -10.207 -10.207 -10.207 -10.207
-10.207 -10.207 -10.206 -10.206 -10.204 -10.204 -10.204 -10.203
-10.203 -10.203 -10.203 -10.202 -10.202 -10.200 -10.199 -10.199
-10.197 -10.196 -10.195 -10.192  -1.097  -1.081  -1.010  -1.006
 -0.985  -0.982  -0.970  -0.965  -0.964  -0.963  -0.961  -0.958
 -0.935  -0.932  -0.932  -0.927  -0.927  -0.925  -0.925  -0.921
 -0.920  -0.916  -0.901  -0.896  -0.893  -0.889  -0.886  -0.878
 -0.875  -0.869  -0.853  -0.850  -0.843  -0.843  -0.842  -0.841
 -0.839  -0.836  -0.821  -0.820  -0.803  -0.799  -0.799  -0.798
 -0.797  -0.797  -0.796  -0.793  -0.792  -0.791  -0.787  -0.778
 -0.772  -0.771  -0.770  -0.769  -0.767  -0.767  -0.763  -0.760
 -0.753  -0.750  -0.745  -0.743  -0.734  -0.734  -0.718  -0.716
 -0.715  -0.714  -0.713  -0.713  -0.711  -0.711  -0.710  -0.710
 -0.708  -0.706  -0.706  -0.704  -0.702  -0.701  -0.676  -0.672
 -0.661  -0.661  -0.658  -0.657  -0.651  -0.646  -0.632  -0.628
 -0.627  -0.627  -0.626  -0.625  -0.623  -0.619  -0.619  -0.616
 -0.615  -0.614  -0.614  -0.614  -0.614  -0.613  -0.611  -0.608
 -0.608  -0.606  -0.605  -0.601  -0.566  -0.564  -0.563  -0.561
 -0.560  -0.560  -0.559  -0.558  -0.556  -0.555  -0.551  -0.548
 -0.538  -0.534  -0.533  -0.530  -0.530  -0.527  -0.527  -0.525
 -0.524  -0.524  -0.523  -0.518  -0.517  -0.517  -0.514  -0.510
 -0.507  -0.500  -0.499  -0.497  -0.493  -0.489  -0.487  -0.486
 -0.486  -0.485  -0.483  -0.483  -0.481  -0.479  -0.476  -0.474
 -0.472  -0.471  -0.470  -0.469  -0.468  -0.468  -0.467  -0.466
 -0.465  -0.464  -0.463  -0.463  -0.462  -0.460  -0.459  -0.458
 -0.457  -0.456  -0.453  -0.453  -0.447  -0.446  -0.444  -0.443
 -0.442  -0.442  -0.441  -0.440  -0.437  -0.436  -0.436  -0.434
 -0.434  -0.432  -0.430  -0.428  -0.427  -0.426  -0.426  -0.425
 -0.425  -0.423  -0.423  -0.422  -0.419  -0.419  -0.419  -0.418
 -0.418  -0.417  -0.416  -0.415  -0.415  -0.415  -0.414  -0.413
 -0.412  -0.410  -0.409  -0.407  -0.400  -0.399  -0.398  -0.397
 -0.396  -0.394  -0.394  -0.393  -0.391  -0.389  -0.387  -0.385
 -0.383  -0.376  -0.376  -0.374  -0.372  -0.369  -0.367  -0.366
 -0.364  -0.364  -0.362  -0.361  -0.361  -0.360  -0.358  -0.358
 -0.358  -0.357  -0.356  -0.354  -0.354  -0.353  -0.351  -0.351
 -0.350  -0.349  -0.348  -0.346  -0.346  -0.345  -0.344  -0.344
 -0.342  -0.341  -0.341  -0.340  -0.338  -0.336  -0.335  -0.335
 -0.333  -0.332  -0.332  -0.330  -0.329  -0.328  -0.326  -0.323
 -0.306  -0.303  -0.300  -0.294  -0.289  -0.284  -0.272  -0.272
 -0.270  -0.269  -0.268  -0.268  -0.267  -0.266  -0.264  -0.263
 -0.263  -0.262  -0.261  -0.260  -0.258  -0.257  -0.256  -0.253
 -0.253  -0.249  -0.245  -0.245  -0.223  -0.222  -0.214  -0.211
 -0.210  -0.210  -0.209  -0.207  -0.199  -0.194

          Ground-State Mulliken Net Atomic Charges

     Atom                 Charge (a.u.)
  ----------------------------------------
      1 O                    -0.485964
      2 C                    -0.085386
      3 H                     0.137488
      4 H                     0.127154
      5 H                     0.127323
      6 O                    -0.469529
      7 C                     0.597092
      8 C                    -0.259028
      9 H                     0.133844
     10 H                     0.133154
     11 C                    -0.181924
     12 H                     0.129034
     13 H                     0.113659
     14 C                    -0.188558
     15 H                     0.110837
     16 H                     0.101201
     17 C                     0.026900
     18 C                     0.072815
     19 C                    -0.116917
     20 H                     0.092208
     21 C                    -0.085573
     22 H                     0.096013
     23 C                    -0.086974
     24 H                     0.082012
     25 C                    -0.083160
     26 H                     0.093397
     27 C                    -0.104161
     28 H                     0.097805
     29 C                    -0.026134
     30 C                     0.005067
     31 C                    -0.001740
     32 C                    -0.011588
     33 C                     0.042974
     34 C                    -0.018460
     35 C                     0.031864
     36 C                     0.040396
     37 C                    -0.007784
     38 C                    -0.019345
     39 C                    -0.101145
     40 C                     0.020638
     41 C                     0.002758
     42 C                    -0.023855
     43 C                     0.015326
     44 C                     0.001732
     45 C                    -0.097650
     46 C                     0.063594
     47 C                    -0.012631
     48 C                     0.003263
     49 C                    -0.020885
     50 C                    -0.010942
     51 C                     0.011131
     52 C                     0.003832
     53 C                     0.023750
     54 C                    -0.021774
     55 C                     0.018240
     56 C                     0.001927
     57 C                    -0.019067
     58 C                    -0.009216
     59 C                    -0.008553
     60 C                     0.018586
     61 C                    -0.011420
     62 C                    -0.003264
     63 C                     0.009142
     64 C                    -0.007926
     65 C                    -0.012560
     66 C                     0.006080
     67 C                    -0.024224
     68 C                     0.003437
     69 C                    -0.005818
     70 C                     0.034088
     71 C                    -0.016275
     72 C                    -0.026932
     73 C                    -0.026755
     74 C                    -0.015326
     75 C                    -0.029181
     76 C                    -0.012915
     77 C                     0.038007
     78 C                     0.004511
     79 C                     0.010465
     80 C                     0.026366
     81 C                    -0.016127
     82 C                     0.012589
     83 C                    -0.012940
     84 C                    -0.021935
     85 C                     0.013474
     86 C                     0.001270
     87 C                     0.053368
     88 C                    -0.009834
     89 O                    -0.459786
     90 C                    -0.084702
     91 H                     0.136247
     92 H                     0.134831
     93 H                     0.126146
     94 O                    -0.464630
     95 C                     0.566064
     96 C                    -0.237882
     97 H                     0.128394
     98 H                     0.121021
     99 C                    -0.201745
    100 H                     0.103736
    101 H                     0.124339
    102 C                    -0.181320
    103 H                     0.115403
    104 H                     0.110365
    105 C                     0.020347
    106 C                     0.071871
    107 C                    -0.106229
    108 H                     0.093326
    109 C                    -0.082620
    110 H                     0.096300
    111 C                    -0.083105
    112 H                     0.091689
    113 C                    -0.095808
    114 H                     0.093588
    115 C                    -0.099128
    116 H                     0.097473
    117 C                    -0.012903
    118 C                     0.032026
    119 C                    -0.008016
    120 C                     0.006035
    121 C                    -0.025436
    122 C                    -0.002870
    123 C                    -0.021909
    124 C                    -0.013537
    125 C                    -0.006450
    126 C                    -0.007379
    127 C                    -0.095321
    128 C                     0.008715
    129 C                    -0.017216
    130 C                     0.015037
    131 C                    -0.008552
    132 C                    -0.032914
    133 C                    -0.088933
    134 C                     0.021565
    135 C                     0.013104
    136 C                     0.018706
    137 C                    -0.000309
    138 C                     0.002559
    139 C                     0.003494
    140 C                     0.004319
    141 C                     0.046245
    142 C                     0.014553
    143 C                    -0.026171
    144 C                     0.005985
    145 C                    -0.003265
    146 C                    -0.021225
    147 C                    -0.013843
    148 C                     0.021045
    149 C                    -0.041123
    150 C                     0.013014
    151 C                    -0.025979
    152 C                     0.027176
    153 C                     0.015394
    154 C                     0.045947
    155 C                     0.011480
    156 C                     0.019768
    157 C                    -0.008558
    158 C                     0.034546
    159 C                    -0.038550
    160 C                     0.006163
    161 C                    -0.011173
    162 C                     0.004301
    163 C                    -0.002074
    164 C                     0.019993
    165 C                     0.024214
    166 C                    -0.007248
    167 C                    -0.005826
    168 C                     0.010606
    169 C                    -0.006184
    170 C                    -0.026044
    171 C                     0.026838
    172 C                     0.008243
    173 C                    -0.011715
    174 C                     0.010152
    175 C                    -0.001755
    176 C                    -0.011368
  ----------------------------------------
  Sum of atomic charges =     0.000000

                    Cartesian Multipole Moments
 -----------------------------------------------------------------
    Charge (ESU x 10^10)
                 0.0000
    Dipole Moment (Debye)
         X      -0.4069      Y      -2.1395      Z      -2.4450
       Tot       3.2743
    Quadrupole Moments (Debye-Ang)
        XX    -824.0365     XY     -30.8936     YY    -788.9741
        XZ       7.6700     YZ      11.0428     ZZ    -798.3175

 Total job time:  870.79s(wall), 8325.83s(cpu)
        *  Thank you very much for using Q-Chem.  Have a nice day.  *
