 Q-Chem 4.4, Q-Chem, Inc., Pleasanton, CA (2016)
 Q-Chem 4.4.2 for Intel X86 Linux

User input:
--------------------------------------------------------------
$comment
SP
$end

$rem
MEM_STATIC 5000
MEM_TOTAL 20000
JOBTYPE SP
EXCHANGE B3LYP
BASIS 6-31g(d,p)
$end

$molecule
0 1
O           5.777000    -32.363000     12.393000
C           6.730000    -33.327000     12.860000
H           7.600000    -33.348000     12.193000
H           6.441000    -34.380000     12.968000
H           7.124000    -33.100000     13.858000
O           7.228000    -30.544000     12.459000
C           6.098000    -30.944000     12.338000
C           4.876000    -30.017000     12.053000
H           5.207000    -28.985000     12.226000
H           4.133000    -30.328000     12.797000
C           4.361000    -30.391000     10.602000
H           5.208000    -30.289000      9.913000
H           4.100000    -31.450000     10.480000
C           3.069000    -29.593000     10.244000
H           2.234000    -30.041000     10.796000
H           3.200000    -28.595000     10.681000
C           2.769000    -29.545000      8.698000
C           1.998000    -30.706000      8.140000
C           0.593000    -30.602000      8.020000
H           0.130000    -29.641000      8.226000
C          -0.266000    -31.691000      7.684000
H          -1.321000    -31.608000      7.440000
C           0.402000    -32.929000      7.388000
H          -0.200000    -33.743000      6.996000
C           1.808000    -33.083000      7.445000
H           2.281000    -33.963000      7.021000
C           2.547000    -31.983000      7.862000
H           3.625000    -32.109000      7.864000
C           4.521000    -28.289000      3.597000
C           2.199000    -27.670000      3.524000
C           2.749000    -23.122000      3.443000
C           6.902000    -25.924000      7.390000
C           2.244000    -22.767000      6.886000
C           3.168000    -28.579000      3.973000
C           5.641000    -23.503000      7.802000
C           3.965000    -24.928000      2.366000
C           0.901000    -26.544000      7.250000
C           5.980000    -25.840000      8.472000
C           2.517000    -28.173000      8.125000
C           1.580000    -25.967000      8.297000
C           4.079000    -24.932000      8.975000
C           4.631000    -22.662000      7.347000
C           1.768000    -28.138000      5.691000
C           3.862000    -22.146000      5.127000
C           3.803000    -28.852000      7.751000
C           5.119000    -28.100000      7.996000
C           2.524000    -22.363000      5.586000
C           6.875000    -24.577000      4.177000
C           5.242000    -23.181000      3.450000
C           5.189000    -24.372000      2.661000
C           3.769000    -26.325000      2.373000
C           5.972000    -28.129000      6.859000
C           1.540000    -27.810000      7.041000
C           2.458000    -26.557000      2.695000
C           5.425000    -24.603000      8.665000
C           1.320000    -27.427000      4.595000
C           1.819000    -24.566000      8.197000
C           7.164000    -26.680000      5.259000
C           2.773000    -24.306000      2.659000
C           2.614000    -26.836000      8.747000
C           6.054000    -26.589000      3.166000
C           3.083000    -24.063000      8.616000
C           0.497000    -25.742000      6.123000
C           6.144000    -22.816000      5.677000
C           6.532000    -23.639000      6.784000
C           0.651000    -24.361000      6.098000
C           6.895000    -27.101000      6.616000
C           5.080000    -26.918000      8.795000
C           7.345000    -25.307000      5.249000
C           3.982000    -29.128000      6.273000
C           0.896000    -25.167000      3.970000
C           3.864000    -26.278000      9.075000
C           1.306000    -23.768000      7.210000
C           6.547000    -27.358000      4.189000
C           1.869000    -22.981000      4.539000
C           4.823000    -27.150000      2.809000
C           3.986000    -22.618000      3.866000
C           0.661000    -26.202000      4.821000
C           0.858000    -23.982000      4.770000
C           2.944000    -28.832000      5.321000
C           5.254000    -28.691000      5.774000
C           6.332000    -23.281000      4.333000
C           1.835000    -25.332000      2.959000
C           3.302000    -22.928000      7.761000
C           7.128000    -24.872000      6.564000
C           4.927000    -22.276000      6.021000
C           5.588000    -28.376000      4.444000
C           6.199000    -25.207000      3.169000
O           3.758000    -18.099000     -1.474000
C           3.491000    -18.852000     -2.646000
H           3.103000    -19.876000     -2.581000
H           4.427000    -19.040000     -3.186000
H           2.803000    -18.300000     -3.298000
O           4.350000    -16.255000     -2.724000
C           4.153000    -16.809000     -1.656000
C           4.471000    -16.116000     -0.351000
H           5.129000    -15.299000     -0.669000
H           5.000000    -16.785000      0.339000
C           3.284000    -15.534000      0.363000
H           3.555000    -14.873000      1.196000
H           2.898000    -14.823000     -0.378000
C           2.279000    -16.545000      0.791000
H           1.990000    -17.205000     -0.036000
H           2.703000    -17.205000      1.558000
C           1.047000    -15.826000      1.326000
C           0.261000    -15.054000      0.338000
C          -0.481000    -15.875000     -0.534000
H          -0.508000    -16.945000     -0.349000
C          -1.305000    -15.264000     -1.505000
H          -1.988000    -15.908000     -2.052000
C          -1.255000    -13.806000     -1.613000
H          -1.964000    -13.271000     -2.237000
C          -0.376000    -13.081000     -0.814000
H          -0.290000    -11.999000     -0.846000
C           0.428000    -13.727000      0.159000
H           1.111000    -13.191000      0.811000
C          -0.912000    -13.314000      5.762000
C          -2.933000    -14.384000      4.767000
C          -3.253000    -17.668000      8.032000
C           2.870000    -16.684000      6.516000
C          -1.732000    -20.130000      6.190000
C          -1.664000    -13.692000      4.649000
C           1.615000    -19.145000      7.063000
C          -2.723000    -15.275000      8.220000
C          -1.842000    -17.687000      2.953000
C           2.661000    -17.669000      5.521000
C           0.156000    -16.699000      2.232000
C          -0.856000    -18.662000      3.047000
C           1.380000    -19.319000      4.698000
C           0.406000    -19.796000      7.292000
C          -1.884000    -15.333000      3.063000
C          -1.647000    -19.128000      8.363000
C           1.012000    -15.630000      2.823000
C           1.997000    -16.007000      3.925000
C          -2.384000    -19.535000      7.286000
C           0.566000    -15.792000      9.016000
C          -1.399000    -16.908000      9.398000
C          -1.665000    -15.567000      9.060000
C          -2.601000    -14.300000      7.239000
C           2.123000    -15.044000      4.904000
C          -1.283000    -16.493000      2.585000
C          -3.375000    -14.685000      6.145000
C           2.101000    -18.942000      5.785000
C          -3.008000    -15.392000      3.842000
C          -0.923000    -19.653000      4.091000
C           1.871000    -14.799000      7.269000
C          -3.510000    -16.302000      7.754000
C           0.420000    -18.052000      2.792000
C          -0.299000    -13.876000      7.877000
C           0.198000    -19.994000      4.867000
C          -2.943000    -17.769000      3.756000
C           0.584000    -18.201000      8.848000
C           1.689000    -18.148000      8.061000
C          -3.118000    -18.772000      4.710000
C           2.548000    -15.332000      6.213000
C           2.240000    -17.327000      4.229000
C           1.723000    -15.737000      8.251000
C           0.383000    -14.440000      3.466000
C          -3.994000    -16.878000      5.482000
C           1.461000    -18.347000      3.668000
C          -2.085000    -19.746000      4.883000
C           0.837000    -13.880000      7.035000
C          -3.414000    -18.611000      7.079000
C          -1.386000    -13.556000      7.064000
C          -2.190000    -17.942000      8.857000
C          -3.596000    -16.614000      4.191000
C          -3.753000    -18.234000      5.793000
C          -1.039000    -14.297000      3.538000
C           1.107000    -14.082000      4.617000
C          -0.017000    -17.016000      9.382000
C          -3.884000    -15.930000      6.493000
C          -0.317000    -20.252000      6.181000
C           2.338000    -16.914000      7.824000
C          -0.184000    -19.246000      8.354000
C           0.439000    -13.518000      5.746000
C          -0.471000    -14.865000      8.913000
$end

--------------------------------------------------------------

             Standard Nuclear Orientation (Angstroms)
    I     Atom           X                Y                Z
 ----------------------------------------------------------------
    1      O      12.7842502198    -3.0220821781     1.6400890558
    2      C      14.0852803608    -2.8819501994     2.2259880239
    3      H      14.1888459035    -1.8875578697     2.6761969455
    4      H      14.9838317017    -2.9983782795     1.6070825466
    5      H      14.2767995828    -3.5975412054     3.0347023739
    6      O      11.5962914705    -2.5972234011     3.5963014751
    7      C      11.5772700173    -2.9766317412     2.4529605392
    8      C      10.2770819901    -3.3982787931     1.7009214062
    9      H       9.4883934203    -3.5064322256     2.4564259892
   10      H      10.5361614690    -4.3650073464     1.2530154698
   11      C      10.0565162775    -2.3260755697     0.5553940105
   12      H      10.0349728129    -1.3364053919     1.0272232363
   13      H      10.9055323797    -2.2269993083    -0.1329674880
   14      C       8.8318436008    -2.7025291865    -0.3349382361
   15      H       9.1339796078    -3.5291069472    -0.9892440047
   16      H       8.0853002723    -3.1321703122     0.3449261341
   17      C       8.2675338612    -1.4918971574    -1.1706083911
   18      C       8.9309653115    -1.2379668804    -2.4931453944
   19      C       8.3686269638    -1.8012458483    -3.6617913575
   20      H       7.4081177462    -2.3021673738    -3.5791737562
   21      C       9.0007762400    -1.7909885573    -4.9412365813
   22      H       8.5314667500    -2.0794817214    -5.8771694297
   23      C      10.2517947625    -1.0853465217    -5.0004478468
   24      H      10.6977253364    -0.9353742682    -5.9788742602
   25      C      10.8424977379    -0.4609453591    -3.8757282448
   26      H      11.6720720386     0.2271535810    -4.0031304752
   27      C      10.1856466128    -0.5995845326    -2.6594487625
   28      H      10.6342167635    -0.0834109857    -1.8166476654
   29      C       6.2549022304     3.6670092338    -1.2179345474
   30      C       4.9534262930     2.5779612758    -2.9209638864
   31      C       0.9632528387     2.4160328274    -0.6747092297
   32      C       5.8892540099     1.1987572162     3.1892491743
   33      C       1.4369557217    -0.8787278032     0.4002126119
   34      C       6.2043830492     2.7354392959    -2.3068377860
   35      C       3.4106355559    -0.0136113449     3.2771071921
   36      C       2.6843759771     4.1243902523    -0.8142479386
   37      C       4.5587402320    -1.4191738815    -2.0825788630
   38      C       5.8271413868    -0.1907961618     2.8840485328
   39      C       6.7827520342    -1.2550657101    -1.0542005222
   40      C       4.5335228233    -2.0821422592    -0.8784127563
   41      C       4.5523359007    -1.6193056526     1.8713760253
   42      C       2.2072062773    -0.1776772579     2.5994300214
   43      C       5.8456559578     0.5258622334    -2.6152029577
   44      C       0.8855283277     1.3543167157     1.2985922674
   45      C       7.6947172149    -0.2521324405    -0.4083233155
   46      C       7.4853224294     0.0675750320     1.0787294595
   47      C       0.7962019218     0.3490865375     0.2839262722
   48      C       3.7661707674     3.8593774587     2.4461983884
   49      C       1.7898485153     3.5826078944     1.3684308048
   50      C       2.6386913260     4.3783249226     0.5377014302
   51      C       3.8967132254     4.1771555292    -1.5336422824
   52      C       7.4608348846     1.4671636992     1.3272670276
   53      C       5.8503427354    -0.8003980152    -2.1428897280
   54      C       3.7914687722     3.3063518250    -2.5857133417
   55      C       4.5834731576    -0.7531107788     2.9960065922
   56      C       4.7569065400     1.2010336881    -3.1311576184
   57      C       3.3051062881    -2.0336408566    -0.1582999666
   58      C       6.0683390513     3.2721641257     2.2671573482
   59      C       1.8309235335     3.2426337811    -1.4369207677
   60      C       5.7684653940    -1.8994433003    -0.1940481330
   61      C       5.0630242414     4.5790327325     0.5634946534
   62      C       3.3543297067    -1.8640520898     1.2541739996
   63      C       3.3922254291    -0.7060338459    -2.5377969471
   64      C       2.3530461534     2.0117208661     3.1352019740
   65      C       3.5281839192     1.3109032644     3.5609107014
   66      C       2.1764748681    -0.7609342835    -1.8666497834
   67      C       6.7437365368     2.0013280463     2.4081002294
   68      C       6.6189838105    -0.7789861974     1.8336052653
   69      C       4.8723682878     3.2176000302     2.9633374200
   70      C       7.5921418514     1.1578796784    -0.9505825887
   71      C       2.3966236454     1.3072778113    -2.8216776609
   72      C       5.7381346788    -1.6625079272     1.1931755968
   73      C       2.1472671951    -1.4938744683    -0.6504410852
   74      C       6.1982566208     3.9952034777     1.0648227356
   75      C       0.8661440132     1.0277034007    -0.9168006979
   76      C       5.0939344445     4.3767489726    -0.8205779025
   77      C       1.0043234999     2.5693729564     0.7173805683
   78      C       3.5011261980     0.5624082984    -3.0971672619
   79      C       1.5281415866     0.4599838092    -2.0643793132
   80      C       6.7383570737     1.4754400441    -2.0648406232
   81      C       7.4498273496     2.1436026356     0.0819147885
   82      C       2.4622945342     3.3287731884     2.5772208170
   83      C       2.5573383448     2.6512352336    -2.5070092126
   84      C       2.1527903096    -1.1339399607     1.5549236568
   85      C       4.7734200914     1.9156531830     3.4739083374
   86      C       1.5805817099     1.0823706056     2.4789765731
   87      C       6.8984445688     3.4325919153    -0.0371006135
   88      C       3.8513296489     4.4952520202     1.2385761349
   89      O      -4.6555154472     6.6598145998     0.2446700276
   90      C      -4.3773503158     7.6441627111    -0.7379616203
   91      H      -3.5477005821     7.5160108257    -1.4440801752
   92      H      -4.0662865976     8.5760315293    -0.2502118188
   93      H      -5.2727819929     7.8347108273    -1.3421515963
   94      O      -6.4960797868     7.8344980337     0.9834133807
   95      C      -5.7573919055     6.8651983440     1.0172855775
   96      C      -5.9283876307     5.7945104770     2.0702746341
   97      H      -6.5562243665     6.2932316146     2.8177204582
   98      H      -4.9651626722     5.5088533034     2.5108420622
   99      C      -6.6273877898     4.5501012751     1.6008776636
  100      H      -6.9144322280     3.8749159401     2.4169544087
  101      H      -7.5987156684     4.9428710034     1.2755284777
  102      C      -5.8999160186     3.8134570391     0.5315460539
  103      H      -5.6176875119     4.4748499897    -0.2966788159
  104      H      -4.9560414258     3.4101602030     0.9189959411
  105      C      -6.7870166243     2.6902451879     0.0095712915
  106      C      -8.0059045513     3.1059681451    -0.7194078880
  107      C      -7.7297431039     3.6122552091    -2.0048639408
  108      H      -6.7133893459     3.5526920924    -2.3834551105
  109      C      -8.8091974565     4.0126440044    -2.8231579669
  110      H      -8.5858824773     4.2423603733    -3.8613269368
  111      C     -10.1501372812     3.9735941100    -2.2398197353
  112      H     -11.0288473735     4.1315882324    -2.8572243279
  113      C     -10.3167910189     3.6057882484    -0.9080493422
  114      H     -11.2834730655     3.5574482634    -0.4157759764
  115      C      -9.2111247130     3.1980612025    -0.1195560474
  116      H      -9.3071203076     2.8878811070     0.9165241397
  117      C      -8.4506332953    -2.3883760734     1.1346964651
  118      C      -8.3775085699    -2.3457315565    -1.3577321135
  119      C      -4.5850308358    -5.0054913570    -1.6578511561
  120      C      -4.0062651969    -0.9170685423     3.2111805980
  121      C      -2.3844607154    -2.4126549765    -2.1078952090
  122      C      -8.6473110354    -1.7231185719    -0.0760501323
  123      C      -2.0039393665    -1.7187450045     1.4004456315
  124      C      -6.5462868845    -5.1804240593    -0.1862648484
  125      C      -5.5370139481     0.1120313584    -2.4898441919
  126      C      -3.4501001550    -0.0358397397     2.2530327787
  127      C      -6.0175559692     1.5727538433    -0.7225416745
  128      C      -4.3189994534     0.5959865943    -2.0273671433
  129      C      -2.5728292613     0.2646629729     0.2083117956
  130      C      -1.7221642832    -2.4150769057     0.2284184621
  131      C      -7.6612692666    -0.2578860873    -1.5380666836
  132      C      -2.6684247160    -4.3870801810    -0.7834453012
  133      C      -6.5618644797     1.3395612817     0.6464460809
  134      C      -5.6092621142     0.8743559547     1.7432098371
  135      C      -2.8241157631    -3.7432579899    -1.9792714943
  136      C      -4.8384672571    -4.2841802248     2.6419015380
  137      C      -4.3250826576    -5.4182912171     0.7176267369
  138      C      -5.7209526389    -5.3908114047     0.9022150770
  139      C      -7.6671245035    -4.3679165378    -0.0793791186
  140      C      -6.1755076204    -0.0292975192     2.6175452566
  141      C      -6.5523059112     0.5676527197    -1.6928922456
  142      C      -7.8589788706    -3.7288640755    -1.3036915184
  143      C      -2.3920242862    -0.3921827474     1.3827913658
  144      C      -7.7396044570    -1.4607355582    -2.1866919592
  145      C      -3.1491601093    -0.2443282280    -2.0704125649
  146      C      -5.8218231888    -2.2482036210     3.4349295201
  147      C      -5.9842577029    -5.0291284528    -1.4322531463
  148      C      -4.5499473739     1.3508920027    -0.8265000056
  149      C      -7.1644070853    -3.8962891342     2.2467478748
  150      C      -2.2774738357    -0.3638171547    -0.9745186663
  151      C      -5.5806683318    -1.0986309559    -3.1192288562
  152      C      -2.6876458969    -3.8686838907     1.6254571112
  153      C      -2.6119417280    -2.6670591150     2.2528085098
  154      C      -4.4582188375    -1.9092314756    -3.2918090698
  155      C      -5.4197752116    -0.9476765556     3.3675442378
  156      C      -4.2490208426     0.8636766690     1.5346561606
  157      C      -4.7424127456    -3.0777413160     3.3217380552
  158      C      -7.6611171976     0.3529492604     0.8548451733
  159      C      -6.2386681780    -3.2004579501    -2.9551633546
  160      C      -3.7171779226     1.1012951327     0.2608262764
  161      C      -3.2047155095    -1.4726943699    -2.7590250968
  162      C      -7.0424778115    -2.6257696213     2.8553441446
  163      C      -4.0406100906    -4.1431762051    -2.5429486824
  164      C      -8.0167123292    -3.7261726526     1.1560718671
  165      C      -3.7786783154    -5.2023218393    -0.5639026317
  166      C      -6.7130644065    -1.9102391278    -3.0263294201
  167      C      -4.8443547307    -3.2143323809    -3.1770541181
  168      C      -8.2110590778    -0.3909113961    -0.2369204847
  169      C      -7.4443856876    -0.3565858531     2.0493025293
  170      C      -3.8038564713    -4.7460414449     1.8122716595
  171      C      -6.7873584307    -4.1380505982    -2.0875320777
  172      C      -1.8383543132    -1.7295972582    -0.9887929122
  173      C      -3.5995384541    -2.2885574488     3.1916989162
  174      C      -2.1111132175    -3.6819967910     0.3770008659
  175      C      -7.8516516549    -1.7202803549     2.1652022173
  176      C      -6.0310734528    -4.7789263681     2.1144323772
 ----------------------------------------------------------------

    9   -5804.1985820683      9.60E-06 Convergence criterion met
 Total energy in the final basis set = -5804.1985820683

                    Orbital Energies (a.u.)
 --------------------------------------------------------------

 Alpha MOs
 -- Occupied --
-19.204 -19.180 -19.147 -19.141 -10.326 -10.321 -10.253 -10.248
-10.246 -10.241 -10.240 -10.238 -10.237 -10.237 -10.234 -10.229
-10.228 -10.228 -10.226 -10.226 -10.222 -10.222 -10.222 -10.221
-10.221 -10.221 -10.220 -10.220 -10.220 -10.220 -10.219 -10.219
-10.218 -10.218 -10.218 -10.218 -10.217 -10.217 -10.216 -10.216
-10.216 -10.216 -10.216 -10.215 -10.215 -10.215 -10.215 -10.215
-10.214 -10.214 -10.214 -10.214 -10.213 -10.213 -10.213 -10.213
-10.213 -10.213 -10.213 -10.213 -10.213 -10.213 -10.213 -10.212
-10.212 -10.212 -10.212 -10.212 -10.212 -10.212 -10.212 -10.211
-10.211 -10.211 -10.211 -10.211 -10.211 -10.211 -10.211 -10.211
-10.211 -10.210 -10.210 -10.210 -10.210 -10.210 -10.210 -10.210
-10.210 -10.210 -10.210 -10.210 -10.210 -10.210 -10.209 -10.209
-10.209 -10.209 -10.209 -10.208 -10.208 -10.208 -10.208 -10.208
-10.208 -10.208 -10.208 -10.208 -10.208 -10.208 -10.208 -10.208
-10.207 -10.207 -10.207 -10.207 -10.207 -10.207 -10.207 -10.206
-10.206 -10.206 -10.206 -10.206 -10.206 -10.205 -10.205 -10.205
-10.205 -10.205 -10.205 -10.205 -10.205 -10.204 -10.204 -10.204
-10.204 -10.203 -10.203 -10.203 -10.203 -10.202 -10.202 -10.202
-10.198 -10.198 -10.197 -10.194  -1.105  -1.076  -1.020  -1.007
 -0.986  -0.984  -0.969  -0.967  -0.965  -0.964  -0.962  -0.962
 -0.937  -0.934  -0.930  -0.929  -0.928  -0.926  -0.925  -0.925
 -0.922  -0.921  -0.903  -0.898  -0.892  -0.892  -0.887  -0.886
 -0.879  -0.874  -0.855  -0.852  -0.842  -0.841  -0.838  -0.837
 -0.837  -0.836  -0.827  -0.821  -0.814  -0.804  -0.800  -0.798
 -0.796  -0.795  -0.794  -0.794  -0.793  -0.793  -0.784  -0.783
 -0.771  -0.770  -0.769  -0.768  -0.766  -0.766  -0.763  -0.763
 -0.754  -0.751  -0.746  -0.739  -0.735  -0.729  -0.717  -0.716
 -0.715  -0.714  -0.714  -0.713  -0.710  -0.709  -0.709  -0.709
 -0.708  -0.706  -0.706  -0.705  -0.704  -0.697  -0.675  -0.672
 -0.658  -0.658  -0.657  -0.656  -0.649  -0.649  -0.634  -0.633
 -0.628  -0.628  -0.624  -0.624  -0.622  -0.621  -0.619  -0.616
 -0.615  -0.615  -0.613  -0.612  -0.611  -0.610  -0.610  -0.608
 -0.607  -0.606  -0.604  -0.604  -0.573  -0.570  -0.568  -0.563
 -0.563  -0.561  -0.560  -0.558  -0.556  -0.555  -0.554  -0.554
 -0.538  -0.538  -0.536  -0.533  -0.528  -0.527  -0.525  -0.522
 -0.521  -0.521  -0.519  -0.519  -0.515  -0.514  -0.514  -0.513
 -0.508  -0.507  -0.506  -0.494  -0.493  -0.491  -0.490  -0.488
 -0.487  -0.485  -0.480  -0.479  -0.478  -0.477  -0.476  -0.473
 -0.473  -0.472  -0.471  -0.469  -0.468  -0.467  -0.467  -0.466
 -0.466  -0.466  -0.464  -0.463  -0.462  -0.462  -0.460  -0.456
 -0.456  -0.456  -0.455  -0.454  -0.453  -0.451  -0.444  -0.444
 -0.442  -0.441  -0.440  -0.438  -0.435  -0.435  -0.435  -0.433
 -0.432  -0.431  -0.429  -0.428  -0.428  -0.427  -0.426  -0.424
 -0.424  -0.423  -0.421  -0.421  -0.420  -0.419  -0.419  -0.418
 -0.417  -0.417  -0.416  -0.416  -0.415  -0.415  -0.414  -0.413
 -0.413  -0.412  -0.409  -0.408  -0.405  -0.402  -0.401  -0.399
 -0.396  -0.395  -0.389  -0.388  -0.388  -0.387  -0.386  -0.385
 -0.382  -0.376  -0.375  -0.374  -0.371  -0.369  -0.368  -0.367
 -0.366  -0.364  -0.364  -0.363  -0.363  -0.361  -0.360  -0.358
 -0.356  -0.356  -0.355  -0.354  -0.354  -0.352  -0.352  -0.352
 -0.350  -0.349  -0.348  -0.347  -0.346  -0.345  -0.345  -0.343
 -0.343  -0.341  -0.340  -0.340  -0.338  -0.336  -0.335  -0.334
 -0.333  -0.331  -0.329  -0.329  -0.327  -0.326  -0.326  -0.324
 -0.315  -0.310  -0.304  -0.290  -0.288  -0.287  -0.274  -0.271
 -0.271  -0.269  -0.267  -0.266  -0.266  -0.264  -0.264  -0.262
 -0.261  -0.260  -0.258  -0.258  -0.258  -0.256  -0.254  -0.253
 -0.251  -0.251  -0.247  -0.244  -0.222  -0.220  -0.211  -0.209
 -0.207  -0.206  -0.204  -0.203  -0.200  -0.196

          Ground-State Mulliken Net Atomic Charges

     Atom                 Charge (a.u.)
  ----------------------------------------
      1 O                    -0.502354
      2 C                    -0.076581
      3 H                     0.118741
      4 H                     0.121516
      5 H                     0.114984
      6 O                    -0.428063
      7 C                     0.569919
      8 C                    -0.241965
      9 H                     0.143354
     10 H                     0.132206
     11 C                    -0.199143
     12 H                     0.120743
     13 H                     0.133010
     14 C                    -0.194906
     15 H                     0.123253
     16 H                     0.112817
     17 C                     0.009665
     18 C                     0.116456
     19 C                    -0.126935
     20 H                     0.091608
     21 C                    -0.085274
     22 H                     0.103735
     23 C                    -0.100132
     24 H                     0.087108
     25 C                    -0.072557
     26 H                     0.101741
     27 C                    -0.126514
     28 H                     0.088971
     29 C                    -0.003917
     30 C                    -0.002869
     31 C                    -0.023833
     32 C                     0.001307
     33 C                     0.014190
     34 C                    -0.017888
     35 C                     0.018746
     36 C                     0.028886
     37 C                    -0.021837
     38 C                    -0.006010
     39 C                    -0.073947
     40 C                    -0.001804
     41 C                     0.004056
     42 C                    -0.004979
     43 C                     0.025026
     44 C                    -0.004672
     45 C                    -0.052836
     46 C                     0.003737
     47 C                     0.010712
     48 C                     0.020072
     49 C                    -0.005978
     50 C                    -0.029257
     51 C                     0.005181
     52 C                     0.026879
     53 C                     0.001825
     54 C                    -0.014584
     55 C                    -0.003895
     56 C                     0.000977
     57 C                     0.005180
     58 C                    -0.006488
     59 C                    -0.016500
     60 C                     0.026325
     61 C                     0.012121
     62 C                    -0.016080
     63 C                     0.020360
     64 C                    -0.023528
     65 C                    -0.004010
     66 C                    -0.000873
     67 C                    -0.033210
     68 C                    -0.030576
     69 C                     0.004393
     70 C                     0.013136
     71 C                    -0.004778
     72 C                     0.025142
     73 C                    -0.006694
     74 C                    -0.018035
     75 C                     0.010348
     76 C                    -0.006481
     77 C                     0.020366
     78 C                    -0.005198
     79 C                    -0.027818
     80 C                     0.003758
     81 C                     0.005747
     82 C                    -0.028505
     83 C                     0.016476
     84 C                    -0.027035
     85 C                     0.023007
     86 C                     0.013135
     87 C                     0.003670
     88 C                     0.020421
     89 O                    -0.450059
     90 C                    -0.095340
     91 H                     0.124331
     92 H                     0.124655
     93 H                     0.129716
     94 O                    -0.469908
     95 C                     0.606573
     96 C                    -0.248516
     97 H                     0.131949
     98 H                     0.119808
     99 C                    -0.200527
    100 H                     0.105894
    101 H                     0.120383
    102 C                    -0.161544
    103 H                     0.115866
    104 H                     0.108701
    105 C                     0.001849
    106 C                     0.116860
    107 C                    -0.095008
    108 H                     0.098668
    109 C                    -0.103415
    110 H                     0.097959
    111 C                    -0.087735
    112 H                     0.095709
    113 C                    -0.093165
    114 H                     0.094158
    115 C                    -0.104659
    116 H                     0.097440
    117 C                     0.007153
    118 C                    -0.031746
    119 C                     0.013327
    120 C                    -0.032788
    121 C                    -0.011613
    122 C                    -0.008359
    123 C                    -0.002484
    124 C                     0.005902
    125 C                     0.031143
    126 C                    -0.001608
    127 C                    -0.114486
    128 C                    -0.040803
    129 C                     0.000605
    130 C                     0.021753
    131 C                    -0.006268
    132 C                    -0.018946
    133 C                    -0.098307
    134 C                     0.043414
    135 C                     0.012632
    136 C                     0.015093
    137 C                     0.006523
    138 C                    -0.006755
    139 C                     0.016162
    140 C                     0.026184
    141 C                     0.076029
    142 C                    -0.019975
    143 C                     0.006119
    144 C                     0.026298
    145 C                    -0.004923
    146 C                     0.012229
    147 C                     0.002543
    148 C                     0.030724
    149 C                    -0.022304
    150 C                     0.006002
    151 C                    -0.002270
    152 C                     0.005368
    153 C                     0.011759
    154 C                     0.002973
    155 C                    -0.012843
    156 C                    -0.028304
    157 C                     0.032205
    158 C                     0.019436
    159 C                     0.001127
    160 C                     0.010217
    161 C                    -0.013166
    162 C                     0.007863
    163 C                     0.001081
    164 C                    -0.016260
    165 C                     0.004296
    166 C                    -0.017601
    167 C                     0.002883
    168 C                    -0.005016
    169 C                    -0.029311
    170 C                    -0.015200
    171 C                    -0.001457
    172 C                    -0.016223
    173 C                    -0.035015
    174 C                    -0.016151
    175 C                     0.008841
    176 C                    -0.014817
  ----------------------------------------
  Sum of atomic charges =     0.000000

                    Cartesian Multipole Moments
 -----------------------------------------------------------------
    Charge (ESU x 10^10)
                 0.0000
    Dipole Moment (Debye)
         X       2.3247      Y      -0.0154      Z      -3.7402
       Tot       4.4038
    Quadrupole Moments (Debye-Ang)
        XX    -761.3666     XY     -16.8039     YY    -814.6359
        XZ     -18.7785     YZ      -5.4672     ZZ    -806.0358

 Total job time:  857.54s(wall), 8180.35s(cpu)
        *  Thank you very much for using Q-Chem.  Have a nice day.  *
