 Q-Chem 4.4, Q-Chem, Inc., Pleasanton, CA (2016)
 Q-Chem 4.4.2 for Intel X86 Linux

User input:
--------------------------------------------------------------
$comment
SP
$end

$rem
MEM_STATIC 5000
MEM_TOTAL 20000
JOBTYPE SP
EXCHANGE B3LYP
BASIS 6-31g(d,p)
$end

$molecule
0 1
O         -16.693000    -12.994000     -1.204000
C         -17.914000    -12.930000     -1.779000
H         -18.122000    -13.796000     -2.421000
H         -18.078000    -11.928000     -2.194000
H         -18.646000    -13.073000     -0.975000
O         -16.939000    -10.997000     -0.039000
C         -16.268000    -11.937000     -0.427000
C         -14.834000    -12.229000     -0.074000
H         -14.729000    -13.316000      0.027000
H         -14.866000    -11.756000      0.916000
C         -13.916000    -11.585000     -1.090000
H         -13.850000    -12.271000     -1.944000
H         -14.293000    -10.685000     -1.591000
C         -12.526000    -11.265000     -0.532000
H         -12.161000    -10.338000     -0.990000
H         -12.572000    -11.161000      0.559000
C         -11.434000    -12.301000     -0.874000
C         -11.520000    -13.607000     -0.165000
C         -10.994000    -13.725000      1.112000
H         -10.494000    -12.860000      1.538000
C         -11.114000    -14.873000      1.869000
H         -10.596000    -14.900000      2.823000
C         -11.712000    -16.068000      1.306000
H         -11.714000    -17.020000      1.828000
C         -12.279000    -15.922000      0.020000
H         -12.757000    -16.807000     -0.390000
C         -12.355000    -14.639000     -0.619000
H         -12.773000    -14.585000     -1.620000
C          -5.996000    -13.244000     -1.459000
C          -7.064000    -14.833000     -3.009000
C          -5.887000    -12.821000     -6.798000
C          -7.697000     -8.557000     -2.471000
C          -8.938000    -11.251000     -7.300000
C          -7.063000    -14.098000     -1.780000
C          -8.239000     -8.394000     -5.221000
C          -4.591000    -13.149000     -4.747000
C         -10.552000    -13.379000     -4.323000
C          -9.011000     -8.722000     -2.903000
C         -10.790000    -12.347000     -2.302000
C         -11.052000    -12.176000     -4.650000
C         -10.320000     -9.458000     -4.531000
C          -8.173000     -9.075000     -6.436000
C          -9.193000    -14.305000     -2.552000
C          -6.607000    -10.729000     -7.277000
C          -9.971000    -11.831000     -1.179000
C          -9.469000    -10.397000     -1.196000
C          -7.641000    -11.613000     -7.652000
C          -4.734000     -9.783000     -3.848000
C          -4.706000    -10.935000     -5.735000
C          -4.246000    -11.759000     -4.728000
C          -4.954000    -13.794000     -3.596000
C          -8.132000    -10.344000     -0.840000
C         -10.310000    -13.574000     -2.994000
C          -5.979000    -14.671000     -3.875000
C          -9.285000     -8.596000     -4.280000
C          -8.382000    -14.952000     -3.476000
C         -10.607000    -11.534000     -5.848000
C          -5.919000     -9.717000     -1.741000
C          -5.405000    -13.617000     -5.775000
C         -11.111000    -11.468000     -3.446000
C          -4.669000    -11.695000     -2.383000
C         -10.211000    -10.176000     -5.772000
C          -9.748000    -14.144000     -5.212000
C          -6.076000     -8.967000     -5.704000
C          -6.901000     -8.294000     -4.790000
C          -9.392000    -13.535000     -6.460000
C          -7.251000     -9.392000     -1.479000
C          -9.850000     -9.607000     -2.329000
C          -5.584000     -9.074000     -2.959000
C          -8.723000    -12.615000     -0.885000
C          -7.592000    -14.684000     -5.706000
C         -10.736000    -10.082000     -3.361000
C          -9.839000    -12.194000     -6.759000
C          -5.484000    -11.043000     -1.476000
C          -7.165000    -12.955000     -7.348000
C          -4.968000    -13.039000     -2.393000
C          -5.532000    -11.456000     -6.765000
C          -8.624000    -14.850000     -4.801000
C          -8.077000    -13.906000     -6.750000
C          -8.375000    -13.788000     -1.535000
C          -7.633000    -11.676000     -0.684000
C          -4.934000     -9.646000     -5.188000
C          -6.251000    -14.638000     -5.256000
C          -9.207000     -9.984000     -6.703000
C          -6.620000     -8.358000     -3.397000
C          -6.864000     -9.444000     -6.771000
C          -6.320000    -11.983000     -0.918000
C          -4.282000    -11.031000     -3.584000
O          -8.207000    -28.362000     -4.106000
C          -7.765000    -29.647000     -3.532000
H          -8.226000    -30.504000     -4.039000
H          -8.042000    -29.662000     -2.471000
H          -6.707000    -29.919000     -3.632000
O         -10.188000    -28.224000     -3.030000
C          -9.361000    -27.766000     -3.761000
C          -9.424000    -26.420000     -4.490000
H         -10.138000    -25.810000     -3.924000
H          -9.959000    -26.572000     -5.436000
C          -8.082000    -25.749000     -4.635000
H          -7.675000    -25.672000     -3.619000
H          -7.441000    -26.288000     -5.344000
C          -8.279000    -24.332000     -5.303000
H          -7.277000    -23.960000     -5.551000
H          -8.900000    -24.357000     -6.207000
C          -8.817000    -23.181000     -4.347000
C          -8.135000    -23.152000     -3.019000
C          -8.653000    -23.792000     -1.909000
H          -9.589000    -24.328000     -2.033000
C          -8.157000    -23.544000     -0.622000
H          -8.560000    -24.077000      0.235000
C          -7.072000    -22.694000     -0.436000
H          -6.612000    -22.418000      0.508000
C          -6.453000    -22.072000     -1.547000
H          -5.629000    -21.388000     -1.365000
C          -7.007000    -22.269000     -2.855000
H          -6.510000    -21.790000     -3.694000
C         -13.555000    -21.120000     -2.486000
C         -12.039000    -19.186000     -2.465000
C         -13.928000    -16.873000     -5.961000
C         -13.570000    -23.166000     -7.084000
C         -11.448000    -17.971000     -8.313000
C         -12.252000    -20.584000     -2.276000
C         -13.116000    -21.080000     -8.964000
C         -14.860000    -18.153000     -4.160000
C          -9.234000    -19.480000     -5.266000
C         -12.323000    -22.868000     -7.632000
C          -9.234000    -21.887000     -4.926000
C          -9.197000    -20.040000     -6.513000
C         -10.789000    -21.411000     -8.366000
C         -12.922000    -19.748000     -9.167000
C         -10.264000    -20.277000     -3.233000
C         -13.923000    -17.905000     -7.979000
C         -10.315000    -22.913000     -4.498000
C         -11.264000    -23.414000     -5.501000
C         -12.639000    -17.366000     -7.785000
C         -16.053000    -20.801000     -6.173000
C         -15.683000    -18.526000     -6.369000
C         -15.711000    -18.840000     -5.007000
C         -14.352000    -18.891000     -3.055000
C         -12.565000    -23.532000     -4.924000
C          -9.386000    -20.492000     -4.313000
C         -13.137000    -18.333000     -2.820000
C         -12.091000    -21.923000     -8.520000
C         -10.811000    -19.002000     -3.031000
C          -9.810000    -19.361000     -7.641000
C         -14.964000    -22.849000     -5.262000
C         -14.001000    -17.142000     -4.559000
C          -9.285000    -21.500000     -6.414000
C         -15.406000    -20.903000     -3.831000
C         -10.582000    -20.058000     -8.588000
C          -9.900000    -18.279000     -5.137000
C         -14.984000    -20.012000     -8.178000
C         -14.377000    -21.243000     -8.336000
C         -10.436000    -17.562000     -6.171000
C         -13.749000    -23.471000     -5.730000
C         -11.150000    -23.019000     -6.852000
C         -15.506000    -22.129000     -6.357000
C         -11.277000    -22.504000     -3.384000
C         -11.663000    -17.050000     -4.296000
C         -10.195000    -22.068000     -7.331000
C         -10.372000    -18.094000     -7.466000
C         -14.903000    -22.244000     -3.985000
C         -12.657000    -16.764000     -6.507000
C         -14.592000    -20.227000     -2.925000
C         -14.698000    -17.648000     -6.786000
C         -10.597000    -17.901000     -3.962000
C         -11.545000    -16.888000     -5.652000
C         -11.088000    -21.258000     -2.737000
C         -12.579000    -22.964000     -3.647000
C         -15.837000    -19.762000     -7.063000
C         -12.900000    -17.263000     -3.732000
C         -11.602000    -19.219000     -8.930000
C         -14.622000    -22.299000     -7.459000
C         -14.057000    -19.055000     -8.671000
C         -13.734000    -22.310000     -3.214000
C         -15.936000    -20.212000     -4.910000
$end

--------------------------------------------------------------

             Standard Nuclear Orientation (Angstroms)
    I     Atom           X                Y                Z
 ----------------------------------------------------------------
    1      O      -2.2700397788     7.3213350582    -1.9857547787
    2      C      -1.9595856855     8.4573789096    -1.3234975601
    3      H      -0.9979378308     8.3881357388    -0.7983092256
    4      H      -2.8319358469     8.8098561144    -0.7596801996
    5      H      -1.7381188382     9.2133734585    -2.0864613060
    6      O      -4.2697158305     8.1498829180    -2.8346093788
    7      C      -3.4853667455     7.2398134642    -2.6322357093
    8      C      -3.6025441846     5.8213666324    -3.1226508735
    9      H      -2.5958805121     5.4736520530    -3.3844099646
   10      H      -4.1690853479     6.0654211314    -4.0305724075
   11      C      -4.3260159362     4.9821767037    -2.0920855490
   12      H      -3.5796030896     4.6689251561    -1.3511339106
   13      H      -5.0371588089     5.5075856886    -1.4429698327
   14      C      -5.0453923017     3.7717322732    -2.6947346387
   15      H      -5.9714599379     3.5909158425    -2.1361452083
   16      H      -5.2659822700     3.9525591760    -3.7539110627
   17      C      -4.2785954135     2.4368962847    -2.5808952080
   18      C      -3.0876800175     2.2843685391    -3.4607638382
   19      C      -3.2590409699     1.8791205944    -4.7751985179
   20      H      -4.2659097532     1.6438237662    -5.1076916095
   21      C      -2.2173920497     1.8016659323    -5.6775960480
   22      H      -2.4351631767     1.3925236118    -6.6596079104
   23      C      -0.8524591994     2.0397177338    -5.2499423866
   24      H      -0.0000066340     1.8704196189    -5.9006764122
   25      C      -0.6967702405     2.4902720057    -3.9197684145
   26      H       0.3219390956     2.7012285291    -3.6074582581
   27      C      -1.8339248978     2.8010883297    -3.1009531129
   28      H      -1.6611873063     3.1151553977    -2.0756899266
   29      C      -4.6481463882    -3.1005028122    -2.5179562038
   30      C      -2.6686468857    -2.6024580743    -1.1389789892
   31      C      -4.4357332443    -3.6532130835     2.8060576028
   32      C      -8.6098405371    -0.4540859731    -0.7327471446
   33      C      -5.1285420316    -0.3858128983     3.7385901836
   34      C      -3.5241302377    -2.3039456680    -2.2478998961
   35      C      -8.2995399087    -0.1737337990     2.0435722135
   36      C      -4.6895863395    -4.7727647698     0.6436599456
   37      C      -3.0434673372     0.9766101274     0.6093449043
   38      C      -8.0735280994     0.7324234184    -0.2377628692
   39      C      -4.2210852630     1.6573622403    -1.2225670973
   40      C      -4.0364632237     1.7102386697     1.1383877489
   41      C      -6.8448579537     1.6567197626     1.3564789384
   42      C      -7.5142521835    -0.5228068545     3.1416674692
   43      C      -2.7042097510    -0.3736864069    -1.3661048065
   44      C      -6.2104107833    -2.5127120649     3.6270826079
   45      C      -5.0558169218     1.1028647484    -2.3152251359
   46      C      -6.5565347405     0.9545501292    -2.1294892959
   47      C      -5.0591957650    -1.7606602347     3.9438775357
   48      C      -7.9985506962    -3.7478376972     0.2450556529
   49      C      -6.6697859072    -4.2402565694     1.9422783224
   50      C      -6.1134812703    -4.7760647143     0.7985739100
   51      C      -4.1189426888    -4.4562791435    -0.5591690831
   52      C      -6.9816863279    -0.2884137824    -2.5669831154
   53      C      -3.0767663255     0.8329488084    -0.7475200863
   54      C      -2.9883015262    -3.7014318735    -0.3367929138
   55      C      -7.9601688568     0.8857983928     1.1589141870
   56      C      -2.1713267278    -1.4048118198    -0.6026114756
   57      C      -4.6188446336     1.3089895037     2.3814581411
   58      C      -8.0234584032    -2.3712090173    -1.7429843577
   59      C      -3.9137285332    -4.2020303673     1.6490011346
   60      C      -4.8481076204     2.0577938128     0.0545059307
   61      C      -6.3539856060    -4.1118465443    -1.4780511990
   62      C      -6.0315072087     1.2546957180     2.4719713110
   63      C      -2.3996569970    -0.0720194192     1.3219782742
   64      C      -8.2259949553    -2.4486481374     2.2875863373
   65      C      -8.7791934172    -1.3988815645     1.5386460165
   66      C      -2.9222245830    -0.4001815285     2.6159464917
   67      C      -8.0376797176    -0.9804998893    -1.8622272841
   68      C      -7.0844760423     1.3930782833    -0.8717448703
   69      C      -8.5771378698    -2.6679772991    -0.4723287651
   70      C      -4.6468496624    -0.2580391127    -2.8043902016
   71      C      -2.3547689594    -2.3335068475     1.5820391815
   72      C      -6.2835735058     2.0313249975     0.1415868912
   73      C      -4.0643886253     0.3176793058     3.1332743597
   74      C      -6.8886272590    -3.0774180056    -2.2237682373
   75      C      -3.9238577616    -2.5062678139     3.4194416903
   76      C      -4.9867902464    -4.1412156274    -1.6385233333
   77      C      -5.8397673367    -3.6706428645     2.9428913345
   78      C      -2.0491145642    -1.2826946421     0.7370693006
   79      C      -2.8561869845    -1.7881922638     2.7574782352
   80      C      -3.5268289520    -0.9378463221    -2.3538918484
   81      C      -5.8437491552    -1.0690557030    -2.9454777425
   82      C      -7.9185695707    -3.6595809637     1.6015890172
   83      C      -2.7855564351    -3.5723536581     1.0504587729
   84      C      -6.3520737193     0.2344131286     3.3482712311
   85      C      -8.9558204437    -1.5427446923     0.1345048933
   86      C      -7.4432060902    -1.9091599781     3.3283342024
   87      C      -5.8455128917    -2.4342856875    -2.8499896344
   88      C      -6.9427871409    -4.4521634145    -0.2248300772
   89      O      10.7520583556    -4.8041354603    -1.9012037028
   90      C      11.8083550305    -5.4757580247    -2.6817326681
   91      H      12.8076758237    -5.2845613520    -2.2708546026
   92      H      11.7629957198    -5.1028788743    -3.7120620679
   93      H      11.8198878044    -6.5725803166    -2.6957274964
   94      O      10.9798330947    -2.7469979481    -2.8053524318
   95      C      10.4232081077    -3.5129493936    -2.0762838430
   96      C       9.2331644666    -3.2090478598    -1.1605513548
   97      H       8.7551426961    -2.3170839014    -1.5826265660
   98      H       9.6262434362    -2.8249139846    -0.2107223757
   99      C       8.2733371376    -4.3623061728    -1.0157868494
  100      H       7.9755838018    -4.6332816500    -2.0364480281
  101      H       8.7184920947    -5.1816256037    -0.4373097675
  102      C       7.0408501713    -3.9059051979    -0.1408034051
  103      H       6.4651088590    -4.8117570360     0.0868946158
  104      H       7.3280663277    -3.4043828305     0.7916472341
  105      C       5.9520074540    -3.0163269236    -0.8832675664
  106      C       5.5945344589    -3.5323910930    -2.2380516197
  107      C       6.2037209663    -3.0691485513    -3.3888435847
  108      H       6.9657751818    -2.3039177164    -3.2772051420
  109      C       5.6867588212    -3.3579818887    -4.6589673754
  110      H       6.1952221163    -3.0065386882    -5.5527792988
  111      C       4.5784648002    -4.1867142406    -4.7975604919
  112      H       4.0850064997    -4.4693072190    -5.7225210934
  113      C       3.9616877679    -4.7519064035    -3.6554090521
  114      H       3.0780875722    -5.3680271695    -3.7954158228
  115      C       4.4465312577    -4.3971398244    -2.3532353061
  116      H       3.9645174451    -4.8503193420    -1.4914569069
  117      C       4.9191073735     2.2393602333    -2.0959323729
  118      C       2.6820288399     1.2331288992    -1.9475034770
  119      C       1.3494921856     3.2461871622     1.9655833473
  120      C       7.4459205293     1.2995774670     2.1537698082
  121      C       2.0753386179     0.3494468919     3.9580568761
  122      C       4.0557539156     1.1283061966    -2.3181591362
  123      C       5.5557730693     1.1606069460     4.2750764277
  124      C       2.5928072064     4.0292286299     0.0704213967
  125      C       2.6088602240    -1.8338887829     0.5799677673
  126      C       6.9169345814     0.1087598305     2.6499998191
  127      C       4.8814728069    -2.3672501613    -0.0982701612
  128      C       3.2888898049    -2.1296546294     1.7289065529
  129      C       5.2252744504    -1.1048547706     3.4747340799
  130      C       4.2518908012     1.2667743290     4.6514917804
  131      C       3.3840857726    -0.8183488972    -1.4686664336
  132      C       2.5844531468     2.7908942175     3.8108347552
  133      C       6.0836636177    -1.5209968088    -0.5912341739
  134      C       6.9216528190    -0.8250374423     0.3941721680
  135      C       1.7248575594     1.6972684158     3.6061617675
  136      C       5.6772624219     4.3506123950     1.7645791517
  137      C       3.4224758879     4.5100358106     2.2559678579
  138      C       3.5664434765     4.6025704553     0.8684756334
  139      C       3.0426974983     3.4773838000    -1.1611625464
  140      C       7.2874768890     0.4634255875    -0.1012970749
  141      C       3.5039869838    -1.8282267164    -0.4943566831
  142      C       2.1769658634     2.4591214938    -1.3987853819
  143      C       6.0585339760     0.0166384300     3.6450149185
  144      C       2.2695101802     0.0319147846    -1.4483952660
  145      C       2.9245017291    -1.4926319481     2.9821493202
  146      C       7.2659837779     2.9082068095     0.4974656683
  147      C       1.4565079985     3.3969289304     0.5481495622
  148      C       4.7021448689    -2.3791277807     1.4295434441
  149      C       5.3316882706     3.9413777920    -0.6075680919
  150      C       3.9002850822    -1.0082395783     3.8719880021
  151      C       1.6037230875    -0.8935847206     0.6701099176
  152      C       4.8966799888     3.2983675986     3.7817006041
  153      C       5.9487761970     2.4050217664     3.7200500351
  154      C       1.1723628509    -0.3123630524     1.8305627253
  155      C       7.6196022567     1.5393304656     0.7860216014
  156      C       6.6771929433    -0.9804264577     1.7763138478
  157      C       6.8406067839     3.4896821845     1.7189933189
  158      C       5.7939678485    -0.3806666962    -1.5656286503
  159      C       0.7572072580     1.1863567494     0.1379958022
  160      C       5.5844734953    -1.7278563226     2.3177746544
  161      C       1.8245982108    -0.6325295015     3.0289898112
  162      C       6.5147962747     3.1229715818    -0.6815459634
  163      C       0.9959984018     1.9877664679     2.4312629590
  164      C       4.3706504506     3.4072403321    -1.4628525373
  165      C       2.3849964253     3.7227385313     2.7237256572
  166      C       1.2708140176    -0.0103940564    -0.3874645724
  167      C       0.7363352965     0.9715866108     1.4916361343
  168      C       4.4711418446    -0.2028459638    -2.0403466199
  169      C       6.5904309094     0.7419296341    -1.2803269297
  170      C       4.7327080264     4.2959372571     2.7760654953
  171      C       1.2000734464     2.3892168007    -0.3626350359
  172      C       3.3877888380     0.1404079057     4.4004211173
  173      C       6.9184273149     2.4823744765     2.7210088608
  174      C       3.8068216190     2.5779760086     4.3397970929
  175      C       6.1954272050     2.0567936810    -1.5339696147
  176      C       4.9292798231     4.5060514307     0.5931954665
 ----------------------------------------------------------------

    9   -5804.2193781123      8.26E-06 Convergence criterion met
 Total energy in the final basis set = -5804.2193781123

                    Orbital Energies (a.u.)
 --------------------------------------------------------------

 Alpha MOs
 -- Occupied --
-19.194 -19.189 -19.143 -19.135 -10.316 -10.315 -10.253 -10.249
-10.244 -10.241 -10.240 -10.239 -10.237 -10.234 -10.234 -10.232
-10.232 -10.231 -10.227 -10.227 -10.226 -10.226 -10.225 -10.224
-10.223 -10.223 -10.222 -10.222 -10.222 -10.221 -10.221 -10.221
-10.220 -10.220 -10.219 -10.219 -10.219 -10.219 -10.218 -10.218
-10.218 -10.218 -10.218 -10.218 -10.218 -10.218 -10.217 -10.217
-10.217 -10.217 -10.217 -10.216 -10.216 -10.216 -10.216 -10.216
-10.216 -10.216 -10.216 -10.216 -10.216 -10.215 -10.215 -10.215
-10.215 -10.215 -10.215 -10.215 -10.215 -10.215 -10.215 -10.215
-10.214 -10.214 -10.214 -10.214 -10.214 -10.214 -10.214 -10.214
-10.214 -10.213 -10.213 -10.213 -10.213 -10.213 -10.213 -10.213
-10.212 -10.212 -10.212 -10.212 -10.212 -10.212 -10.212 -10.211
-10.211 -10.211 -10.211 -10.210 -10.210 -10.210 -10.210 -10.210
-10.210 -10.210 -10.210 -10.210 -10.209 -10.209 -10.209 -10.209
-10.209 -10.209 -10.209 -10.209 -10.208 -10.208 -10.208 -10.207
-10.207 -10.207 -10.207 -10.207 -10.206 -10.206 -10.206 -10.206
-10.206 -10.206 -10.205 -10.205 -10.205 -10.205 -10.204 -10.204
-10.203 -10.203 -10.202 -10.202 -10.202 -10.201 -10.201 -10.200
-10.200 -10.200 -10.196 -10.193  -1.105  -1.098  -1.023  -1.017
 -0.986  -0.986  -0.969  -0.969  -0.966  -0.964  -0.963  -0.961
 -0.936  -0.935  -0.931  -0.929  -0.929  -0.927  -0.927  -0.926
 -0.923  -0.922  -0.902  -0.901  -0.894  -0.892  -0.890  -0.887
 -0.877  -0.873  -0.854  -0.850  -0.847  -0.844  -0.841  -0.839
 -0.838  -0.836  -0.823  -0.822  -0.810  -0.809  -0.801  -0.800
 -0.799  -0.798  -0.797  -0.797  -0.792  -0.792  -0.787  -0.784
 -0.772  -0.772  -0.770  -0.770  -0.769  -0.767  -0.764  -0.763
 -0.751  -0.749  -0.746  -0.744  -0.737  -0.731  -0.719  -0.718
 -0.717  -0.716  -0.715  -0.713  -0.712  -0.712  -0.710  -0.710
 -0.709  -0.708  -0.707  -0.706  -0.705  -0.700  -0.676  -0.672
 -0.662  -0.659  -0.658  -0.657  -0.650  -0.648  -0.636  -0.631
 -0.629  -0.627  -0.627  -0.625  -0.625  -0.624  -0.619  -0.618
 -0.618  -0.615  -0.614  -0.613  -0.612  -0.611  -0.611  -0.608
 -0.607  -0.606  -0.605  -0.605  -0.573  -0.569  -0.566  -0.565
 -0.564  -0.561  -0.561  -0.560  -0.559  -0.557  -0.556  -0.554
 -0.540  -0.537  -0.534  -0.532  -0.529  -0.529  -0.527  -0.526
 -0.524  -0.523  -0.520  -0.519  -0.517  -0.517  -0.516  -0.516
 -0.507  -0.504  -0.502  -0.499  -0.496  -0.495  -0.491  -0.489
 -0.488  -0.486  -0.485  -0.484  -0.481  -0.480  -0.478  -0.476
 -0.474  -0.474  -0.473  -0.470  -0.470  -0.470  -0.468  -0.467
 -0.467  -0.466  -0.466  -0.466  -0.465  -0.464  -0.462  -0.458
 -0.457  -0.456  -0.454  -0.451  -0.447  -0.446  -0.445  -0.445
 -0.443  -0.442  -0.441  -0.440  -0.439  -0.439  -0.438  -0.435
 -0.433  -0.431  -0.429  -0.428  -0.428  -0.427  -0.427  -0.425
 -0.424  -0.424  -0.423  -0.423  -0.422  -0.421  -0.420  -0.419
 -0.419  -0.418  -0.418  -0.417  -0.417  -0.415  -0.415  -0.415
 -0.413  -0.413  -0.410  -0.409  -0.405  -0.402  -0.402  -0.397
 -0.396  -0.393  -0.392  -0.390  -0.390  -0.388  -0.387  -0.385
 -0.383  -0.380  -0.376  -0.375  -0.372  -0.372  -0.368  -0.368
 -0.366  -0.364  -0.363  -0.363  -0.362  -0.362  -0.360  -0.359
 -0.358  -0.357  -0.356  -0.355  -0.354  -0.354  -0.353  -0.353
 -0.353  -0.352  -0.350  -0.349  -0.346  -0.345  -0.345  -0.344
 -0.343  -0.343  -0.341  -0.341  -0.340  -0.338  -0.337  -0.335
 -0.334  -0.333  -0.333  -0.331  -0.330  -0.328  -0.326  -0.325
 -0.317  -0.304  -0.302  -0.292  -0.287  -0.286  -0.274  -0.273
 -0.272  -0.270  -0.270  -0.269  -0.268  -0.268  -0.266  -0.266
 -0.264  -0.263  -0.261  -0.259  -0.258  -0.257  -0.255  -0.254
 -0.253  -0.248  -0.247  -0.242  -0.225  -0.220  -0.213  -0.212
 -0.211  -0.208  -0.206  -0.205  -0.203  -0.199

          Ground-State Mulliken Net Atomic Charges

     Atom                 Charge (a.u.)
  ----------------------------------------
      1 O                    -0.436300
      2 C                    -0.083416
      3 H                     0.116376
      4 H                     0.118142
      5 H                     0.109983
      6 O                    -0.464745
      7 C                     0.571507
      8 C                    -0.237386
      9 H                     0.143282
     10 H                     0.126946
     11 C                    -0.193743
     12 H                     0.117378
     13 H                     0.121486
     14 C                    -0.173687
     15 H                     0.108112
     16 H                     0.117377
     17 C                     0.001821
     18 C                     0.100902
     19 C                    -0.093295
     20 H                     0.088533
     21 C                    -0.094652
     22 H                     0.089124
     23 C                    -0.086382
     24 H                     0.098311
     25 C                    -0.100001
     26 H                     0.092214
     27 C                    -0.127081
     28 H                     0.093360
     29 C                    -0.036893
     30 C                    -0.018948
     31 C                     0.023936
     32 C                    -0.013397
     33 C                     0.002863
     34 C                     0.012605
     35 C                     0.021682
     36 C                     0.008174
     37 C                     0.037001
     38 C                     0.005636
     39 C                    -0.091545
     40 C                     0.012245
     41 C                    -0.015806
     42 C                    -0.022581
     43 C                     0.007031
     44 C                     0.007856
     45 C                    -0.090637
     46 C                     0.003216
     47 C                    -0.022255
     48 C                     0.030327
     49 C                    -0.009247
     50 C                    -0.002508
     51 C                     0.010744
     52 C                     0.005332
     53 C                     0.036153
     54 C                     0.003142
     55 C                     0.005029
     56 C                    -0.009800
     57 C                    -0.019283
     58 C                    -0.024980
     59 C                    -0.006063
     60 C                     0.017501
     61 C                     0.000379
     62 C                     0.012833
     63 C                    -0.026410
     64 C                     0.001369
     65 C                    -0.011772
     66 C                    -0.022792
     67 C                    -0.003854
     68 C                     0.023632
     69 C                     0.009491
     70 C                     0.038784
     71 C                     0.030351
     72 C                    -0.035879
     73 C                     0.009679
     74 C                     0.004591
     75 C                    -0.025139
     76 C                     0.000769
     77 C                     0.012268
     78 C                     0.025490
     79 C                    -0.005650
     80 C                     0.020261
     81 C                    -0.001776
     82 C                    -0.038472
     83 C                    -0.037776
     84 C                     0.002707
     85 C                     0.000789
     86 C                     0.001429
     87 C                     0.005080
     88 C                     0.008506
     89 O                    -0.460520
     90 C                    -0.093245
     91 H                     0.126840
     92 H                     0.137185
     93 H                     0.128582
     94 O                    -0.462618
     95 C                     0.586864
     96 C                    -0.261315
     97 H                     0.128850
     98 H                     0.134573
     99 C                    -0.172041
    100 H                     0.119039
    101 H                     0.122546
    102 C                    -0.189020
    103 H                     0.105145
    104 H                     0.107637
    105 C                     0.008914
    106 C                     0.085084
    107 C                    -0.117095
    108 H                     0.101293
    109 C                    -0.092123
    110 H                     0.096817
    111 C                    -0.076362
    112 H                     0.092344
    113 C                    -0.092742
    114 H                     0.095463
    115 C                    -0.116029
    116 H                     0.095014
    117 C                    -0.016730
    118 C                     0.002065
    119 C                    -0.026040
    120 C                    -0.009859
    121 C                    -0.024150
    122 C                    -0.026557
    123 C                    -0.011363
    124 C                     0.001468
    125 C                     0.036864
    126 C                     0.029340
    127 C                    -0.078964
    128 C                    -0.022957
    129 C                    -0.009723
    130 C                     0.003555
    131 C                     0.026758
    132 C                     0.004613
    133 C                    -0.080535
    134 C                     0.029218
    135 C                     0.006742
    136 C                     0.009685
    137 C                    -0.035430
    138 C                    -0.007240
    139 C                     0.006105
    140 C                    -0.006472
    141 C                     0.025391
    142 C                    -0.010634
    143 C                     0.013782
    144 C                    -0.005952
    145 C                     0.005436
    146 C                    -0.010694
    147 C                     0.004060
    148 C                     0.011461
    149 C                    -0.013327
    150 C                    -0.002825
    151 C                     0.012154
    152 C                     0.007849
    153 C                     0.016436
    154 C                     0.021156
    155 C                    -0.008841
    156 C                    -0.044090
    157 C                    -0.010856
    158 C                     0.010772
    159 C                     0.003462
    160 C                     0.021046
    161 C                    -0.012071
    162 C                    -0.006895
    163 C                    -0.018659
    164 C                     0.011910
    165 C                     0.046612
    166 C                    -0.042015
    167 C                     0.022691
    168 C                    -0.001318
    169 C                     0.026020
    170 C                    -0.013768
    171 C                     0.000530
    172 C                     0.008918
    173 C                    -0.010057
    174 C                    -0.024986
    175 C                     0.013846
    176 C                     0.024399
  ----------------------------------------
  Sum of atomic charges =     0.000000

                    Cartesian Multipole Moments
 -----------------------------------------------------------------
    Charge (ESU x 10^10)
                 0.0000
    Dipole Moment (Debye)
         X       3.1370      Y      -3.9801      Z      -1.4220
       Tot       5.2634
    Quadrupole Moments (Debye-Ang)
        XX    -818.4841     XY     -25.4795     YY    -801.5362
        XZ      -2.6136     YZ      18.2598     ZZ    -799.6884

 Total job time:  857.47s(wall), 8206.74s(cpu)
        *  Thank you very much for using Q-Chem.  Have a nice day.  *
