 Q-Chem 4.4, Q-Chem, Inc., Pleasanton, CA (2016)
 Q-Chem 4.4.2 for Intel X86 Linux

User input:
--------------------------------------------------------------
$comment
SP
$end

$rem
MEM_STATIC 5000
MEM_TOTAL 20000
JOBTYPE SP
EXCHANGE B3LYP
BASIS 6-31g(d,p)
$end

$molecule
0 1
O          20.108000      9.439000      9.454000
C          18.845000      9.789000      9.943000
H          18.923000     10.242000     10.939000
H          18.214000      8.892000      9.911000
H          18.325000     10.520000      9.312000
O          19.554000      9.346000      7.259000
C          20.385000      9.302000      8.119000
C          21.836000      8.847000      7.870000
H          22.005000      7.932000      8.451000
H          22.515000      9.605000      8.278000
C          22.226000      8.635000      6.367000
H          22.082000      7.576000      6.116000
H          21.751000      9.299000      5.634000
C          23.727000      8.929000      6.198000
H          23.881000      9.837000      6.795000
H          24.191000      8.067000      6.693000
C          24.191000      8.957000      4.731000
C          24.352000      7.575000      4.097000
C          23.308000      7.053000      3.277000
H          22.345000      7.552000      3.228000
C          23.529000      5.852000      2.548000
H          22.792000      5.339000      1.936000
C          24.752000      5.172000      2.661000
H          25.000000      4.304000      2.058000
C          25.708000      5.752000      3.426000
H          26.729000      5.398000      3.327000
C          25.574000      6.905000      4.169000
H          26.447000      7.425000      4.553000
C          28.126000     10.827000      1.392000
C          26.193000     10.577000      0.012000
C          25.351000     14.958000     -0.697000
C          26.930000     13.702000      5.467000
C          22.830000     15.088000      1.689000
C          26.974000     10.100000      1.043000
C          25.007000     15.536000      4.481000
C          27.471000     13.662000     -0.590000
C          22.689000     11.009000      1.954000
C          25.565000     13.466000      5.704000
C          23.887000     10.119000      3.805000
C          22.328000     11.793000      3.071000
C          23.509000     13.694000      4.843000
C          24.248000     15.986000      3.413000
C          24.737000      9.742000      1.522000
C          24.832000     16.227000      1.119000
C          25.286000      9.941000      4.381000
C          25.852000     11.067000      5.240000
C          23.651000     15.572000      0.731000
C          28.461000     15.024000      2.492000
C          27.183000     15.755000      0.726000
C          28.003000     14.632000      0.342000
C          27.779000     12.313000     -0.460000
C          27.208000     11.441000      4.894000
C          23.651000     10.011000      2.370000
C          26.592000     11.638000     -0.795000
C          24.630000     14.411000      5.213000
C          24.858000     10.325000      0.222000
C          22.207000     13.189000      2.867000
C          28.648000     13.132000      3.925000
C          26.159000     13.844000     -1.086000
C          23.084000     11.323000      4.207000
C          29.089000     12.857000      1.578000
C          22.676000     14.141000      3.820000
C          22.861000     11.643000      0.699000
C          26.508000     16.309000      2.989000
C          26.381000     15.781000      4.275000
C          22.683000     12.983000      0.549000
C          27.759000     12.720000      4.997000
C          25.024000     12.177000      5.562000
C          28.376000     14.502000      3.785000
C          26.403000      9.763000      3.383000
C          24.272000     12.417000     -0.868000
C          23.736000     12.314000      4.981000
C          22.286000     13.808000      1.606000
C          28.943000     12.322000      2.831000
C          24.038000     14.825000     -0.424000
C          28.556000     11.896000      0.675000
C          25.870000     15.863000      0.243000
C          23.849000     11.298000     -0.173000
C          23.494000     13.500000     -0.489000
C          26.078000      9.610000      2.032000
C          27.496000     10.600000      3.744000
C          27.492000     15.953000      2.099000
C          25.587000     12.563000     -1.214000
C          23.059000     15.313000      3.046000
C          27.342000     14.849000      4.687000
C          25.185000     16.432000      2.492000
C          28.355000     11.080000      2.775000
C          28.833000     14.255000      1.398000
O          15.868000     11.931000      7.056000
C          14.531000     11.455000      7.549000
H          13.852000     11.387000      6.690000
H          14.162000     12.091000      8.363000
H          14.732000     10.548000      8.132000
O          16.681000     12.158000      9.147000
C          16.828000     12.184000      7.937000
C          18.065000     12.714000      7.228000
H          17.911000     13.601000      6.602000
H          18.414000     11.931000      6.544000
C          19.233000     12.990000      8.162000
H          18.947000     13.770000      8.877000
H          19.461000     12.084000      8.737000
C          20.553000     13.444000      7.497000
H          21.030000     12.595000      6.991000
H          20.512000     14.093000      6.614000
C          21.593000     14.004000      8.510000
C          22.217000     12.814000      9.257000
C          21.646000     12.203000     10.424000
H          20.677000     12.518000     10.801000
C          22.320000     11.264000     11.152000
H          21.747000     10.950000     12.019000
C          23.663000     10.923000     10.788000
H          24.225000     10.177000     11.342000
C          24.244000     11.500000      9.674000
H          25.169000     11.112000      9.257000
C          23.529000     12.458000      8.886000
H          24.006000     12.772000      7.963000
C          22.614000     17.488000     12.645000
C          24.704000     17.361000     11.405000
C          24.740000     21.422000      9.471000
C          18.921000     18.740000      9.319000
C          23.741000     20.263000      6.337000
C          23.571000     16.716000     11.921000
C          20.122000     20.294000      7.229000
C          24.001000     20.740000     11.675000
C          24.194000     16.446000      7.523000
C          19.336000     18.144000      8.090000
C          22.306000     15.290000      8.246000
C          23.177000     16.780000      6.629000
C          20.857000     18.172000      6.393000
C          21.382000     20.843000      6.803000
C          24.094000     15.853000      9.831000
C          23.052000     21.881000      8.043000
C          21.361000     15.275000      9.306000
C          20.188000     16.182000      9.194000
C          23.989000     21.107000      7.411000
C          20.617000     21.233000     11.122000
C          22.549000     22.133000     10.333000
C          22.812000     21.503000     11.604000
C          24.048000     19.512000     12.351000
C          19.823000     16.812000     10.426000
C          23.741000     15.541000      8.535000
C          25.010000     18.729000     11.738000
C          19.942000     18.932000      7.098000
C          25.008000     16.843000     10.140000
C          23.205000     18.071000      5.983000
C          19.570000     19.007000     11.455000
C          24.951000     20.730000     10.663000
C          22.021000     16.121000      7.038000
C          21.676000     19.600000     12.626000
C          22.021000     18.780000      5.912000
C          25.187000     17.376000      7.788000
C          20.801000     21.841000      8.764000
C          19.825000     20.870000      8.446000
C          25.330000     18.608000      7.184000
C          19.158000     18.055000     10.505000
C          19.962000     16.921000      8.032000
C          19.645000     20.226000     10.790000
C          21.813000     15.593000     10.654000
C          25.903000     18.901000      9.357000
C          20.846000     16.896000      6.941000
C          24.293000     18.935000      6.259000
C          20.708000     18.681000     12.308000
C          25.066000     20.802000      8.247000
C          22.883000     18.935000     12.828000
C          23.509000     21.998000      9.352000
C          25.569000     17.604000      9.113000
C          25.723000     19.549000      8.138000
C          23.178000     15.827000     10.947000
C          20.864000     16.449000     11.353000
C          21.182000     22.016000     10.090000
C          25.559000     19.469000     10.631000
C          22.320000     20.059000      6.130000
C          19.204000     20.112000      9.499000
C          21.723000     21.843000      7.705000
C          21.273000     17.346000     12.385000
C          21.603000     20.898000     12.023000
$end

--------------------------------------------------------------

             Standard Nuclear Orientation (Angstroms)
    I     Atom           X                Y                Z
 ----------------------------------------------------------------
    1      O       0.2820419445    -6.9309956217     0.9520934743
    2      C      -0.6697549741    -7.6435188930     0.2150838314
    3      H      -1.6189141557    -7.7082817108     0.7611713935
    4      H      -0.2350688539    -8.6187014690    -0.0376233515
    5      H      -0.9017218838    -7.1810886539    -0.7520105936
    6      O       1.6439176138    -6.3920126775    -0.7766002659
    7      C       1.3532253854    -6.2959258304     0.3802758494
    8      C       2.2731617013    -5.6462039198     1.4319438643
    9      H       2.5553513763    -6.4210948550     2.1553110089
   10      H       1.6956278147    -4.8974638088     1.9868419235
   11      C       3.5422165094    -4.9247506629     0.8618052039
   12      H       4.3825816472    -5.6308682075     0.8818663173
   13      H       3.4376632396    -4.4385565309    -0.1161998471
   14      C       3.9171402736    -3.7649065531     1.8010558691
   15      H       2.9504600724    -3.3032016181     2.0396914526
   16      H       4.3115780267    -4.2927669074     2.6780663053
   17      C       5.0224184789    -2.8501535981     1.2444984864
   18      C       6.4312944132    -3.4357791633     1.3440590161
   19      C       7.0128238266    -4.0633722686     0.2026693213
   20      H       6.4123516862    -4.2684648487    -0.6783194654
   21      C       8.3812206490    -4.4489897339     0.2410399708
   22      H       8.9116950951    -4.9772533524    -0.5466251937
   23      C       9.1411485286    -4.2418216399     1.4031453871
   24      H      10.2081789385    -4.4361404520     1.4502973067
   25      C       8.5301682494    -3.6030464533     2.4299025929
   26      H       9.1493775366    -3.2014001706     3.2254012555
   27      C       7.2115879899    -3.2049614643     2.4777402429
   28      H       6.8707138561    -2.4949862736     3.2258879913
   29      C       7.1996077914     2.1725278344     1.6476906554
   30      C       7.6989706648     1.4441107545    -0.5711906570
   31      C       4.9505402524     4.2566691185    -2.7939033505
   32      C       2.1598679166     1.7146795060     2.4801946506
   33      C       2.4918736895     1.8464922460    -3.2536241091
   34      C       7.5714833101     1.1407936577     0.7675388575
   35      C       0.9884490252     2.2567505991    -0.0432192495
   36      C       6.4066587987     4.5728933902    -0.8026258738
   37      C       5.0313495058    -1.1509339959    -2.1157113255
   38      C       1.7419362770     0.6461690870     1.6685859831
   39      C       4.7625439007    -1.8391390224     0.1442936276
   40      C       3.6424762898    -1.2988111866    -1.9111886460
   41      C       1.5327555889    -0.0464252413    -0.4520265549
   42      C       1.1657218869     2.5701877446    -1.3809548318
   43      C       6.8064694975    -0.6289379400    -0.5148721292
   44      C       2.7171777264     4.0524937564    -2.4092187403
   45      C       4.9269498719    -1.3793865243     1.5872972025
   46      C       3.7638841593    -0.6356683429     2.2355829535
   47      C       3.0575321997     3.0696169883    -3.3539102726
   48      C       3.7263096481     4.7872325218     1.4565012071
   49      C       4.0212609178     5.2829688956    -0.7691785085
   50      C       5.2898603146     5.1584493181    -0.0938005067
   51      C       7.3270212569     3.7730406524    -0.1357424182
   52      C       4.1586219198     0.5685025045     2.9373540493
   53      C       5.7235545115    -1.4446902053    -0.8791582456
   54      C       7.6435968746     2.7504277431    -1.0472585815
   55      C       1.1440764130     0.9512380447     0.4204563768
   56      C       7.3191444691     0.3937632700    -1.3726463469
   57      C       2.7972383046    -0.3249039433    -2.4961249073
   58      C       4.1049228461     2.9908838128     2.9723855568
   59      C       6.2127123158     4.1333645162    -2.1329202513
   60      C       3.4323067092    -1.6565683163    -0.5288823906
   61      C       5.9971108412     4.0567641291     1.9418329173
   62      C       1.6592264862     0.2021908920    -1.8167324318
   63      C       5.4950537220    -0.0821524338    -2.9214714464
   64      C       1.9246703714     4.3061557707    -0.0385252395
   65      C       1.3823066214     3.3236232150     0.7916436227
   66      C       4.6340721307     0.7967525092    -3.5011444583
   67      C       3.3933760950     1.7287647771     3.0724143555
   68      C       2.5431192149    -0.4985339531     1.5198350163
   69      C       3.1880938260     3.8306552432     2.3207012063
   70      C       6.0581921866    -0.4192687879     1.8590356013
   71      C       6.4531651024     1.9465738340    -3.0299993837
   72      C       2.4438761739    -0.9187893931     0.1674999306
   73      C       3.2465599314     0.6812026766    -3.3709863506
   74      C       5.4757366277     3.0721858867     2.7395324937
   75      C       4.4547815909     3.2743618387    -3.5720310763
   76      C       7.0881041019     3.4645130938     1.2475769009
   77      C       3.8683802908     4.7865105446    -2.0726656084
   78      C       6.6153742649     0.6336975087    -2.6248340567
   79      C       5.2278711631     2.0705351531    -3.6664758984
   80      C       6.9661153741    -0.1438717244     0.8323579776
   81      C       5.5857415555     0.6481034307     2.6733119354
   82      C       3.0632528600     5.0197141589     0.2470554728
   83      C       6.9895964141     2.9699206953    -2.2983849707
   84      C       1.5017462797     1.5613255695    -2.3140270257
   85      C       2.0322218809     3.0763071446     2.0075111800
   86      C       1.7679396280     3.8200279184    -1.3619987697
   87      C       6.1731332759     1.8955788028     2.5957351179
   88      C       5.0930167866     4.9421637501     1.2702516106
   89      O      -1.1008841879    -6.7068113603    -4.3370770400
   90      C      -1.5191498139    -8.0321092585    -4.9078951783
   91      H      -1.1066813647    -8.1158024080    -5.9210147345
   92      H      -2.6075494824    -8.1579965207    -4.8550599747
   93      H      -1.2338889643    -8.7834573578    -4.1615431960
   94      O      -2.4043258477    -6.9567547611    -2.5140720658
   95      C      -1.5670008096    -6.3394401760    -3.1498349805
   96      C      -1.0714135716    -4.9445804772    -2.7998211089
   97      H      -1.2999358443    -4.1610002062    -3.5320372858
   98      H       0.0233135920    -4.9865566930    -2.7492599122
   99      C      -1.5247143685    -4.4610484851    -1.4310730678
  100      H      -2.6188193295    -4.3970677402    -1.4148928713
  101      H      -1.2264880300    -5.1923776045    -0.6697165349
  102      C      -0.9816694021    -3.0880270198    -0.9721011513
  103      H       0.0778827666    -3.1751748945    -0.6998504398
  104      H      -0.8424608205    -2.2923213737    -1.7137509983
  105      C      -1.7193053785    -2.5184641153     0.2740369888
  106      C      -1.2224584208    -3.2839234044     1.5112516740
  107      C      -1.7653121208    -4.5352183399     1.9593831779
  108      H      -2.5282210212    -5.0507335735     1.3827298561
  109      C      -1.4102434850    -5.0906905989     3.1557768562
  110      H      -1.9539047837    -6.0120501542     3.3405549992
  111      C      -0.5236354769    -4.3777081687     4.0264135739
  112      H      -0.2170936076    -4.7930188154     4.9818324083
  113      C       0.0098241467    -3.1663186029     3.6271114956
  114      H       0.8353929186    -2.7099808251     4.1658600784
  115      C      -0.3305317194    -2.5965832788     2.3584537226
  116      H       0.2211386945    -1.7081823122     2.0678380366
  117      C      -6.5307397102    -1.2743415826     2.6364892730
  118      C      -4.9733683295     0.3978640901     3.4732398753
  119      C      -6.4159156171     4.0280537803     1.2429589206
  120      C      -6.2856265100    -1.1857590181    -2.4821142131
  121      C      -3.8408907835     3.9698741170    -1.1084449650
  122      C      -5.2300490996    -0.9328105603     3.1135317199
  123      C      -5.5697575168     1.4763429571    -3.2734179840
  124      C      -7.6563103788     2.1894307763     2.2175087061
  125      C      -1.9127419869     1.1129429814     0.9655561691
  126      C      -4.9324335886    -0.8294055693    -2.7645378965
  127      C      -2.1939437997    -1.1022462008     0.3041399403
  128      C      -1.8526236911     1.1206375745    -0.4277878601
  129      C      -3.3487621666     0.8069180891    -2.6725394603
  130      C      -5.2693647030     2.7779323639    -2.7385290482
  131      C      -3.0868092020    -0.3312998888     2.4569453559
  132      C      -6.2889757978     3.9516550942    -1.0103183644
  133      C      -3.1832851185    -2.1196450405     0.2497951535
  134      C      -4.0821364229    -2.1417855355    -0.9345604228
  135      C      -5.0546423359     4.2410241323    -0.4915164131
  136      C      -8.6585900674     0.7642323210    -0.7765785987
  137      C      -8.1464852483     2.8575168852    -0.0547383202
  138      C      -8.4900729484     2.0415571741     1.0844136636
  139      C      -7.2633540579     1.0872510378     2.9907836598
  140      C      -5.4449952401    -2.4465318383    -0.6219991726
  141      C      -2.1167004649    -0.2049567056     1.4850938043
  142      C      -6.0279721922     1.3771496107     3.5422294534
  143      C      -4.6157243774     0.4899937706    -3.1266492848
  144      C      -3.6829355839     0.7575070471     3.0653118515
  145      C      -2.2852647218     2.2976670036    -1.1434724706
  146      C      -7.6965938019    -1.5241284529    -0.7646557925
  147      C      -6.6806416920     3.1722724907     2.3115128451
  148      C      -2.0352815652    -0.1879004440    -0.8662651744
  149      C      -8.2350732047    -0.3694016825     1.3648446227
  150      C      -3.0809526279     2.1156527483    -2.2585193606
  151      C      -2.4145710217     2.2258244288     1.6219375398
  152      C      -7.4354249099     2.2895621744    -2.2397668421
  153      C      -6.8651639028     1.1810106668    -2.9049412093
  154      C      -2.8000961149     3.4124353568     1.0333681656
  155      C      -6.5430925469    -2.0188377176    -1.3996720112
  156      C      -3.8738955863    -1.2752871012    -2.0084585639
  157      C      -8.0533717890    -0.3607544162    -1.4377689468
  158      C      -4.1618650415    -2.2054420592     1.3256911549
  159      C      -4.2767485360     3.0313737476     2.7097919418
  160      C      -2.8554660086    -0.3082488656    -2.0079624794
  161      C      -2.7206337533     3.4166464303    -0.3919707414
  162      C      -7.6975429472    -1.4375102803     0.6918555845
  163      C      -5.0771492049     4.3132514782     0.9035200206
  164      C      -7.5497701247    -0.1990852338     2.5653570116
  165      C      -7.1039107443     3.7472657004     0.0987916431
  166      C      -3.3383462408     2.0466177801     2.6554061273
  167      C      -3.9546634744     3.8866750374     1.6595605783
  168      C      -4.0972832116    -1.3628574085     2.4613452808
  169      C      -5.5002083496    -2.4739570684     0.8170902511
  170      C      -8.3243131896     2.0729352948    -1.1923832346
  171      C      -5.6193164412     2.6786443232     3.0801017758
  172      C      -4.0005183399     3.0783937973    -2.2413562073
  173      C      -7.2476018623    -0.1524831214    -2.5247445182
  174      C      -6.4450164882     3.2840267966    -2.1985324693
  175      C      -6.6722926222    -2.0535411006     1.5145018023
  176      C      -8.7322324740     0.7345805628     0.5981648571
 ----------------------------------------------------------------

    9   -5804.2387572791      9.83E-06 Convergence criterion met
 Total energy in the final basis set = -5804.2387572791

                    Orbital Energies (a.u.)
 --------------------------------------------------------------

 Alpha MOs
 -- Occupied --
-19.196 -19.185 -19.139 -19.136 -10.318 -10.317 -10.254 -10.244
-10.241 -10.239 -10.238 -10.233 -10.233 -10.232 -10.232 -10.231
-10.230 -10.230 -10.229 -10.229 -10.229 -10.229 -10.227 -10.225
-10.225 -10.224 -10.224 -10.223 -10.223 -10.223 -10.222 -10.222
-10.222 -10.221 -10.221 -10.221 -10.220 -10.220 -10.220 -10.219
-10.219 -10.219 -10.219 -10.219 -10.219 -10.219 -10.219 -10.219
-10.219 -10.218 -10.218 -10.218 -10.218 -10.218 -10.218 -10.217
-10.217 -10.217 -10.217 -10.217 -10.217 -10.216 -10.216 -10.216
-10.216 -10.215 -10.215 -10.215 -10.215 -10.215 -10.215 -10.214
-10.214 -10.214 -10.214 -10.214 -10.214 -10.214 -10.214 -10.214
-10.214 -10.214 -10.214 -10.213 -10.213 -10.213 -10.213 -10.213
-10.213 -10.213 -10.213 -10.212 -10.212 -10.212 -10.212 -10.212
-10.212 -10.211 -10.211 -10.211 -10.211 -10.211 -10.211 -10.210
-10.210 -10.210 -10.210 -10.210 -10.210 -10.209 -10.209 -10.208
-10.208 -10.208 -10.208 -10.208 -10.208 -10.207 -10.207 -10.207
-10.207 -10.207 -10.206 -10.206 -10.205 -10.204 -10.204 -10.204
-10.203 -10.203 -10.203 -10.203 -10.202 -10.202 -10.202 -10.201
-10.201 -10.199 -10.199 -10.198 -10.198 -10.197 -10.197 -10.197
-10.195 -10.192 -10.190 -10.188  -1.099  -1.098  -1.021  -1.009
 -0.985  -0.984  -0.970  -0.968  -0.966  -0.963  -0.963  -0.959
 -0.940  -0.935  -0.930  -0.929  -0.927  -0.926  -0.925  -0.922
 -0.920  -0.919  -0.898  -0.897  -0.894  -0.892  -0.885  -0.884
 -0.873  -0.870  -0.857  -0.852  -0.846  -0.842  -0.841  -0.838
 -0.838  -0.835  -0.823  -0.820  -0.804  -0.803  -0.801  -0.799
 -0.797  -0.797  -0.793  -0.792  -0.792  -0.791  -0.787  -0.780
 -0.773  -0.772  -0.772  -0.769  -0.765  -0.765  -0.764  -0.762
 -0.753  -0.751  -0.746  -0.742  -0.735  -0.734  -0.720  -0.717
 -0.715  -0.714  -0.714  -0.712  -0.712  -0.711  -0.711  -0.709
 -0.708  -0.706  -0.706  -0.704  -0.703  -0.698  -0.674  -0.670
 -0.662  -0.660  -0.659  -0.656  -0.649  -0.645  -0.634  -0.631
 -0.628  -0.626  -0.626  -0.623  -0.622  -0.621  -0.620  -0.619
 -0.616  -0.614  -0.613  -0.612  -0.612  -0.611  -0.608  -0.605
 -0.605  -0.604  -0.602  -0.600  -0.568  -0.567  -0.565  -0.562
 -0.561  -0.560  -0.559  -0.558  -0.557  -0.556  -0.555  -0.554
 -0.539  -0.536  -0.536  -0.532  -0.531  -0.528  -0.524  -0.524
 -0.523  -0.522  -0.521  -0.518  -0.516  -0.516  -0.513  -0.512
 -0.511  -0.508  -0.504  -0.500  -0.498  -0.492  -0.489  -0.487
 -0.485  -0.485  -0.483  -0.481  -0.481  -0.478  -0.477  -0.477
 -0.473  -0.472  -0.471  -0.470  -0.469  -0.469  -0.468  -0.467
 -0.466  -0.466  -0.464  -0.464  -0.463  -0.461  -0.459  -0.457
 -0.456  -0.455  -0.453  -0.452  -0.450  -0.447  -0.447  -0.446
 -0.443  -0.441  -0.441  -0.440  -0.437  -0.435  -0.434  -0.432
 -0.432  -0.430  -0.429  -0.428  -0.427  -0.427  -0.426  -0.426
 -0.424  -0.423  -0.422  -0.422  -0.421  -0.420  -0.419  -0.419
 -0.418  -0.417  -0.416  -0.416  -0.415  -0.414  -0.414  -0.412
 -0.411  -0.409  -0.407  -0.403  -0.403  -0.401  -0.398  -0.397
 -0.396  -0.392  -0.390  -0.389  -0.388  -0.387  -0.386  -0.381
 -0.378  -0.375  -0.374  -0.371  -0.369  -0.367  -0.367  -0.366
 -0.365  -0.364  -0.363  -0.361  -0.360  -0.359  -0.359  -0.358
 -0.356  -0.356  -0.356  -0.355  -0.353  -0.352  -0.351  -0.350
 -0.350  -0.349  -0.347  -0.346  -0.345  -0.344  -0.344  -0.343
 -0.342  -0.341  -0.339  -0.338  -0.337  -0.337  -0.336  -0.336
 -0.332  -0.332  -0.331  -0.328  -0.327  -0.326  -0.325  -0.320
 -0.308  -0.304  -0.303  -0.293  -0.289  -0.287  -0.274  -0.274
 -0.273  -0.272  -0.271  -0.269  -0.268  -0.266  -0.264  -0.263
 -0.263  -0.262  -0.261  -0.260  -0.256  -0.256  -0.254  -0.253
 -0.252  -0.247  -0.245  -0.242  -0.223  -0.219  -0.216  -0.213
 -0.213  -0.211  -0.205  -0.205  -0.201  -0.199

          Ground-State Mulliken Net Atomic Charges

     Atom                 Charge (a.u.)
  ----------------------------------------
      1 O                    -0.466376
      2 C                    -0.085330
      3 H                     0.118612
      4 H                     0.111248
      5 H                     0.132055
      6 O                    -0.459411
      7 C                     0.599908
      8 C                    -0.284232
      9 H                     0.136343
     10 H                     0.146201
     11 C                    -0.176826
     12 H                     0.110793
     13 H                     0.119200
     14 C                    -0.197457
     15 H                     0.107958
     16 H                     0.110163
     17 C                     0.025416
     18 C                     0.056720
     19 C                    -0.102122
     20 H                     0.100207
     21 C                    -0.103559
     22 H                     0.092337
     23 C                    -0.067495
     24 H                     0.093921
     25 C                    -0.087977
     26 H                     0.081080
     27 C                    -0.094991
     28 H                     0.097234
     29 C                    -0.003942
     30 C                     0.037369
     31 C                     0.032294
     32 C                    -0.009608
     33 C                     0.034196
     34 C                    -0.011719
     35 C                     0.020623
     36 C                     0.016134
     37 C                    -0.023269
     38 C                    -0.007597
     39 C                    -0.067260
     40 C                    -0.008633
     41 C                    -0.001271
     42 C                     0.023209
     43 C                     0.009187
     44 C                    -0.014764
     45 C                    -0.076428
     46 C                    -0.006126
     47 C                     0.015579
     48 C                     0.009381
     49 C                    -0.004155
     50 C                    -0.009604
     51 C                    -0.020853
     52 C                     0.001251
     53 C                     0.040364
     54 C                    -0.011616
     55 C                     0.014990
     56 C                    -0.025326
     57 C                     0.012226
     58 C                    -0.011532
     59 C                    -0.001893
     60 C                    -0.000222
     61 C                    -0.021680
     62 C                    -0.037381
     63 C                     0.046404
     64 C                     0.017922
     65 C                    -0.020687
     66 C                    -0.003124
     67 C                     0.000691
     68 C                    -0.025789
     69 C                     0.013099
     70 C                     0.007754
     71 C                     0.023588
     72 C                     0.038796
     73 C                    -0.015607
     74 C                     0.035242
     75 C                    -0.026160
     76 C                     0.005473
     77 C                    -0.007876
     78 C                    -0.030050
     79 C                    -0.014945
     80 C                     0.013135
     81 C                     0.006506
     82 C                    -0.002243
     83 C                    -0.010070
     84 C                    -0.020286
     85 C                    -0.012643
     86 C                    -0.013718
     87 C                    -0.010081
     88 C                    -0.002936
     89 O                    -0.464029
     90 C                    -0.095374
     91 H                     0.137379
     92 H                     0.141133
     93 H                     0.137900
     94 O                    -0.496988
     95 C                     0.630379
     96 C                    -0.283392
     97 H                     0.135959
     98 H                     0.150786
     99 C                    -0.173910
    100 H                     0.113554
    101 H                     0.115138
    102 C                    -0.209970
    103 H                     0.113057
    104 H                     0.102243
    105 C                     0.007337
    106 C                     0.066216
    107 C                    -0.098168
    108 H                     0.097767
    109 C                    -0.065643
    110 H                     0.091805
    111 C                    -0.097862
    112 H                     0.090382
    113 C                    -0.101747
    114 H                     0.091520
    115 C                    -0.112288
    116 H                     0.096142
    117 C                    -0.010400
    118 C                    -0.005307
    119 C                    -0.029078
    120 C                    -0.029190
    121 C                    -0.057164
    122 C                     0.002800
    123 C                    -0.018246
    124 C                     0.039027
    125 C                     0.006454
    126 C                     0.005863
    127 C                    -0.091079
    128 C                     0.004438
    129 C                     0.017475
    130 C                    -0.004639
    131 C                     0.018040
    132 C                     0.024813
    133 C                    -0.040926
    134 C                     0.015340
    135 C                     0.032195
    136 C                     0.010061
    137 C                    -0.016205
    138 C                    -0.052778
    139 C                     0.012692
    140 C                     0.030093
    141 C                     0.013812
    142 C                    -0.039512
    143 C                    -0.001307
    144 C                     0.023699
    145 C                    -0.000759
    146 C                    -0.020985
    147 C                     0.002883
    148 C                     0.025983
    149 C                     0.036696
    150 C                     0.026290
    151 C                     0.011112
    152 C                     0.002444
    153 C                     0.002363
    154 C                    -0.015543
    155 C                    -0.003084
    156 C                    -0.003959
    157 C                     0.008234
    158 C                     0.026392
    159 C                     0.009718
    160 C                    -0.019159
    161 C                    -0.012594
    162 C                    -0.012379
    163 C                    -0.006652
    164 C                    -0.018066
    165 C                     0.050744
    166 C                    -0.007422
    167 C                    -0.009746
    168 C                    -0.004252
    169 C                    -0.010085
    170 C                     0.003037
    171 C                    -0.006830
    172 C                     0.008070
    173 C                     0.009185
    174 C                    -0.033549
    175 C                    -0.012818
    176 C                    -0.003502
  ----------------------------------------
  Sum of atomic charges =     0.000000

                    Cartesian Multipole Moments
 -----------------------------------------------------------------
    Charge (ESU x 10^10)
                 0.0000
    Dipole Moment (Debye)
         X       3.7182      Y      -3.5793      Z       0.4641
       Tot       5.1819
    Quadrupole Moments (Debye-Ang)
        XX    -813.0948     XY      -8.4110     YY    -787.9888
        XZ       9.5195     YZ       4.1241     ZZ    -794.6926

 Total job time:  907.91s(wall), 8743.22s(cpu)
        *  Thank you very much for using Q-Chem.  Have a nice day.  *
