 Q-Chem 4.4, Q-Chem, Inc., Pleasanton, CA (2016)
 Q-Chem 4.4.2 for Intel X86 Linux

User input:
--------------------------------------------------------------
$comment
SP
$end

$rem
MEM_STATIC 5000
MEM_TOTAL 20000
JOBTYPE SP
EXCHANGE B3LYP
BASIS 6-31g(d,p)
$end

$molecule
0 1
O          -2.613000    -29.232000     -8.443000
C          -1.970000    -30.418000     -8.433000
H          -1.713000    -30.608000     -7.384000
H          -1.066000    -30.333000     -9.049000
H          -2.503000    -31.308000     -8.791000
O          -4.411000    -30.304000     -7.491000
C          -3.913000    -29.318000     -7.971000
C          -4.694000    -28.012000     -8.099000
H          -3.958000    -27.211000     -7.952000
H          -5.300000    -28.123000     -7.191000
C          -5.593000    -27.652000     -9.326000
H          -5.088000    -27.764000    -10.294000
H          -6.371000    -28.419000     -9.417000
C          -6.194000    -26.263000     -9.236000
H          -6.716000    -26.036000     -8.298000
H          -5.400000    -25.509000     -9.308000
C          -7.191000    -25.804000    -10.347000
C          -8.495000    -26.541000    -10.280000
C          -9.477000    -26.160000     -9.307000
H          -9.328000    -25.340000     -8.611000
C         -10.719000    -26.726000     -9.328000
H         -11.461000    -26.531000     -8.559000
C         -11.022000    -27.781000    -10.217000
H         -11.963000    -28.315000    -10.125000
C         -10.086000    -28.198000    -11.153000
H         -10.297000    -28.937000    -11.921000
C          -8.798000    -27.566000    -11.179000
H          -8.059000    -27.897000    -11.903000
C          -7.441000    -24.277000    -15.504000
C          -9.394000    -23.270000    -14.638000
C          -7.916000    -18.992000    -14.886000
C          -3.261000    -23.017000    -12.904000
C          -7.005000    -18.935000    -11.526000
C          -8.546000    -24.344000    -14.622000
C          -3.685000    -20.354000    -11.989000
C          -7.685000    -20.837000    -16.470000
C          -8.900000    -22.360000    -10.759000
C          -3.637000    -22.835000    -11.604000
C          -7.442000    -24.368000    -10.545000
C          -7.764000    -22.035000    -10.056000
C          -5.005000    -21.576000    -10.316000
C          -4.706000    -19.340000    -11.981000
C          -9.218000    -24.057000    -12.450000
C          -6.040000    -18.411000    -13.706000
C          -6.619000    -25.144000    -11.527000
C          -5.164000    -24.620000    -11.780000
C          -7.158000    -18.407000    -12.804000
C          -4.265000    -21.357000    -15.842000
C          -5.703000    -19.593000    -15.826000
C          -6.318000    -20.602000    -16.574000
C          -8.233000    -22.135000    -16.392000
C          -4.844000    -24.828000    -13.105000
C          -8.718000    -23.684000    -11.210000
C          -9.277000    -22.194000    -15.560000
C          -3.906000    -21.533000    -11.116000
C          -9.786000    -23.066000    -13.303000
C          -7.279000    -20.709000    -10.196000
C          -4.048000    -23.575000    -14.982000
C          -8.470000    -20.100000    -15.575000
C          -6.844000    -23.193000    -10.015000
C          -5.891000    -23.015000    -16.438000
C          -5.884000    -20.475000    -10.241000
C          -9.603000    -21.427000    -11.592000
C          -3.990000    -19.644000    -14.142000
C          -3.337000    -20.620000    -13.340000
C          -9.122000    -20.166000    -11.712000
C          -3.857000    -24.020000    -13.696000
C          -4.573000    -23.659000    -10.997000
C          -3.538000    -22.268000    -15.043000
C          -7.093000    -25.366000    -12.903000
C          -9.979000    -20.696000    -13.736000
C          -5.472000    -22.888000    -10.225000
C          -7.969000    -19.760000    -10.988000
C          -5.217000    -23.929000    -15.656000
C          -8.292000    -18.768000    -13.593000
C          -7.296000    -23.216000    -16.396000
C          -6.530000    -18.794000    -14.968000
C         -10.150000    -21.756000    -12.816000
C          -9.283000    -19.678000    -13.046000
C          -8.361000    -24.838000    -13.278000
C          -6.018000    -25.155000    -13.752000
C          -4.444000    -20.034000    -15.415000
C          -9.454000    -20.946000    -15.034000
C          -5.766000    -19.304000    -11.075000
C          -3.081000    -21.934000    -13.805000
C          -4.791000    -18.884000    -13.300000
C          -6.193000    -24.721000    -15.072000
C          -5.403000    -21.710000    -16.547000
O          -8.207000    -28.362000     -4.106000
C          -7.765000    -29.647000     -3.532000
H          -8.226000    -30.504000     -4.039000
H          -8.042000    -29.662000     -2.471000
H          -6.707000    -29.919000     -3.632000
O         -10.188000    -28.224000     -3.030000
C          -9.361000    -27.766000     -3.761000
C          -9.424000    -26.420000     -4.490000
H         -10.138000    -25.810000     -3.924000
H          -9.959000    -26.572000     -5.436000
C          -8.082000    -25.749000     -4.635000
H          -7.675000    -25.672000     -3.619000
H          -7.441000    -26.288000     -5.344000
C          -8.279000    -24.332000     -5.303000
H          -7.277000    -23.960000     -5.551000
H          -8.900000    -24.357000     -6.207000
C          -8.817000    -23.181000     -4.347000
C          -8.135000    -23.152000     -3.019000
C          -8.653000    -23.792000     -1.909000
H          -9.589000    -24.328000     -2.033000
C          -8.157000    -23.544000     -0.622000
H          -8.560000    -24.077000      0.235000
C          -7.072000    -22.694000     -0.436000
H          -6.612000    -22.418000      0.508000
C          -6.453000    -22.072000     -1.547000
H          -5.629000    -21.388000     -1.365000
C          -7.007000    -22.269000     -2.855000
H          -6.510000    -21.790000     -3.694000
C         -13.555000    -21.120000     -2.486000
C         -12.039000    -19.186000     -2.465000
C         -13.928000    -16.873000     -5.961000
C         -13.570000    -23.166000     -7.084000
C         -11.448000    -17.971000     -8.313000
C         -12.252000    -20.584000     -2.276000
C         -13.116000    -21.080000     -8.964000
C         -14.860000    -18.153000     -4.160000
C          -9.234000    -19.480000     -5.266000
C         -12.323000    -22.868000     -7.632000
C          -9.234000    -21.887000     -4.926000
C          -9.197000    -20.040000     -6.513000
C         -10.789000    -21.411000     -8.366000
C         -12.922000    -19.748000     -9.167000
C         -10.264000    -20.277000     -3.233000
C         -13.923000    -17.905000     -7.979000
C         -10.315000    -22.913000     -4.498000
C         -11.264000    -23.414000     -5.501000
C         -12.639000    -17.366000     -7.785000
C         -16.053000    -20.801000     -6.173000
C         -15.683000    -18.526000     -6.369000
C         -15.711000    -18.840000     -5.007000
C         -14.352000    -18.891000     -3.055000
C         -12.565000    -23.532000     -4.924000
C          -9.386000    -20.492000     -4.313000
C         -13.137000    -18.333000     -2.820000
C         -12.091000    -21.923000     -8.520000
C         -10.811000    -19.002000     -3.031000
C          -9.810000    -19.361000     -7.641000
C         -14.964000    -22.849000     -5.262000
C         -14.001000    -17.142000     -4.559000
C          -9.285000    -21.500000     -6.414000
C         -15.406000    -20.903000     -3.831000
C         -10.582000    -20.058000     -8.588000
C          -9.900000    -18.279000     -5.137000
C         -14.984000    -20.012000     -8.178000
C         -14.377000    -21.243000     -8.336000
C         -10.436000    -17.562000     -6.171000
C         -13.749000    -23.471000     -5.730000
C         -11.150000    -23.019000     -6.852000
C         -15.506000    -22.129000     -6.357000
C         -11.277000    -22.504000     -3.384000
C         -11.663000    -17.050000     -4.296000
C         -10.195000    -22.068000     -7.331000
C         -10.372000    -18.094000     -7.466000
C         -14.903000    -22.244000     -3.985000
C         -12.657000    -16.764000     -6.507000
C         -14.592000    -20.227000     -2.925000
C         -14.698000    -17.648000     -6.786000
C         -10.597000    -17.901000     -3.962000
C         -11.545000    -16.888000     -5.652000
C         -11.088000    -21.258000     -2.737000
C         -12.579000    -22.964000     -3.647000
C         -15.837000    -19.762000     -7.063000
C         -12.900000    -17.263000     -3.732000
C         -11.602000    -19.219000     -8.930000
C         -14.622000    -22.299000     -7.459000
C         -14.057000    -19.055000     -8.671000
C         -13.734000    -22.310000     -3.214000
C         -15.936000    -20.212000     -4.910000
$end

--------------------------------------------------------------

             Standard Nuclear Orientation (Angstroms)
    I     Atom           X                Y                Z
 ----------------------------------------------------------------
    1      O       4.9211680635     8.1118916523    -1.0924578013
    2      C       5.5262978554     9.3054525946    -0.9210658181
    3      H       4.8872218223    10.0383038863    -1.4280774631
    4      H       6.5203225448     9.2653303379    -1.3838855685
    5      H       5.6780122912     9.6760341179     0.1006998422
    6      O       3.3415022406     8.7985449016     0.4311744388
    7      C       3.8105901570     7.9473825735    -0.2802180112
    8      C       3.1940311956     6.5530807662    -0.3683004560
    9      H       3.3446069166     6.2275169025    -1.4057208736
   10      H       2.1483681153     6.8544726148    -0.2276851081
   11      C       3.5658359604     5.3747788971     0.5891419297
   12      H       4.6450284803     5.1914479273     0.6686797230
   13      H       3.3398445745     5.6841068443     1.6163216193
   14      C       2.8653757504     4.0774307001     0.2357792974
   15      H       1.7767566045     4.1473536800     0.1179823018
   16      H       3.2317679174     3.7083446251    -0.7304858056
   17      C       3.0688054082     2.8384249577     1.1644838492
   18      C       2.4063854375     3.0131502352     2.4981797891
   19      C       0.9916594024     2.8134333171     2.6201527293
   20      H       0.3643704061     2.5230045349     1.7827898226
   21      C       0.4001715992     2.8298140673     3.8502888396
   22      H      -0.6767094420     2.7701651065     3.9795916802
   23      C       1.1374229824     3.1675943461     5.0068007856
   24      H       0.6254338619     3.3157688635     5.9528517635
   25      C       2.5034976605     3.3977382538     4.9234056078
   26      H       3.1351545120     3.5671148275     5.7910387090
   27      C       3.1454697927     3.3218829713     3.6423272505
   28      H       4.2125597347     3.5120105739     3.5714149779
   29      C       6.6802853639    -0.8922823767     2.5885320629
   30      C       4.6590830184    -1.9900727483     3.1250126110
   31      C       4.8513549314    -5.0671304464    -0.1979408093
   32      C       6.8073852986     0.7549323679    -2.2167285119
   33      C       2.7212197514    -3.2302009455    -2.2500090645
   34      C       5.3560985151    -0.8131394063     3.0821954905
   35      C       5.3026975414    -1.1320799814    -3.7279098865
   36      C       6.6061904921    -4.2241826212     1.2773331038
   37      C       1.7054136122    -0.7506189465     0.7046059692
   38      C       5.5274040780     1.0810609082    -2.5628329039
   39      C       2.7893780243     1.4910300273     0.6441491120
   40      C       1.7463099799    -0.2904618069    -0.5903507459
   41      C       3.4629204373     0.1793617194    -2.7635687266
   42      C       4.4982719418    -2.3095071939    -3.5348668498
   43      C       3.1955269049    -0.2696697967     2.5454384684
   44      C       4.8949377847    -4.3343554254    -2.3683044432
   45      C       4.1983921080     1.9521301511     0.8583802666
   46      C       5.1381642990     1.9167078426    -0.3950883167
   47      C       3.5331120955    -4.3081629734    -1.9119178222
   48      C       8.2046207685    -2.3138664468    -1.2039763822
   49      C       7.0001984548    -4.2430311679    -1.1174525771
   50      C       7.4356254220    -3.9860006451     0.1864449137
   51      C       6.4877952739    -3.3240695294     2.3575974207
   52      C       6.4105315806     1.5805051527     0.0164189762
   53      C       2.4336783610     0.1793341356     1.4755266660
   54      C       5.2368738948    -3.2534028688     2.8221864070
   55      C       4.7238255287     0.1558260501    -3.2726997734
   56      C       3.3377756751    -1.6711197135     2.7645672391
   57      C       1.8712962023    -1.2642300032    -1.6146822080
   58      C       8.1001690969    -0.0342566472    -0.4978021757
   59      C       5.2957085716    -4.6808179671     1.0914829033
   60      C       2.4824223644     0.9915665935    -0.6502401266
   61      C       8.0632528874    -1.8116814724     1.1360837396
   62      C       2.6707097594    -0.9879713497    -2.7493297836
   63      C       1.7650970182    -2.1427732845     1.0465579985
   64      C       6.6791850758    -2.8186574338    -3.0255762304
   65      C       6.6235334095    -1.4234541789    -3.2948340427
   66      C       1.8850996529    -3.0557791301     0.0526255593
   67      C       7.2873307886     0.9932309082    -0.9123684649
   68      C       4.6708739404     1.7066163311    -1.6692124384
   69      C       8.1812550305    -0.9470473712    -1.5619018729
   70      C       5.0521066954     1.3261058469     1.8814154438
   71      C       3.0889733009    -3.8670417077     1.7859651884
   72      C       3.3841992062     1.1252157267    -1.7403985723
   73      C       1.9029962352    -2.6457537500    -1.3075141026
   74      C       8.0230744105    -0.4688612013     0.8255754313
   75      C       3.5684224846    -4.7784081812    -0.5641713249
   76      C       7.2537354845    -2.1196607170     2.2612594411
   77      C       5.6819575539    -4.7819816353    -1.2914276355
   78      C       2.4781342212    -2.6365204963     2.1205308277
   79      C       2.7445448144    -4.1300989121     0.4409707925
   80      C       4.5039360457     0.2791023253     2.6754718427
   81      C       6.3038041712     1.1347778220     1.3178606409
   82      C       7.4972187675    -3.2531363481    -1.9669006652
   83      C       4.4677257079    -4.0848891793     2.0589363943
   84      C       3.1605654566    -2.2872005782    -3.1401824513
   85      C       7.4038441167    -0.4822935934    -2.5781130700
   86      C       5.3965368349    -3.3242677216    -3.1909144501
   87      C       7.1549624339     0.1059885295     1.7403570355
   88      C       8.1697836331    -2.7528899695     0.1085489397
   89      O      -1.9253165156     7.4698307669     0.7977040242
   90      C      -1.8616407906     8.9363283747     0.9439748979
   91      H      -1.5572741282     9.2358426200     1.9547523965
   92      H      -2.8559569834     9.3458963385     0.7288833086
   93      H      -1.1127993673     9.4805893374     0.3554474753
   94      O      -3.9531015148     7.1665616018     1.7449615449
   95      C      -2.9884152696     6.7427222399     1.1812287680
   96      C      -2.7218492549     5.2868748802     0.7855306193
   97      H      -3.7061233542     4.8050668927     0.7492324015
   98      H      -2.2566428526     4.7828997894     1.6421735502
   99      C      -1.9625467957     5.1427571690    -0.5086563304
  100      H      -2.5422305260     5.6955826165    -1.2584461660
  101      H      -0.9223224199     5.4747305762    -0.3999829436
  102      C      -1.8362915559     3.6107738047    -0.8692233645
  103      H      -1.1332102437     3.5429629123    -1.7088484900
  104      H      -1.4798019050     2.9930581806    -0.0356620071
  105      C      -3.1347110046     2.9322776534    -1.4872289535
  106      C      -3.7907345669     3.7655368191    -2.5383527562
  107      C      -4.8377816091     4.6218381857    -2.2546901732
  108      H      -5.1762094004     4.6727827977    -1.2243313636
  109      C      -5.6137970716     5.1929598388    -3.2722898290
  110      H      -6.4161376926     5.8846190640    -3.0297943773
  111      C      -5.3009140346     4.9676756815    -4.6085803115
  112      H      -5.8331555866     5.3436997870    -5.4770483894
  113      C      -4.1907226372     4.1608353276    -4.9562147524
  114      H      -3.9929748516     3.9774439985    -6.0084597019
  115      C      -3.4421626030     3.5182026958    -3.9154120931
  116      H      -2.5884647509     2.9116757856    -4.2047148492
  117      C      -7.7720389199     0.4678397345     0.1194513352
  118      C      -7.2970678261    -0.5649799519    -2.0592498732
  119      C      -6.1062704597    -4.7338074308    -0.5285032962
  120      C      -3.7440832536    -0.0155455562     3.0976818185
  121      C      -2.5890313016    -4.0699945602    -0.8047082519
  122      C      -7.2880029226     0.5851921018    -1.2151432007
  123      C      -2.4188988907    -2.4284396462     2.3809248762
  124      C      -7.8096384153    -3.1800149547     0.1309597801
  125      C      -3.3990689367    -0.6503770232    -2.8327962507
  126      C      -2.6471656300    -0.0773097750     2.2391517327
  127      C      -3.1817241171     1.4648701076    -1.6547725647
  128      C      -2.2817572610    -0.7629645555    -2.0524651241
  129      C      -1.4704595420    -1.0676837673     0.6114898704
  130      C      -2.4146688064    -3.5381135189     1.5924611785
  131      C      -5.4396703029     0.5845472440    -2.4584887323
  132      C      -4.3046934372    -4.8329380165     0.8433080462
  133      C      -3.9407474750     2.1206135047    -0.4722730343
  134      C      -3.6009651726     1.7291618788     0.9021085036
  135      C      -3.8196987774    -4.7321159623    -0.4725293653
  136      C      -6.3827430881    -2.3816303349     3.2636700642
  137      C      -6.4718351933    -4.1932024290     1.8279785428
  138      C      -7.4983287712    -3.3133463776     1.4721860985
  139      C      -8.2364136068    -1.8878497320    -0.2836544663
  140      C      -4.7884330595     1.6392236303     1.6903249262
  141      C      -4.0345493630     0.5631293474    -2.5516843225
  142      C      -7.8276863658    -1.8074896236    -1.5756677384
  143      C      -2.0028923893    -1.1781164177     1.9097132306
  144      C      -6.1740240071    -0.5490850207    -2.8343085367
  145      C      -1.8860096908    -2.0545656614    -1.5192255496
  146      C      -6.0546435814     0.0882289192     3.2157954505
  147      C      -7.1995308613    -3.8876306729    -0.8919047114
  148      C      -2.1165716163     0.4393747104    -1.2301276068
  149      C      -7.8319364056    -0.9818228362     1.9019231365
  150      C      -1.4479291109    -2.1987373454    -0.1903531211
  151      C      -4.1301561926    -1.7994299902    -3.0513979510
  152      C      -4.3399215341    -3.5833815630     2.8538151093
  153      C      -3.6142332490    -2.4440620666     3.1438178646
  154      C      -3.7713894456    -3.0512377502    -2.6333013672
  155      C      -4.8538853500     0.8005030164     2.8511335794
  156      C      -2.5494691428     0.8186274219     1.1460451800
  157      C      -5.6518903670    -1.1965254931     3.6611997034
  158      C      -5.4606261295     1.9707927105    -0.4370082451
  159      C      -6.0659401869    -3.0229578413    -2.7657216921
  160      C      -1.8083882327     0.1560768978     0.1176032089
  161      C      -2.6061907710    -3.1995108127    -1.8687935859
  162      C      -7.1476923225     0.2124485825     2.3268134908
  163      C      -4.9588656016    -4.6325967822    -1.3022322515
  164      C      -8.2090455300    -0.8249979083     0.5701563963
  165      C      -5.7474597219    -4.7570441607     0.7924300515
  166      C      -5.5377792492    -1.8030368917    -3.2184378289
  167      C      -4.9611967150    -3.7449943934    -2.3954392609
  168      C      -6.1119312308     1.3251813690    -1.5167460192
  169      C      -5.9176303297     1.7673167812     0.8766575066
  170      C      -5.7651502616    -3.5653814000     2.8954452462
  171      C      -7.1867933107    -3.0193521896    -1.9674051671
  172      C      -1.9406180225    -3.3965544018     0.2383390014
  173      C      -4.2350138644    -1.2626783881     3.5478649310
  174      C      -3.6052963356    -4.2671147899     1.8482994743
  175      C      -7.0623667240     1.0336912709     1.1938360025
  176      C      -7.4289695499    -2.2313549751     2.3479154536
 ----------------------------------------------------------------

    9   -5804.2176069842      8.49E-06 Convergence criterion met
 Total energy in the final basis set = -5804.2176069842

                    Orbital Energies (a.u.)
 --------------------------------------------------------------

 Alpha MOs
 -- Occupied --
-19.201 -19.192 -19.149 -19.134 -10.326 -10.314 -10.250 -10.248
-10.244 -10.241 -10.240 -10.240 -10.240 -10.238 -10.237 -10.235
-10.231 -10.230 -10.230 -10.229 -10.228 -10.227 -10.224 -10.224
-10.223 -10.222 -10.222 -10.221 -10.221 -10.221 -10.221 -10.221
-10.221 -10.220 -10.220 -10.220 -10.220 -10.219 -10.219 -10.219
-10.218 -10.218 -10.218 -10.217 -10.217 -10.217 -10.217 -10.216
-10.216 -10.216 -10.216 -10.216 -10.216 -10.216 -10.215 -10.215
-10.215 -10.215 -10.215 -10.215 -10.215 -10.215 -10.215 -10.215
-10.215 -10.215 -10.215 -10.215 -10.214 -10.214 -10.214 -10.214
-10.214 -10.214 -10.214 -10.214 -10.214 -10.214 -10.214 -10.213
-10.213 -10.213 -10.213 -10.213 -10.213 -10.213 -10.213 -10.213
-10.213 -10.213 -10.213 -10.213 -10.212 -10.212 -10.212 -10.212
-10.212 -10.212 -10.212 -10.212 -10.212 -10.212 -10.212 -10.212
-10.212 -10.212 -10.212 -10.211 -10.211 -10.211 -10.211 -10.211
-10.211 -10.211 -10.211 -10.210 -10.210 -10.210 -10.210 -10.210
-10.210 -10.210 -10.209 -10.209 -10.208 -10.208 -10.208 -10.208
-10.207 -10.206 -10.206 -10.206 -10.206 -10.205 -10.205 -10.205
-10.203 -10.203 -10.203 -10.203 -10.203 -10.203 -10.201 -10.201
-10.201 -10.200 -10.199 -10.199  -1.118  -1.097  -1.036  -1.016
 -0.986  -0.984  -0.971  -0.967  -0.966  -0.963  -0.963  -0.962
 -0.941  -0.934  -0.933  -0.929  -0.927  -0.925  -0.924  -0.923
 -0.922  -0.921  -0.904  -0.900  -0.892  -0.890  -0.889  -0.885
 -0.879  -0.876  -0.857  -0.854  -0.845  -0.843  -0.839  -0.839
 -0.838  -0.834  -0.823  -0.821  -0.810  -0.809  -0.801  -0.799
 -0.797  -0.797  -0.795  -0.795  -0.792  -0.790  -0.787  -0.785
 -0.773  -0.771  -0.770  -0.769  -0.768  -0.768  -0.764  -0.763
 -0.754  -0.751  -0.750  -0.743  -0.736  -0.735  -0.722  -0.716
 -0.716  -0.716  -0.715  -0.713  -0.712  -0.710  -0.710  -0.708
 -0.708  -0.707  -0.704  -0.704  -0.703  -0.703  -0.677  -0.675
 -0.660  -0.660  -0.657  -0.656  -0.651  -0.649  -0.639  -0.634
 -0.630  -0.628  -0.625  -0.624  -0.624  -0.623  -0.620  -0.618
 -0.618  -0.616  -0.614  -0.614  -0.613  -0.612  -0.610  -0.610
 -0.607  -0.606  -0.604  -0.603  -0.576  -0.571  -0.567  -0.565
 -0.564  -0.563  -0.561  -0.559  -0.558  -0.556  -0.555  -0.554
 -0.540  -0.539  -0.535  -0.534  -0.531  -0.527  -0.526  -0.524
 -0.523  -0.522  -0.522  -0.519  -0.518  -0.516  -0.515  -0.515
 -0.509  -0.503  -0.503  -0.498  -0.497  -0.495  -0.492  -0.489
 -0.489  -0.487  -0.485  -0.484  -0.482  -0.480  -0.479  -0.478
 -0.475  -0.473  -0.472  -0.472  -0.469  -0.468  -0.468  -0.467
 -0.466  -0.465  -0.465  -0.465  -0.464  -0.463  -0.463  -0.461
 -0.461  -0.457  -0.455  -0.454  -0.451  -0.447  -0.446  -0.443
 -0.443  -0.442  -0.441  -0.439  -0.438  -0.437  -0.436  -0.436
 -0.433  -0.432  -0.431  -0.429  -0.429  -0.428  -0.427  -0.426
 -0.424  -0.423  -0.423  -0.422  -0.421  -0.421  -0.420  -0.420
 -0.419  -0.418  -0.418  -0.417  -0.416  -0.414  -0.414  -0.414
 -0.414  -0.412  -0.412  -0.408  -0.404  -0.401  -0.400  -0.399
 -0.397  -0.396  -0.393  -0.392  -0.391  -0.389  -0.387  -0.384
 -0.383  -0.382  -0.376  -0.374  -0.372  -0.371  -0.368  -0.366
 -0.366  -0.365  -0.365  -0.362  -0.361  -0.361  -0.359  -0.359
 -0.358  -0.357  -0.357  -0.356  -0.356  -0.354  -0.354  -0.353
 -0.352  -0.351  -0.350  -0.349  -0.349  -0.347  -0.347  -0.346
 -0.343  -0.342  -0.342  -0.341  -0.341  -0.340  -0.338  -0.336
 -0.334  -0.332  -0.331  -0.329  -0.329  -0.327  -0.326  -0.324
 -0.316  -0.314  -0.303  -0.302  -0.288  -0.285  -0.282  -0.272
 -0.272  -0.271  -0.269  -0.269  -0.268  -0.267  -0.266  -0.264
 -0.263  -0.263  -0.260  -0.259  -0.258  -0.257  -0.257  -0.254
 -0.252  -0.250  -0.248  -0.246  -0.225  -0.223  -0.213  -0.211
 -0.208  -0.206  -0.205  -0.203  -0.202  -0.199

          Ground-State Mulliken Net Atomic Charges

     Atom                 Charge (a.u.)
  ----------------------------------------
      1 O                    -0.433371
      2 C                    -0.087331
      3 H                     0.111699
      4 H                     0.111224
      5 H                     0.122199
      6 O                    -0.449876
      7 C                     0.573153
      8 C                    -0.248218
      9 H                     0.120429
     10 H                     0.137838
     11 C                    -0.184681
     12 H                     0.110956
     13 H                     0.123123
     14 C                    -0.165159
     15 H                     0.107125
     16 H                     0.105049
     17 C                    -0.014205
     18 C                     0.085992
     19 C                    -0.107257
     20 H                     0.095857
     21 C                    -0.088159
     22 H                     0.095530
     23 C                    -0.083552
     24 H                     0.092912
     25 C                    -0.089077
     26 H                     0.094626
     27 C                    -0.114470
     28 H                     0.092026
     29 C                    -0.012722
     30 C                     0.036902
     31 C                    -0.004175
     32 C                     0.011301
     33 C                     0.025460
     34 C                    -0.021286
     35 C                    -0.038884
     36 C                     0.003285
     37 C                     0.038799
     38 C                    -0.000338
     39 C                    -0.055837
     40 C                    -0.013684
     41 C                     0.041353
     42 C                     0.017024
     43 C                    -0.014865
     44 C                    -0.022043
     45 C                    -0.090295
     46 C                     0.047305
     47 C                    -0.011453
     48 C                     0.017303
     49 C                     0.006962
     50 C                    -0.009073
     51 C                    -0.004784
     52 C                     0.023663
     53 C                     0.025055
     54 C                     0.004122
     55 C                    -0.025610
     56 C                    -0.010403
     57 C                    -0.015662
     58 C                    -0.001439
     59 C                     0.009998
     60 C                     0.027764
     61 C                    -0.014398
     62 C                    -0.033809
     63 C                     0.034278
     64 C                    -0.001138
     65 C                     0.000218
     66 C                     0.000261
     67 C                    -0.023851
     68 C                    -0.051680
     69 C                    -0.004729
     70 C                     0.017620
     71 C                    -0.031465
     72 C                     0.000340
     73 C                     0.013271
     74 C                     0.024797
     75 C                    -0.006851
     76 C                    -0.000890
     77 C                     0.006695
     78 C                    -0.036787
     79 C                     0.005434
     80 C                     0.006232
     81 C                     0.004548
     82 C                    -0.016375
     83 C                     0.015148
     84 C                    -0.013493
     85 C                     0.006953
     86 C                     0.018015
     87 C                    -0.011998
     88 C                    -0.005994
     89 O                    -0.461229
     90 C                    -0.094978
     91 H                     0.129457
     92 H                     0.135333
     93 H                     0.133206
     94 O                    -0.462611
     95 C                     0.587958
     96 C                    -0.263178
     97 H                     0.129597
     98 H                     0.133366
     99 C                    -0.174599
    100 H                     0.120749
    101 H                     0.120962
    102 C                    -0.193008
    103 H                     0.105143
    104 H                     0.106510
    105 C                     0.009179
    106 C                     0.084912
    107 C                    -0.117693
    108 H                     0.101936
    109 C                    -0.091754
    110 H                     0.097431
    111 C                    -0.076121
    112 H                     0.092556
    113 C                    -0.092845
    114 H                     0.094920
    115 C                    -0.115768
    116 H                     0.094881
    117 C                    -0.016669
    118 C                     0.003934
    119 C                    -0.024935
    120 C                    -0.013436
    121 C                    -0.024318
    122 C                    -0.026168
    123 C                    -0.011001
    124 C                     0.002142
    125 C                     0.036302
    126 C                     0.029010
    127 C                    -0.079594
    128 C                    -0.022651
    129 C                    -0.005257
    130 C                     0.002896
    131 C                     0.025710
    132 C                     0.005013
    133 C                    -0.080211
    134 C                     0.027403
    135 C                     0.006883
    136 C                     0.009659
    137 C                    -0.034756
    138 C                    -0.006092
    139 C                     0.010230
    140 C                    -0.007847
    141 C                     0.025103
    142 C                    -0.006223
    143 C                     0.012529
    144 C                    -0.006185
    145 C                     0.005701
    146 C                    -0.011574
    147 C                     0.005799
    148 C                     0.012900
    149 C                    -0.013485
    150 C                     0.006157
    151 C                     0.010055
    152 C                     0.007917
    153 C                     0.015606
    154 C                     0.018212
    155 C                    -0.009923
    156 C                    -0.052418
    157 C                    -0.011462
    158 C                     0.010045
    159 C                     0.001080
    160 C                     0.015566
    161 C                    -0.009748
    162 C                    -0.007473
    163 C                    -0.013771
    164 C                     0.012104
    165 C                     0.047136
    166 C                    -0.047872
    167 C                     0.016368
    168 C                    -0.000360
    169 C                     0.026278
    170 C                    -0.014305
    171 C                     0.005668
    172 C                     0.008580
    173 C                    -0.010043
    174 C                    -0.024446
    175 C                     0.013626
    176 C                     0.023823
  ----------------------------------------
  Sum of atomic charges =     0.000000

                    Cartesian Multipole Moments
 -----------------------------------------------------------------
    Charge (ESU x 10^10)
                 0.0000
    Dipole Moment (Debye)
         X       2.0689      Y       3.4973      Z      -1.6924
       Tot       4.4018
    Quadrupole Moments (Debye-Ang)
        XX    -818.5674     XY      16.9283     YY    -798.4543
        XZ      15.9974     YZ     -15.7894     ZZ    -799.5855

 Total job time:  877.01s(wall), 8387.05s(cpu)
        *  Thank you very much for using Q-Chem.  Have a nice day.  *
