 Q-Chem 4.4, Q-Chem, Inc., Pleasanton, CA (2016)
 Q-Chem 4.4.2 for Intel X86 Linux

User input:
--------------------------------------------------------------
$comment
SP
$end

$rem
MEM_STATIC 5000
MEM_TOTAL 20000
JOBTYPE SP
EXCHANGE B3LYP
BASIS 6-31g(d,p)
$end

$molecule
0 1
O          22.663000      6.280000     -0.755000
C          24.002000      6.711000     -0.826000
H          24.466000      6.817000      0.162000
H          24.046000      7.738000     -1.211000
H          24.564000      6.046000     -1.493000
O          22.044000      8.316000      0.039000
C          21.767000      7.173000     -0.351000
C          20.397000      6.674000     -0.618000
H          20.239000      6.533000     -1.695000
H          19.709000      7.436000     -0.232000
C          20.084000      5.405000      0.147000
H          20.647000      5.314000      1.084000
H          19.038000      5.390000      0.477000
C          20.308000      4.096000     -0.737000
H          19.646000      4.047000     -1.610000
H          21.352000      4.137000     -1.072000
C          20.024000      2.756000      0.011000
C          20.721000      2.689000      1.257000
C          22.089000      2.535000      1.230000
H          22.649000      2.392000      0.310000
C          22.809000      2.547000      2.431000
H          23.889000      2.473000      2.341000
C          22.194000      2.898000      3.612000
H          22.823000      3.051000      4.485000
C          20.839000      3.145000      3.655000
H          20.232000      3.424000      4.512000
C          20.105000      2.968000      2.453000
H          19.080000      3.323000      2.514000
C          19.958000     -2.637000     -0.386000
C          18.395000     -2.226000      1.413000
C          14.634000     -3.225000     -0.746000
C          18.766000     -0.017000     -4.505000
C          13.857000      0.099000     -1.556000
C          19.592000     -1.924000      0.787000
C          15.975000      0.239000     -4.450000
C          16.774000     -4.284000     -0.831000
C          16.688000      1.321000      0.983000
C          18.179000      1.130000     -4.051000
C          18.738000      2.037000     -0.086000
C          16.372000      2.054000     -0.185000
C          16.414000      2.045000     -2.923000
C          14.747000     -0.008000     -3.840000
C          18.631000     -0.006000      1.444000
C          14.126000     -2.009000     -2.682000
C          19.886000      1.469000     -0.795000
C          19.772000      1.322000     -2.201000
C          13.694000     -1.330000     -1.553000
C          17.660000     -3.373000     -4.010000
C          15.748000     -3.823000     -2.909000
C          16.816000     -4.376000     -2.216000
C          17.937000     -3.994000     -0.131000
C          20.353000      0.105000     -2.629000
C          18.081000      1.273000      1.055000
C          17.553000     -3.318000      1.041000
C          16.783000      1.280000     -3.990000
C          17.826000     -1.067000      1.811000
C          15.176000      1.805000     -0.828000
C          19.680000     -1.946000     -3.795000
C          15.632000     -3.787000     -0.078000
C          17.543000      2.445000     -0.810000
C          19.174000     -3.695000     -2.167000
C          15.175000      1.776000     -2.221000
C          15.839000      0.347000      1.423000
C          15.681000     -1.981000     -4.500000
C          16.505000     -0.979000     -4.895000
C          14.695000     -0.004000      0.715000
C          19.846000     -0.548000     -3.785000
C          18.624000      1.746000     -2.844000
C          18.518000     -2.314000     -4.508000
C          20.328000      0.137000     -0.378000
C          15.601000     -1.949000      1.442000
C          17.562000      2.362000     -2.219000
C          14.393000      0.716000     -0.426000
C          19.966000     -2.613000     -2.618000
C          13.975000     -2.031000     -0.353000
C          19.115000     -3.707000     -0.795000
C          14.690000     -3.209000     -2.218000
C          16.462000     -0.862000      1.868000
C          14.448000     -1.372000      0.804000
C          19.800000     -0.495000      0.750000
C          20.767000     -0.609000     -1.520000
C          16.242000     -3.180000     -4.056000
C          16.180000     -3.136000      1.032000
C          14.364000      0.716000     -2.693000
C          17.947000     -1.083000     -4.914000
C          14.591000     -1.390000     -3.848000
C          20.541000     -1.991000     -1.465000
C          17.994000     -4.054000     -2.879000
O          16.897000      1.273000     -7.361000
C          16.207000      2.504000     -7.061000
H          16.441000      3.351000     -7.717000
H          16.507000      2.834000     -6.059000
H          15.118000      2.386000     -7.004000
O          17.112000      1.434000     -9.707000
C          17.097000      0.804000     -8.688000
C          17.443000     -0.690000     -8.740000
H          17.272000     -1.046000     -9.764000
H          16.734000     -1.242000     -8.112000
C          18.813000     -1.023000     -8.227000
H          18.990000     -0.614000     -7.224000
H          18.945000     -2.107000     -8.115000
C          19.938000     -0.507000     -9.214000
H          20.052000     -1.280000     -9.983000
H          19.601000      0.464000     -9.598000
C          21.304000     -0.255000     -8.530000
C          22.014000     -1.514000     -8.270000
C          21.724000     -2.424000     -7.254000
H          20.882000     -2.200000     -6.606000
C          22.483000     -3.560000     -6.976000
H          22.149000     -4.147000     -6.125000
C          23.651000     -3.917000     -7.656000
H          24.212000     -4.841000     -7.553000
C          24.040000     -3.011000     -8.605000
H          24.920000     -3.253000     -9.193000
C          23.209000     -1.924000     -8.922000
H          23.473000     -1.216000     -9.702000
C          23.604000      2.516000     -4.281000
C          25.381000      2.555000     -5.944000
C          25.258000      6.966000     -6.955000
C          19.590000      4.472000     -6.396000
C          23.423000      6.369000     -9.868000
C          24.296000      1.861000     -5.318000
C          20.215000      6.413000     -8.306000
C          25.032000      5.808000     -4.855000
C          23.959000      2.444000     -9.604000
C          19.493000      4.121000     -7.720000
C          22.089000      1.076000     -8.796000
C          22.797000      2.970000    -10.189000
C          20.525000      4.431000     -9.624000
C          21.296000      7.022000     -8.891000
C          24.261000      1.349000     -7.499000
C          23.390000      7.802000     -7.898000
C          21.407000      0.883000     -7.469000
C          20.295000      1.890000     -7.141000
C          24.090000      7.137000     -8.896000
C          21.644000      6.503000     -4.522000
C          23.392000      7.556000     -5.509000
C          23.797000      6.566000     -4.628000
C          25.088000      4.440000     -4.470000
C          20.468000      2.324000     -5.834000
C          23.598000      1.375000     -8.744000
C          25.818000      3.796000     -5.492000
C          19.794000      5.092000     -8.643000
C          25.403000      2.128000     -7.305000
C          22.758000      4.329000    -10.519000
C          20.572000      4.272000     -4.402000
C          25.753000      6.040000     -6.038000
C          21.685000      2.275000     -9.711000
C          22.766000      4.552000     -3.618000
C          21.631000      5.052000    -10.231000
C          25.119000      3.263000     -9.389000
C          21.229000      7.592000     -6.715000
C          20.181000      6.748000     -6.950000
C          25.092000      4.605000     -9.713000
C          20.005000      3.598000     -5.440000
C          19.932000      2.897000     -8.116000
C          20.507000      5.647000     -4.764000
C          22.255000      0.940000     -6.181000
C          26.225000      4.432000     -7.807000
C          20.569000      3.063000     -9.381000
C          23.906000      5.137000    -10.259000
C          21.711000      3.718000     -3.777000
C          25.233000      6.588000     -8.330000
C          23.951000      3.799000     -3.878000
C          24.111000      7.711000     -6.668000
C          25.840000      3.098000     -8.245000
C          25.786000      5.387000     -8.744000
C          23.629000      1.135000     -6.242000
C          21.558000      1.754000     -5.280000
C          21.984000      7.498000     -5.487000
C          26.279000      4.773000     -6.430000
C          22.008000      6.361000     -9.911000
C          19.888000      5.752000     -5.991000
C          21.942000      7.780000     -7.896000
C          22.213000      2.457000     -4.241000
C          22.757000      5.919000     -3.990000
$end

--------------------------------------------------------------

             Standard Nuclear Orientation (Angstroms)
    I     Atom           X                Y                Z
 ----------------------------------------------------------------
    1      O      -1.7219697667    -5.9339022734     0.2259938278
    2      C      -2.7670166850    -6.4522074805     1.0152717578
    3      H      -2.4784381480    -7.3612631439     1.5565814925
    4      H      -3.5782825647    -6.8166281669     0.3718937695
    5      H      -3.1497922950    -5.6647583754     1.6758508517
    6      O      -1.9582588560    -7.6606304876    -1.2305329109
    7      C      -1.4312970935    -6.5921184093    -0.8901342632
    8      C      -0.5416470315    -5.7717731986    -1.7461403979
    9      H      -1.0430136249    -4.8433217925    -2.0484374796
   10      H      -0.3121425915    -6.3815218492    -2.6284772356
   11      C       0.7890695924    -5.4793078842    -1.0849200817
   12      H       1.0939899896    -6.2494000148    -0.3657534377
   13      H       1.6041670535    -5.4806766784    -1.8189876912
   14      C       0.8097010263    -4.0508588374    -0.3748351116
   15      H       0.6760858218    -3.2187277591    -1.0766034820
   16      H      -0.0211988794    -4.0615604352     0.3416373740
   17      C       2.1510113886    -3.7078358306     0.3455687533
   18      C       2.5574670782    -4.7540092516     1.2305144836
   19      C       1.8347359244    -4.9459445637     2.3866673780
   20      H       1.0181253980    -4.2954081156     2.6873309407
   21      C       2.1579513068    -6.0130779445     3.2338410109
   22      H       1.5194483921    -6.1430387158     4.1029786444
   23      C       3.0571690943    -6.9762744765     2.8340325426
   24      H       3.1543722968    -7.8659939627     3.4505791939
   25      C       3.7327678025    -6.8573740128     1.6389124376
   26      H       4.4649308317    -7.5352815112     1.2086593467
   27      C       3.5049272499    -5.6831681486     0.8745707137
   28      H       3.9440252184    -5.7196397151    -0.1185223327
   29      C       4.8169382294    -0.0242724711     3.2731290099
   30      C       6.6133332286    -1.2730020478     2.2426289123
   31      C       7.9741575731     1.8125878924    -0.6611091654
   32      C       1.5544378909     1.6837159832    -0.1459778883
   33      C       6.1483427828     0.5145457935    -3.3611632502
   34      C       5.3748437851    -1.2639729717     2.8606510594
   35      C       3.0599150282     2.1117524971    -2.4716101317
   36      C       7.2530324653     2.0558159390     1.6036479289
   37      C       5.4399499345    -2.7847345150    -1.2240401796
   38      C       1.5627365162     0.7596644295    -1.1521358574
   39      C       3.2148772271    -2.8958822156    -0.2781994767
   40      C       4.5074398976    -2.2991583579    -2.1706181356
   41      C       2.7910262065    -0.2573309837    -2.7897740245
   42      C       4.2770359550     2.0872765003    -3.1491871202
   43      C       5.3135410401    -2.7374616004     1.1698029780
   44      C       6.4188518814     2.6132470047    -2.2182813432
   45      C       2.4168007970    -2.2698109725     0.7774130518
   46      C       1.6893700508    -1.1017182909     0.4341274613
   47      C       7.0056256743     1.4425586745    -2.6737935269
   48      C       4.2868088300     3.6616156225     1.0172327841
   49      C       6.3104642146     3.5514231218     0.0358452475
   50      C       6.4194406862     3.1386606049     1.3566151871
   51      C       6.8623803069     1.0893059496     2.5201185129
   52      C       1.7379461574    -0.1519709836     1.4817220460
   53      C       4.7076891768    -3.1225510071    -0.0849127941
   54      C       7.4497528845    -0.1224546115     2.1143528197
   55      C       2.3248024978     0.9350103325    -2.3198456904
   56      C       6.5701588536    -2.1667748825     1.2303285156
   57      C       4.9305818438    -1.3934318562    -3.1227086762
   58      C       2.4959457657     2.1533382483     1.8423769216
   59      C       8.1127601068     1.4399119465     0.6037916121
   60      C       3.2371193652    -2.3406638771    -1.6235257880
   61      C       4.7285274839     2.1446602123     2.8327932800
   62      C       4.0832295436    -0.3343081143    -3.4413651977
   63      C       6.7207974045    -2.3130680252    -1.2301623589
   64      C       4.3813430780     3.6034831139    -1.4489158098
   65      C       3.1278670126     3.0863237905    -1.4675970233
   66      C       7.1280531432    -1.3067228984    -2.0988471401
   67      C       1.6615121905     1.2343195436     1.1781591644
   68      C       1.7262142466    -0.6276181427    -0.8639482510
   69      C       2.9195311837     3.1781065145     0.9680415201
   70      C       3.1304667486    -1.8481549585     1.9842121715
   71      C       8.0932327072    -0.8379942154    -0.1035747700
   72      C       2.3971058190    -1.2403301944    -1.8995222174
   73      C       6.2111405368    -0.8363471623    -3.0205319773
   74      C       3.4161442620     1.6265332939     2.7299158038
   75      C       7.9610787794     0.9209558087    -1.7652772560
   76      C       5.6192773690     1.1403886758     3.1226420734
   77      C       7.0210241799     2.8897486367    -0.9796016548
   78      C       7.2820014992    -2.0300441774     0.0554435160
   79      C       8.0545214964    -0.4621685697    -1.4916088208
   80      C       4.4705644981    -2.1767278199     2.2004756598
   81      C       2.5673078170    -0.6274389277     2.4803022740
   82      C       4.9723146622     3.8949785853    -0.2179645611
   83      C       8.1381301625     0.0799974163     0.9296655615
   84      C       4.8227579060     0.8639561313    -3.5875349580
   85      C       2.3408197151     2.8404655435    -0.2798886105
   86      C       5.0984219177     2.9925422575    -2.4857543737
   87      C       3.4680661597     0.2465376998     3.1038600201
   88      C       5.1583058061     3.1671118135     1.9394241978
   89      O       0.1735119517     3.4322950252    -3.0355300827
   90      C       0.1009322959     2.5940005968    -4.2074753224
   91      H      -0.8918297418     2.5017697426    -4.6640035318
   92      H       0.3732924223     1.5713968111    -3.9193686427
   93      H       0.8264845470     2.8706973642    -4.9821409470
   94      O      -1.4901941279     5.0359473121    -3.5215788700
   95      C      -0.5142445663     4.6719123822    -2.9295594251
   96      C       0.0503684332     5.5669123581    -1.8184144283
   97      H      -0.2960848041     6.5931286654    -1.9956240359
   98      H       1.1422018985     5.6026921862    -1.9100031169
   99      C      -0.2434320248     5.0829937197    -0.4290037467
  100      H       0.0583049032     4.0379755155    -0.2823382115
  101      H       0.3276155251     5.6473466946     0.3196179305
  102      C      -1.7782346213     5.2441644150    -0.0762219492
  103      H      -1.9085964705     6.2763469789     0.2694526712
  104      H      -2.3395551188     4.9999035166    -0.9867832665
  105      C      -2.2754954054     4.2676049037     1.0175692711
  106      C      -1.8524272502     4.7004998677     2.3556261780
  107      C      -0.5707038082     4.5757768625     2.8904954986
  108      H       0.1966072376     4.1413892455     2.2567880289
  109      C      -0.2302542367     4.9072688883     4.2012464766
  110      H       0.8024202051     4.7137816579     4.4777825302
  111      C      -1.1343212124     5.3752327836     5.1592369232
  112      H      -0.9012511499     5.7495541923     6.1515412258
  113      C      -2.4294173273     5.4300801303     4.7205162582
  114      H      -3.1718386655     5.8223275427     5.4087462518
  115      C      -2.7264496309     5.1745962245     3.3717691417
  116      H      -3.7392750259     5.2551597871     2.9882926344
  117      C      -2.4436082119    -1.1581166064     2.2648567995
  118      C      -4.5187974615    -0.3406123526     3.2395851584
  119      C      -7.4252120759    -2.3155821622     0.3853918678
  120      C      -2.4845068627     0.1039682692    -2.5118393460
  121      C      -7.8554576502     0.6477995474    -1.4152914996
  122      C      -3.1359283709    -0.1297854653     2.9330527750
  123      C      -5.0627429403     0.1764611061    -3.5859201235
  124      C      -5.3763320218    -3.1095661391     1.3721643686
  125      C      -5.9089441363     2.7838965143     1.3069854681
  126      C      -3.0621941124     1.3345177113    -2.7057762227
  127      C      -3.6018767959     3.4571434996     0.8116403526
  128      C      -5.8824430115     3.1540413664    -0.0463199220
  129      C      -5.0020007755     2.3305864070    -2.5287528816
  130      C      -6.3725988217    -0.0109489794    -3.2242268420
  131      C      -4.1947033447     1.8277536325     2.6738882803
  132      C      -7.3790951849    -1.7126350652    -1.7852985824
  133      C      -2.2836699847     2.7401146920     0.7043906809
  134      C      -1.9764223835     2.1160952579    -0.6646877162
  135      C      -8.0465226014    -0.7089931960    -1.0957533394
  136      C      -3.5885823986    -3.0291405175    -1.6060802493
  137      C      -5.7684478353    -3.3441866537    -1.0699696168
  138      C      -4.9281338338    -3.4747038629     0.0241618364
  139      C      -4.4409519055    -2.5544728968     2.2885270318
  140      C      -1.4972843703     0.8292166538    -0.4624397922
  141      C      -4.5982764395     2.8911510035     1.8392717284
  142      C      -5.1517276994    -1.5527934463     2.9839089766
  143      C      -4.3251201668     1.3491355653    -3.2444552547
  144      C      -5.1474687852     0.9382744840     3.1735940534
  145      C      -6.7887311106     2.5596504068    -0.9309911992
  146      C      -1.7077435077    -1.4821548381    -1.1475768425
  147      C      -6.6485376150    -2.5333029775     1.5223898573
  148      C      -4.5752176505     3.4821570192    -0.4090250006
  149      C      -2.6349318206    -2.7375985785     0.6048143373
  150      C      -6.3462889183     2.1464742255    -2.1595400789
  151      C      -6.8803793013     1.8496588293     1.8030698040
  152      C      -5.2890722827    -1.9780232315    -3.0794714415
  153      C      -4.3812303383    -1.0384601243    -3.4781055738
  154      C      -7.7808020206     1.2587093294     0.9389595013
  155      C      -1.6652857017    -0.1573698760    -1.4579816406
  156      C      -2.9082520424     2.2967456382    -1.7580778235
  157      C      -2.6274139187    -2.0567802249    -2.0694803081
  158      C      -2.0042497365     1.5509870252     1.6473629588
  159      C      -7.1599562519    -0.3125888790     2.3853434310
  160      C      -4.1477195450     2.9944787371    -1.6559072175
  161      C      -7.7195004142     1.6013746423    -0.4272610505
  162      C      -1.6812815840    -1.8594926973     0.2132236229
  163      C      -8.0615977477    -1.0462779080     0.2511756725
  164      C      -3.0774444575    -2.3396596801     1.9027593281
  165      C      -6.9835922310    -2.7372583361    -0.8716539217
  166      C      -6.4987441118     0.9355593959     2.7382589870
  167      C      -7.9967409705    -0.1106825755     1.2710094688
  168      C      -2.9374950676     1.1648833214     2.6010919989
  169      C      -1.4780743546     0.5259764647     0.8519392866
  170      C      -4.9127966006    -3.0069413153    -2.1378827904
  171      C      -6.5193194605    -1.5667902041     2.5639198508
  172      C      -7.0627063299     1.0039236329    -2.5328150921
  173      C      -3.0872773399    -1.0661468121    -2.9102454807
  174      C      -6.5319818058    -1.3739390549    -2.9099656156
  175      C      -1.5860608493    -0.8375269618     1.2151917098
  176      C      -3.5887969232    -3.3123749599    -0.2709296193
 ----------------------------------------------------------------

    9   -5804.2233333952      9.73E-06 Convergence criterion met
 Total energy in the final basis set = -5804.2233333952

                    Orbital Energies (a.u.)
 --------------------------------------------------------------

 Alpha MOs
 -- Occupied --
-19.202 -19.192 -19.149 -19.132 -10.325 -10.314 -10.250 -10.246
-10.245 -10.243 -10.241 -10.235 -10.233 -10.232 -10.231 -10.231
-10.230 -10.229 -10.228 -10.226 -10.225 -10.225 -10.225 -10.225
-10.224 -10.224 -10.223 -10.223 -10.222 -10.222 -10.221 -10.221
-10.221 -10.221 -10.221 -10.221 -10.221 -10.220 -10.220 -10.220
-10.220 -10.220 -10.220 -10.220 -10.220 -10.220 -10.220 -10.220
-10.219 -10.219 -10.219 -10.219 -10.219 -10.219 -10.218 -10.218
-10.218 -10.218 -10.218 -10.218 -10.218 -10.217 -10.217 -10.217
-10.217 -10.217 -10.217 -10.217 -10.217 -10.217 -10.217 -10.216
-10.216 -10.216 -10.216 -10.216 -10.216 -10.216 -10.216 -10.216
-10.216 -10.216 -10.215 -10.215 -10.215 -10.215 -10.215 -10.215
-10.215 -10.215 -10.215 -10.215 -10.215 -10.215 -10.214 -10.214
-10.214 -10.214 -10.214 -10.214 -10.213 -10.213 -10.213 -10.213
-10.213 -10.212 -10.212 -10.212 -10.212 -10.212 -10.212 -10.212
-10.212 -10.211 -10.211 -10.211 -10.211 -10.211 -10.211 -10.210
-10.210 -10.210 -10.210 -10.209 -10.209 -10.209 -10.207 -10.206
-10.204 -10.203 -10.203 -10.202 -10.201 -10.200 -10.200 -10.198
-10.198 -10.198 -10.197 -10.196 -10.195 -10.195 -10.195 -10.194
-10.194 -10.194 -10.194 -10.193  -1.114  -1.085  -1.022  -1.005
 -0.990  -0.987  -0.974  -0.968  -0.968  -0.966  -0.966  -0.963
 -0.942  -0.932  -0.932  -0.931  -0.930  -0.929  -0.928  -0.927
 -0.925  -0.924  -0.902  -0.900  -0.895  -0.892  -0.890  -0.889
 -0.884  -0.877  -0.862  -0.856  -0.847  -0.845  -0.843  -0.842
 -0.841  -0.836  -0.827  -0.824  -0.812  -0.808  -0.803  -0.800
 -0.800  -0.799  -0.798  -0.796  -0.796  -0.794  -0.789  -0.786
 -0.777  -0.776  -0.774  -0.772  -0.771  -0.770  -0.768  -0.767
 -0.752  -0.746  -0.745  -0.739  -0.738  -0.733  -0.722  -0.719
 -0.717  -0.717  -0.716  -0.715  -0.714  -0.714  -0.713  -0.712
 -0.711  -0.709  -0.708  -0.706  -0.706  -0.705  -0.678  -0.674
 -0.665  -0.663  -0.660  -0.657  -0.653  -0.651  -0.637  -0.635
 -0.630  -0.628  -0.628  -0.628  -0.625  -0.625  -0.624  -0.621
 -0.618  -0.617  -0.615  -0.614  -0.614  -0.613  -0.611  -0.610
 -0.609  -0.608  -0.605  -0.604  -0.575  -0.571  -0.568  -0.567
 -0.566  -0.565  -0.562  -0.561  -0.560  -0.559  -0.558  -0.555
 -0.544  -0.539  -0.537  -0.535  -0.532  -0.530  -0.527  -0.527
 -0.526  -0.523  -0.522  -0.521  -0.520  -0.517  -0.517  -0.515
 -0.511  -0.510  -0.509  -0.503  -0.495  -0.494  -0.492  -0.490
 -0.487  -0.487  -0.486  -0.485  -0.481  -0.480  -0.478  -0.477
 -0.477  -0.476  -0.475  -0.473  -0.472  -0.471  -0.470  -0.469
 -0.468  -0.467  -0.466  -0.465  -0.463  -0.463  -0.461  -0.460
 -0.459  -0.456  -0.455  -0.454  -0.451  -0.450  -0.446  -0.446
 -0.445  -0.444  -0.441  -0.441  -0.440  -0.440  -0.436  -0.434
 -0.434  -0.433  -0.431  -0.430  -0.430  -0.428  -0.427  -0.427
 -0.426  -0.425  -0.425  -0.423  -0.422  -0.422  -0.420  -0.420
 -0.419  -0.419  -0.418  -0.418  -0.417  -0.416  -0.416  -0.415
 -0.413  -0.412  -0.412  -0.405  -0.404  -0.404  -0.402  -0.402
 -0.397  -0.397  -0.395  -0.395  -0.392  -0.390  -0.388  -0.386
 -0.382  -0.379  -0.378  -0.376  -0.374  -0.371  -0.369  -0.369
 -0.366  -0.366  -0.365  -0.364  -0.363  -0.362  -0.362  -0.361
 -0.360  -0.359  -0.358  -0.357  -0.357  -0.356  -0.355  -0.354
 -0.353  -0.352  -0.349  -0.349  -0.347  -0.347  -0.346  -0.345
 -0.343  -0.343  -0.342  -0.341  -0.340  -0.340  -0.338  -0.338
 -0.335  -0.333  -0.332  -0.331  -0.330  -0.328  -0.326  -0.326
 -0.311  -0.305  -0.302  -0.300  -0.294  -0.290  -0.275  -0.274
 -0.274  -0.273  -0.271  -0.270  -0.268  -0.267  -0.267  -0.265
 -0.265  -0.264  -0.262  -0.261  -0.258  -0.257  -0.255  -0.255
 -0.254  -0.250  -0.245  -0.245  -0.227  -0.224  -0.217  -0.215
 -0.212  -0.209  -0.207  -0.206  -0.203  -0.202

          Ground-State Mulliken Net Atomic Charges

     Atom                 Charge (a.u.)
  ----------------------------------------
      1 O                    -0.425824
      2 C                    -0.097873
      3 H                     0.124252
      4 H                     0.134241
      5 H                     0.122866
      6 O                    -0.493103
      7 C                     0.598046
      8 C                    -0.252594
      9 H                     0.137139
     10 H                     0.130541
     11 C                    -0.203839
     12 H                     0.126693
     13 H                     0.102911
     14 C                    -0.171618
     15 H                     0.099915
     16 H                     0.131712
     17 C                     0.005951
     18 C                     0.115135
     19 C                    -0.106209
     20 H                     0.091455
     21 C                    -0.088957
     22 H                     0.087552
     23 C                    -0.082527
     24 H                     0.087706
     25 C                    -0.090766
     26 H                     0.094687
     27 C                    -0.121672
     28 H                     0.088818
     29 C                    -0.007211
     30 C                     0.029227
     31 C                     0.011992
     32 C                     0.016456
     33 C                    -0.016799
     34 C                    -0.040285
     35 C                     0.016624
     36 C                     0.000195
     37 C                     0.018308
     38 C                     0.000679
     39 C                    -0.086786
     40 C                     0.023870
     41 C                    -0.009609
     42 C                    -0.016767
     43 C                    -0.027432
     44 C                     0.036051
     45 C                    -0.080298
     46 C                     0.039066
     47 C                    -0.019408
     48 C                    -0.001241
     49 C                    -0.018116
     50 C                    -0.010408
     51 C                     0.021113
     52 C                     0.025781
     53 C                     0.007751
     54 C                    -0.028730
     55 C                    -0.017993
     56 C                     0.050564
     57 C                    -0.016167
     58 C                    -0.021073
     59 C                    -0.009438
     60 C                     0.026206
     61 C                    -0.012941
     62 C                    -0.027209
     63 C                    -0.011938
     64 C                     0.015008
     65 C                     0.012684
     66 C                     0.031915
     67 C                     0.006538
     68 C                     0.019903
     69 C                    -0.025746
     70 C                     0.050970
     71 C                    -0.005065
     72 C                    -0.017995
     73 C                     0.015677
     74 C                     0.002616
     75 C                     0.000084
     76 C                     0.008807
     77 C                    -0.002892
     78 C                    -0.034823
     79 C                    -0.024918
     80 C                    -0.013766
     81 C                    -0.029398
     82 C                    -0.006904
     83 C                     0.019380
     84 C                     0.013244
     85 C                    -0.024936
     86 C                    -0.013146
     87 C                     0.006964
     88 C                     0.010784
     89 O                    -0.493003
     90 C                    -0.089080
     91 H                     0.128177
     92 H                     0.124974
     93 H                     0.118490
     94 O                    -0.433657
     95 C                     0.598514
     96 C                    -0.235613
     97 H                     0.128835
     98 H                     0.119393
     99 C                    -0.203500
    100 H                     0.130124
    101 H                     0.111086
    102 C                    -0.192970
    103 H                     0.118068
    104 H                     0.125763
    105 C                    -0.002800
    106 C                     0.128898
    107 C                    -0.130062
    108 H                     0.082103
    109 C                    -0.089154
    110 H                     0.084806
    111 C                    -0.080958
    112 H                     0.097861
    113 C                    -0.076485
    114 H                     0.089096
    115 C                    -0.137280
    116 H                     0.075726
    117 C                    -0.014310
    118 C                     0.005937
    119 C                     0.005643
    120 C                    -0.008132
    121 C                    -0.004359
    122 C                     0.005296
    123 C                     0.008955
    124 C                    -0.014555
    125 C                     0.014780
    126 C                     0.015986
    127 C                    -0.085736
    128 C                     0.018016
    129 C                     0.001455
    130 C                     0.017580
    131 C                     0.018795
    132 C                    -0.013460
    133 C                    -0.078605
    134 C                     0.017458
    135 C                     0.013758
    136 C                    -0.043092
    137 C                     0.009279
    138 C                    -0.011354
    139 C                    -0.011411
    140 C                     0.027215
    141 C                    -0.002888
    142 C                     0.004082
    143 C                    -0.014298
    144 C                    -0.017072
    145 C                    -0.016868
    146 C                    -0.022698
    147 C                    -0.001994
    148 C                     0.012556
    149 C                     0.031394
    150 C                     0.015369
    151 C                     0.027636
    152 C                     0.000722
    153 C                    -0.012610
    154 C                    -0.023118
    155 C                     0.024291
    156 C                     0.004016
    157 C                    -0.038905
    158 C                     0.013659
    159 C                     0.004597
    160 C                    -0.004509
    161 C                     0.014041
    162 C                    -0.006993
    163 C                     0.010392
    164 C                    -0.022354
    165 C                     0.004425
    166 C                    -0.016688
    167 C                    -0.001727
    168 C                     0.032880
    169 C                     0.026907
    170 C                    -0.005586
    171 C                    -0.028846
    172 C                    -0.030381
    173 C                     0.027631
    174 C                    -0.008143
    175 C                    -0.021404
    176 C                     0.046335
  ----------------------------------------
  Sum of atomic charges =     0.000000

                    Cartesian Multipole Moments
 -----------------------------------------------------------------
    Charge (ESU x 10^10)
                 0.0000
    Dipole Moment (Debye)
         X       1.7930      Y       0.7421      Z       1.8520
       Tot       2.6824
    Quadrupole Moments (Debye-Ang)
        XX    -819.7063     XY      -8.4479     YY    -814.4836
        XZ     -11.9459     YZ      -0.7326     ZZ    -800.9127

 Total job time:  941.85s(wall), 9060.31s(cpu)
        *  Thank you very much for using Q-Chem.  Have a nice day.  *
