 Q-Chem 4.4, Q-Chem, Inc., Pleasanton, CA (2016)
 Q-Chem 4.4.2 for Intel X86 Linux

User input:
--------------------------------------------------------------
$comment
SP
$end

$rem
MEM_STATIC 5000
MEM_TOTAL 20000
JOBTYPE SP
EXCHANGE B3LYP
BASIS 6-31g(d,p)
$end

$molecule
0 1
O          15.944000     16.977000      0.331000
C          17.199000     17.527000      0.317000
H          17.190000     18.497000     -0.195000
H          17.903000     16.907000     -0.252000
H          17.542000     17.659000      1.351000
O          15.791000     16.556000     -1.901000
C          15.301000     16.451000     -0.787000
C          13.998000     15.704000     -0.507000
H          13.169000     16.350000     -0.824000
H          13.915000     15.669000      0.586000
C          13.729000     14.407000     -1.220000
H          12.666000     14.328000     -1.480000
H          14.236000     14.505000     -2.188000
C          14.091000     13.146000     -0.408000
H          14.380000     13.348000      0.631000
H          13.138000     12.649000     -0.191000
C          15.194000     12.256000     -1.051000
C          16.569000     12.746000     -0.835000
C          17.101000     13.658000     -1.740000
H          16.448000     13.945000     -2.559000
C          18.453000     14.114000     -1.542000
H          18.921000     14.833000     -2.208000
C          19.256000     13.741000     -0.443000
H          20.295000     14.039000     -0.338000
C          18.640000     12.952000      0.527000
H          19.155000     12.481000      1.359000
C          17.312000     12.433000      0.310000
H          16.939000     11.594000      0.891000
C          16.811000      9.427000     -5.454000
C          17.702000      8.146000     -3.696000
C          14.783000      4.664000     -4.168000
C          11.789000     10.286000     -4.958000
C          12.648000      5.853000     -1.585000
C          17.450000      9.405000     -4.181000
C          10.772000      8.019000     -3.643000
C          15.927000      5.958000     -5.819000
C          15.398000      8.576000     -0.361000
C          11.581000     10.267000     -3.557000
C          14.963000     10.762000     -1.035000
C          13.980000      8.755000     -0.246000
C          11.630000      9.083000     -1.664000
C          10.985000      6.735000     -3.101000
C          17.014000      9.516000     -1.993000
C          12.512000      4.999000     -3.876000
C          14.932000     11.573000     -2.320000
C          13.632000     11.569000     -3.168000
C          13.113000      4.957000     -2.602000
C          13.082000      7.606000     -6.863000
C          13.496000      5.552000     -6.081000
C          14.765000      6.047000     -6.586000
C          16.848000      7.043000     -5.699000
C          13.940000     11.387000     -4.551000
C          15.994000      9.678000     -0.942000
C          17.385000      7.000000     -4.428000
C          11.042000      9.169000     -2.948000
C          17.467000      8.185000     -2.294000
C          13.031000      7.685000     -0.348000
C          13.476000     10.001000     -6.463000
C          15.953000      5.248000     -4.618000
C          13.671000     10.044000     -0.703000
C          15.352000      8.460000     -6.957000
C          11.833000      7.850000     -1.067000
C          15.855000      7.338000     -0.638000
C          11.500000      6.669000     -5.310000
C          10.988000      7.997000     -5.046000
C          14.983000      6.246000     -0.843000
C          12.964000     10.845000     -5.463000
C          12.497000     10.888000     -2.736000
C          12.594000      8.910000     -6.584000
C          15.923000     11.185000     -3.391000
C          16.600000      5.920000     -2.376000
C          12.524000     10.145000     -1.510000
C          13.558000      6.459000     -0.744000
C          14.879000      9.739000     -6.645000
C          14.508000      4.786000     -2.815000
C          16.515000      8.298000     -6.249000
C          13.534000      4.820000     -4.834000
C          16.851000      7.104000     -1.673000
C          15.452000      5.384000     -1.870000
C          17.029000     10.263000     -3.157000
C          15.345000     11.226000     -4.697000
C          12.510000      6.508000     -6.255000
C          16.869000      5.848000     -3.795000
C          11.550000      6.700000     -1.775000
C          11.509000      9.110000     -5.704000
C          11.463000      5.873000     -4.079000
C          15.771000     10.344000     -5.709000
C          14.464000      7.355000     -7.041000
O          16.897000      1.273000     -7.361000
C          16.207000      2.504000     -7.061000
H          16.441000      3.351000     -7.717000
H          16.507000      2.834000     -6.059000
H          15.118000      2.386000     -7.004000
O          17.112000      1.434000     -9.707000
C          17.097000      0.804000     -8.688000
C          17.443000     -0.690000     -8.740000
H          17.272000     -1.046000     -9.764000
H          16.734000     -1.242000     -8.112000
C          18.813000     -1.023000     -8.227000
H          18.990000     -0.614000     -7.224000
H          18.945000     -2.107000     -8.115000
C          19.938000     -0.507000     -9.214000
H          20.052000     -1.280000     -9.983000
H          19.601000      0.464000     -9.598000
C          21.304000     -0.255000     -8.530000
C          22.014000     -1.514000     -8.270000
C          21.724000     -2.424000     -7.254000
H          20.882000     -2.200000     -6.606000
C          22.483000     -3.560000     -6.976000
H          22.149000     -4.147000     -6.125000
C          23.651000     -3.917000     -7.656000
H          24.212000     -4.841000     -7.553000
C          24.040000     -3.011000     -8.605000
H          24.920000     -3.253000     -9.193000
C          23.209000     -1.924000     -8.922000
H          23.473000     -1.216000     -9.702000
C          23.604000      2.516000     -4.281000
C          25.381000      2.555000     -5.944000
C          25.258000      6.966000     -6.955000
C          19.590000      4.472000     -6.396000
C          23.423000      6.369000     -9.868000
C          24.296000      1.861000     -5.318000
C          20.215000      6.413000     -8.306000
C          25.032000      5.808000     -4.855000
C          23.959000      2.444000     -9.604000
C          19.493000      4.121000     -7.720000
C          22.089000      1.076000     -8.796000
C          22.797000      2.970000    -10.189000
C          20.525000      4.431000     -9.624000
C          21.296000      7.022000     -8.891000
C          24.261000      1.349000     -7.499000
C          23.390000      7.802000     -7.898000
C          21.407000      0.883000     -7.469000
C          20.295000      1.890000     -7.141000
C          24.090000      7.137000     -8.896000
C          21.644000      6.503000     -4.522000
C          23.392000      7.556000     -5.509000
C          23.797000      6.566000     -4.628000
C          25.088000      4.440000     -4.470000
C          20.468000      2.324000     -5.834000
C          23.598000      1.375000     -8.744000
C          25.818000      3.796000     -5.492000
C          19.794000      5.092000     -8.643000
C          25.403000      2.128000     -7.305000
C          22.758000      4.329000    -10.519000
C          20.572000      4.272000     -4.402000
C          25.753000      6.040000     -6.038000
C          21.685000      2.275000     -9.711000
C          22.766000      4.552000     -3.618000
C          21.631000      5.052000    -10.231000
C          25.119000      3.263000     -9.389000
C          21.229000      7.592000     -6.715000
C          20.181000      6.748000     -6.950000
C          25.092000      4.605000     -9.713000
C          20.005000      3.598000     -5.440000
C          19.932000      2.897000     -8.116000
C          20.507000      5.647000     -4.764000
C          22.255000      0.940000     -6.181000
C          26.225000      4.432000     -7.807000
C          20.569000      3.063000     -9.381000
C          23.906000      5.137000    -10.259000
C          21.711000      3.718000     -3.777000
C          25.233000      6.588000     -8.330000
C          23.951000      3.799000     -3.878000
C          24.111000      7.711000     -6.668000
C          25.840000      3.098000     -8.245000
C          25.786000      5.387000     -8.744000
C          23.629000      1.135000     -6.242000
C          21.558000      1.754000     -5.280000
C          21.984000      7.498000     -5.487000
C          26.279000      4.773000     -6.430000
C          22.008000      6.361000     -9.911000
C          19.888000      5.752000     -5.991000
C          21.942000      7.780000     -7.896000
C          22.213000      2.457000     -4.241000
C          22.757000      5.919000     -3.990000
$end

--------------------------------------------------------------

             Standard Nuclear Orientation (Angstroms)
    I     Atom           X                Y                Z
 ----------------------------------------------------------------
    1      O      10.8233673753     5.5588861817    -0.2834734667
    2      C      10.3977048976     6.8611507855    -0.2581879584
    3      H      10.8363971927     7.3944986106     0.5939940454
    4      H       9.3123390946     6.9262506031    -0.1114906937
    5      H      10.6957369726     7.3519086426    -1.1933684800
    6      O       9.7224587155     4.8615391617     1.5831227019
    7      C      10.4170341656     4.5787544510     0.6189034573
    8      C      10.8513442778     3.1530309888     0.2828895650
    9      H      11.6679984750     2.8840421969     0.9653607747
   10      H      11.3292228769     3.2218318914    -0.7018243429
   11      C       9.8661180050     2.0284265850     0.4488206538
   12      H      10.3715672170     1.1312953199     0.8276168884
   13      H       9.2162708785     2.3403509466     1.2759112805
   14      C       9.1369368286     1.6228428585    -0.8489873646
   15      H       9.5172277811     2.1173258018    -1.7516010196
   16      H       9.4923414642     0.6129639889    -1.0859245161
   17      C       7.5925439993     1.8112821394    -0.8102649390
   18      C       7.1465648607     3.1996141839    -1.0361360133
   19      C       7.0469719462     4.0534325487     0.0569643716
   20      H       7.3091057514     3.6211672671     1.0181987834
   21      C       6.5854224054     5.4002201255    -0.1625333376
   22      H       6.4960393814     6.1170957103     0.6484173828
   23      C       6.2875132213     5.9320665039    -1.4353760411
   24      H       5.8786518058     6.9273032841    -1.5826380331
   25      C       6.5479424090     5.1010245306    -2.5236879801
   26      H       6.2553818985     5.3137200786    -3.5476308260
   27      C       6.9448825768     3.7300805149    -2.3163597156
   28      H       6.8603215104     2.9978891558    -3.1147056555
   29      C       2.8951681174     0.6369951369     1.7509942943
   30      C       2.2107099733     0.7556167549    -0.4946352301
   31      C       1.5321174442    -3.7352709328    -0.9836229144
   32      C       6.8091934725    -2.5801264432     2.4823733060
   33      C       4.7174798410    -4.2481872295    -2.4783530820
   34      C       3.0041685874     1.2899464058     0.4896031821
   35      C       6.4816770478    -4.6014550177     0.5562978181
   36      C       0.9966572235    -2.2788326592     0.8332543262
   37      C       5.3072945622    -0.2593005199    -2.9434406142
   38      C       7.5024310215    -2.5530906877     1.2474171251
   39      C       6.7524697669     0.6941122616    -1.3863376325
   40      C       6.3599998417    -1.2113342128    -2.7398885518
   41      C       7.4643184270    -2.9962347111    -0.9411615928
   42      C       5.7194466863    -5.1732670144    -0.4828484259
   43      C       4.2496556227     1.3362258294    -1.3641447133
   44      C       3.2944474356    -5.2142817902    -0.7353289648
   45      C       6.7817568898     1.0012477879     0.1018549064
   46      C       7.2435063100    -0.1121998156     1.0796799967
   47      C       3.4143531572    -4.6027933554    -1.9993485501
   48      C       3.4398802674    -3.5550060241     2.9073583980
   49      C       2.1397888715    -4.4258543177     1.3094780483
   50      C       1.4670969545    -3.2169055156     1.7525800441
   51      C       1.1898318998    -0.8745629108     1.0081143220
   52      C       6.3617943298    -0.1873502307     2.2011136324
   53      C       5.4268806483     0.8089889168    -2.0764701145
   54      C       1.3478614924    -0.3129312662    -0.2429874099
   55      C       7.3613628081    -3.5714401842     0.3473782026
   56      C       2.9597183607     0.7988251860    -1.7027202714
   57      C       6.2016823289    -2.6249449647    -2.9202914541
   58      C       4.9467039696    -1.6859846247     3.4435508442
   59      C       1.0029766773    -2.5378613717    -0.5378916145
   60      C       7.2205102962    -0.6975776636    -1.7593647296
   61      C       2.5483138393    -1.2981151430     2.9583961803
   62      C       6.7647775075    -3.5357128251    -2.0077040752
   63      C       4.0864142795    -0.7315470150    -3.2669473116
   64      C       4.4457815990    -5.1338565978     1.3947793499
   65      C       5.7554162272    -4.6485592138     1.7752627131
   66      C       3.8230225607    -2.1148631914    -3.3761908860
   67      C       6.2377378587    -1.4024475596     2.9667718285
   68      C       7.6790151093    -1.3467037836     0.6053994482
   69      C       4.7247507078    -3.0644448818     3.2607119280
   70      C       5.4645214207     1.3608579474     0.7462439598
   71      C       1.9655990272    -1.3039353160    -2.3946473066
   72      C       7.6730919123    -1.6222787471    -0.8016816991
   73      C       4.8960845453    -3.0530248292    -3.1434126257
   74      C       3.8207820984    -0.8072451711     3.2694993786
   75      C       2.3410616419    -3.6770717779    -2.1076069638
   76      C       2.0045741262    -0.4136936166     2.0627273308
   77      C       2.1429149239    -4.6831337535    -0.1139243964
   78      C       2.8830086820    -0.2658131591    -2.5939659275
   79      C       2.5358399646    -2.4463629639    -2.8751890247
   80      C       4.2574495801     1.6550990987    -0.0182661555
   81      C       5.3164188539     0.7617621821     2.0348676030
   82      C       3.3190364852    -4.5986602251     2.0136947650
   83      C       1.1664516237    -1.3444513052    -1.1901441385
   84      C       5.8878781688    -4.5774745160    -1.7849191362
   85      C       5.8975531110    -3.6413770696     2.7284443509
   86      C       4.4467740377    -5.4909915456    -0.0274722608
   87      C       4.0490217392     0.3869618842     2.5214611606
   88      C       2.3360311579    -2.6847703334     2.7376056773
   89      O      -3.3515827047    -4.7147191017     0.1796827803
   90      C      -1.9801952145    -4.4213181650     0.5183171584
   91      H      -1.8342313742    -3.8006482982     1.4104855695
   92      H      -1.5370754918    -3.8428503089    -0.3013924553
   93      H      -1.3540806877    -5.3181799374     0.6002534780
   94      O      -4.3433683245    -4.7800723585     2.3216333484
   95      C      -4.3331376049    -5.0455293362     1.1533380410
   96      C      -5.5619651047    -5.7323096407     0.5427876425
   97      H      -6.1120399800    -6.2319299800     1.3504696023
   98      H      -5.2267127916    -6.5328762302    -0.1268899085
   99      C      -6.4287241521    -4.8255181169    -0.2802651421
  100      H      -5.8558722261    -4.2908219080    -1.0487439219
  101      H      -7.1843462485    -5.3934795366    -0.8383682447
  102      C      -7.1955296224    -3.7811110462     0.6292804813
  103      H      -8.0956523718    -4.2907216425     0.9925463291
  104      H      -6.4984656818    -3.4791861521     1.4209933213
  105      C      -7.6014302295    -2.4838894471    -0.1121888843
  106      C      -8.7737526943    -2.7007191116    -0.9697586687
  107      C      -8.7785410730    -3.3530826228    -2.2021769908
  108      H      -7.8371153004    -3.7622940884    -2.5561649726
  109      C      -9.8925100403    -3.4523491155    -3.0346914371
  110      H      -9.7233219938    -3.9576049910    -3.9814849231
  111      C     -11.1391700701    -2.8830392095    -2.7593770694
  112      H     -12.0606095730    -3.0241222289    -3.3162889333
  113      C     -11.1714061121    -2.1482586219    -1.6053336016
  114      H     -12.1238762905    -1.7129714857    -1.3189183990
  115      C     -10.0609483546    -2.1403339505    -0.7454267645
  116      H     -10.0769154621    -1.6020425420     0.1976254138
  117      C      -5.4551810773     1.6188998939    -3.2078594417
  118      C      -7.2239461991     2.7639478250    -1.9891904220
  119      C      -4.6363356746     5.3125509869     0.7132278833
  120      C      -2.5167961741    -0.5052971635     0.1484835119
  121      C      -5.0820938684     3.1254295862     3.4015363871
  122      C      -6.7485979841     1.5867302248    -2.6517157395
  123      C      -2.4049500060     0.9273514175     2.5445666653
  124      C      -4.4001666615     4.7053273847    -1.6057252629
  125      C      -7.9125528470     1.0932244306     1.4985752272
  126      C      -3.2331200231    -0.9876540710     1.2160967177
  127      C      -7.3186563097    -1.0824579557     0.5316827531
  128      C      -7.0774162383     0.4567393337     2.4294772446
  129      C      -4.4552928181    -0.2735881802     2.8842524547
  130      C      -2.9173347286     2.0536354611     3.1366926227
  131      C      -7.9627021831     0.9291012632    -0.8871746822
  132      C      -3.3012061099     4.2829413116     2.2081867329
  133      C      -6.4748605014    -1.5371627792    -0.6278663651
  134      C      -4.9766809440    -1.7030304845    -0.3343993004
  135      C      -4.5902313593     4.2560598501     2.7238613332
  136      C      -1.6836907304     2.6076462596    -1.0644763243
  137      C      -2.4838297381     4.4661632493    -0.0426279170
  138      C      -3.0317647605     4.2742062842    -1.3008829527
  139      C      -5.1844699908     3.9386135837    -2.5111551249
  140      C      -4.2598066575    -1.1127146240    -1.3659769476
  141      C      -8.0425342374     0.2643246499     0.3545857204
  142      C      -6.4881870138     3.9444814503    -1.9704079640
  143      C      -3.1565229130    -0.2752689946     2.3874256150
  144      C      -8.0803059418     2.3191280453    -0.9385157080
  145      C      -6.2871101008     1.2384926521     3.2789358711
  146      C      -2.4440483237     0.3985292743    -1.8906745302
  147      C      -5.1832973090     5.2347089502    -0.5666797649
  148      C      -6.6466722265    -0.7625764403     1.9043280853
  149      C      -3.3080377236     2.3589149790    -2.8483290636
  150      C      -4.9843912550     0.8762322406     3.4968647659
  151      C      -8.0062463893     2.5251944980     1.4413979038
  152      C      -1.6030268917     2.6694005996     1.4168690258
  153      C      -1.6041728054     1.3042284845     1.4634392208
  154      C      -7.2322557352     3.3062111911     2.2766346322
  155      C      -2.9632085106    -0.6058084646    -1.1323952896
  156      C      -4.4823632859    -1.4815742010     1.0083777352
  157      C      -1.6400210290     1.1660445359    -1.0016557269
  158      C      -6.4379788690    -0.6728467634    -1.9057139968
  159      C      -7.2721849168     4.3298134135     0.3025277074
  160      C      -5.2904508441    -1.0694843392     2.1087078875
  161      C      -6.3621032128     2.6607152799     3.1788018099
  162      C      -3.2669384601     1.0054402451    -2.8650322144
  163      C      -5.4365533682     4.8608547256     1.8039873116
  164      C      -4.6554191130     2.7504109488    -3.1131465426
  165      C      -3.3069270200     4.9487891754     0.9442105094
  166      C      -8.0964016823     3.1321882265     0.2251608230
  167      C      -6.7492222714     4.4658459915     1.6028046815
  168      C      -7.1928714990     0.4893892782    -2.0004056053
  169      C      -5.0918497478    -0.5632858887    -2.2746839194
  170      C      -1.6328206299     3.3589983524     0.1478488241
  171      C      -6.5138246748     4.7805442559    -0.8097031369
  172      C      -4.2202516755     2.0353263908     3.6717974790
  173      C      -1.6875619636     0.5872377073     0.2483192787
  174      C      -2.4095220205     3.1651833149     2.4377701505
  175      C      -4.6080681613     0.5266059623    -3.0368165390
  176      C      -2.5484449229     3.1626704263    -1.9628066427
 ----------------------------------------------------------------

    9   -5804.2453683266      9.00E-06 Convergence criterion met
 Total energy in the final basis set = -5804.2453683266

                    Orbital Energies (a.u.)
 --------------------------------------------------------------

 Alpha MOs
 -- Occupied --
-19.188 -19.188 -19.146 -19.140 -10.325 -10.322 -10.246 -10.245
-10.244 -10.242 -10.241 -10.240 -10.240 -10.239 -10.239 -10.231
-10.230 -10.229 -10.228 -10.228 -10.228 -10.227 -10.227 -10.226
-10.225 -10.225 -10.224 -10.223 -10.223 -10.223 -10.222 -10.222
-10.222 -10.221 -10.221 -10.221 -10.220 -10.220 -10.219 -10.219
-10.219 -10.219 -10.219 -10.219 -10.219 -10.218 -10.218 -10.218
-10.218 -10.218 -10.217 -10.217 -10.217 -10.217 -10.216 -10.216
-10.216 -10.216 -10.216 -10.215 -10.215 -10.215 -10.215 -10.215
-10.215 -10.215 -10.215 -10.214 -10.214 -10.214 -10.214 -10.214
-10.214 -10.214 -10.214 -10.214 -10.214 -10.214 -10.214 -10.214
-10.214 -10.213 -10.213 -10.213 -10.213 -10.213 -10.213 -10.213
-10.213 -10.212 -10.212 -10.212 -10.212 -10.212 -10.212 -10.212
-10.212 -10.211 -10.211 -10.211 -10.211 -10.211 -10.211 -10.211
-10.210 -10.210 -10.210 -10.210 -10.210 -10.210 -10.210 -10.210
-10.209 -10.209 -10.209 -10.209 -10.208 -10.208 -10.208 -10.207
-10.207 -10.207 -10.207 -10.207 -10.206 -10.206 -10.206 -10.205
-10.205 -10.204 -10.203 -10.203 -10.203 -10.203 -10.202 -10.202
-10.201 -10.200 -10.199 -10.199 -10.198 -10.197 -10.196 -10.195
-10.194 -10.194 -10.193 -10.193  -1.095  -1.081  -1.018  -1.016
 -0.982  -0.982  -0.966  -0.962  -0.962  -0.961  -0.959  -0.958
 -0.937  -0.928  -0.927  -0.925  -0.925  -0.923  -0.922  -0.922
 -0.920  -0.918  -0.899  -0.895  -0.891  -0.890  -0.884  -0.884
 -0.873  -0.873  -0.853  -0.849  -0.843  -0.841  -0.839  -0.835
 -0.835  -0.831  -0.823  -0.820  -0.810  -0.807  -0.800  -0.796
 -0.795  -0.794  -0.793  -0.792  -0.791  -0.789  -0.783  -0.782
 -0.774  -0.769  -0.769  -0.767  -0.766  -0.764  -0.763  -0.762
 -0.749  -0.743  -0.739  -0.737  -0.735  -0.729  -0.719  -0.716
 -0.714  -0.713  -0.712  -0.711  -0.710  -0.709  -0.708  -0.707
 -0.706  -0.705  -0.703  -0.703  -0.702  -0.700  -0.674  -0.669
 -0.660  -0.658  -0.655  -0.652  -0.649  -0.647  -0.632  -0.630
 -0.630  -0.628  -0.626  -0.625  -0.624  -0.620  -0.618  -0.615
 -0.614  -0.613  -0.613  -0.610  -0.610  -0.609  -0.606  -0.606
 -0.604  -0.603  -0.602  -0.599  -0.565  -0.564  -0.563  -0.563
 -0.562  -0.561  -0.559  -0.557  -0.556  -0.555  -0.554  -0.550
 -0.536  -0.536  -0.533  -0.532  -0.531  -0.529  -0.525  -0.524
 -0.522  -0.521  -0.520  -0.516  -0.516  -0.514  -0.512  -0.511
 -0.510  -0.507  -0.503  -0.500  -0.492  -0.491  -0.488  -0.486
 -0.484  -0.483  -0.482  -0.481  -0.476  -0.476  -0.474  -0.473
 -0.473  -0.472  -0.472  -0.469  -0.467  -0.467  -0.466  -0.466
 -0.463  -0.462  -0.461  -0.461  -0.460  -0.459  -0.457  -0.456
 -0.456  -0.455  -0.453  -0.451  -0.451  -0.448  -0.445  -0.443
 -0.442  -0.441  -0.441  -0.440  -0.437  -0.435  -0.434  -0.433
 -0.430  -0.429  -0.428  -0.427  -0.427  -0.425  -0.425  -0.423
 -0.422  -0.421  -0.420  -0.419  -0.419  -0.418  -0.418  -0.417
 -0.415  -0.414  -0.414  -0.414  -0.413  -0.412  -0.412  -0.411
 -0.410  -0.409  -0.407  -0.407  -0.403  -0.402  -0.399  -0.397
 -0.397  -0.394  -0.394  -0.390  -0.389  -0.386  -0.386  -0.381
 -0.380  -0.375  -0.375  -0.373  -0.372  -0.370  -0.368  -0.366
 -0.366  -0.364  -0.362  -0.362  -0.361  -0.359  -0.359  -0.357
 -0.357  -0.355  -0.354  -0.353  -0.351  -0.351  -0.351  -0.350
 -0.350  -0.348  -0.348  -0.346  -0.346  -0.344  -0.343  -0.343
 -0.342  -0.341  -0.338  -0.338  -0.337  -0.336  -0.336  -0.334
 -0.331  -0.330  -0.328  -0.327  -0.327  -0.326  -0.325  -0.321
 -0.315  -0.302  -0.297  -0.293  -0.290  -0.285  -0.274  -0.273
 -0.271  -0.270  -0.267  -0.267  -0.266  -0.265  -0.263  -0.263
 -0.260  -0.260  -0.259  -0.258  -0.255  -0.255  -0.254  -0.251
 -0.248  -0.246  -0.244  -0.243  -0.224  -0.221  -0.216  -0.213
 -0.208  -0.206  -0.205  -0.201  -0.198  -0.196

          Ground-State Mulliken Net Atomic Charges

     Atom                 Charge (a.u.)
  ----------------------------------------
      1 O                    -0.462617
      2 C                    -0.075656
      3 H                     0.111962
      4 H                     0.121465
      5 H                     0.118911
      6 O                    -0.470159
      7 C                     0.605588
      8 C                    -0.254458
      9 H                     0.138306
     10 H                     0.123508
     11 C                    -0.194717
     12 H                     0.112358
     13 H                     0.134117
     14 C                    -0.192189
     15 H                     0.117730
     16 H                     0.112407
     17 C                     0.013716
     18 C                     0.106154
     19 C                    -0.099805
     20 H                     0.109381
     21 C                    -0.111781
     22 H                     0.095751
     23 C                    -0.075375
     24 H                     0.098243
     25 C                    -0.097280
     26 H                     0.091357
     27 C                    -0.119942
     28 H                     0.087686
     29 C                     0.011572
     30 C                     0.010946
     31 C                     0.006442
     32 C                    -0.018269
     33 C                     0.015934
     34 C                    -0.007547
     35 C                     0.013496
     36 C                     0.007080
     37 C                     0.025425
     38 C                     0.016832
     39 C                    -0.121637
     40 C                     0.004925
     41 C                    -0.005317
     42 C                    -0.000361
     43 C                     0.000403
     44 C                     0.006646
     45 C                    -0.059025
     46 C                     0.008561
     47 C                    -0.018719
     48 C                     0.016752
     49 C                    -0.034837
     50 C                    -0.031546
     51 C                    -0.011483
     52 C                    -0.005740
     53 C                     0.037096
     54 C                     0.031439
     55 C                     0.005552
     56 C                    -0.034362
     57 C                    -0.030952
     58 C                    -0.010268
     59 C                     0.016582
     60 C                     0.022014
     61 C                     0.011222
     62 C                    -0.003690
     63 C                    -0.016550
     64 C                    -0.023561
     65 C                    -0.004288
     66 C                    -0.004569
     67 C                     0.001693
     68 C                     0.007396
     69 C                     0.006319
     70 C                     0.033341
     71 C                     0.002249
     72 C                     0.002935
     73 C                     0.013936
     74 C                    -0.004411
     75 C                    -0.006159
     76 C                    -0.014668
     77 C                    -0.005893
     78 C                     0.004367
     79 C                    -0.005289
     80 C                     0.003732
     81 C                     0.008018
     82 C                     0.030629
     83 C                    -0.014439
     84 C                    -0.014132
     85 C                    -0.009248
     86 C                     0.009361
     87 C                    -0.013688
     88 C                     0.003900
     89 O                    -0.494531
     90 C                    -0.094660
     91 H                     0.131864
     92 H                     0.125851
     93 H                     0.118406
     94 O                    -0.433638
     95 C                     0.598343
     96 C                    -0.234221
     97 H                     0.129585
     98 H                     0.117475
     99 C                    -0.197330
    100 H                     0.123924
    101 H                     0.109522
    102 C                    -0.193007
    103 H                     0.117723
    104 H                     0.128293
    105 C                    -0.003609
    106 C                     0.128706
    107 C                    -0.126804
    108 H                     0.078682
    109 C                    -0.087257
    110 H                     0.082510
    111 C                    -0.080543
    112 H                     0.097549
    113 C                    -0.076146
    114 H                     0.089426
    115 C                    -0.136553
    116 H                     0.077149
    117 C                    -0.003662
    118 C                     0.005701
    119 C                     0.005380
    120 C                     0.002353
    121 C                    -0.003566
    122 C                     0.003661
    123 C                     0.008762
    124 C                    -0.011188
    125 C                     0.014801
    126 C                     0.012757
    127 C                    -0.084081
    128 C                     0.016907
    129 C                     0.000258
    130 C                     0.016489
    131 C                     0.019568
    132 C                    -0.012701
    133 C                    -0.078785
    134 C                     0.013858
    135 C                     0.012610
    136 C                    -0.035047
    137 C                     0.008110
    138 C                    -0.005587
    139 C                    -0.008326
    140 C                     0.023497
    141 C                    -0.006527
    142 C                     0.005530
    143 C                    -0.014137
    144 C                    -0.018678
    145 C                    -0.017916
    146 C                    -0.021853
    147 C                    -0.001404
    148 C                     0.011145
    149 C                     0.025675
    150 C                     0.015402
    151 C                     0.026266
    152 C                    -0.002005
    153 C                    -0.007209
    154 C                    -0.022877
    155 C                     0.015599
    156 C                     0.003757
    157 C                    -0.028004
    158 C                     0.009703
    159 C                     0.004499
    160 C                    -0.005266
    161 C                     0.013634
    162 C                    -0.014359
    163 C                     0.009550
    164 C                    -0.015192
    165 C                     0.002480
    166 C                    -0.016276
    167 C                    -0.003250
    168 C                     0.033102
    169 C                     0.023138
    170 C                    -0.005186
    171 C                    -0.029780
    172 C                    -0.031582
    173 C                     0.025710
    174 C                    -0.009440
    175 C                    -0.022050
    176 C                     0.038509
  ----------------------------------------
  Sum of atomic charges =     0.000000

                    Cartesian Multipole Moments
 -----------------------------------------------------------------
    Charge (ESU x 10^10)
                 0.0000
    Dipole Moment (Debye)
         X       2.5145      Y      -0.3979      Z      -3.1159
       Tot       4.0237
    Quadrupole Moments (Debye-Ang)
        XX    -749.4695     XY      30.1039     YY    -790.4234
        XZ      -2.5002     YZ      -0.3024     ZZ    -819.0685

 Total job time:  875.95s(wall), 8369.06s(cpu)
        *  Thank you very much for using Q-Chem.  Have a nice day.  *
