 Q-Chem 4.4, Q-Chem, Inc., Pleasanton, CA (2016)
 Q-Chem 4.4.2 for Intel X86 Linux

User input:
--------------------------------------------------------------
$comment
SP
$end

$rem
MEM_STATIC 5000
MEM_TOTAL 20000
JOBTYPE SP
EXCHANGE B3LYP
BASIS 6-31g(d,p)
$end

$molecule
0 1
O           8.586000    -14.875000     -2.606000
C           7.495000    -14.919000     -3.545000
H           7.782000    -15.004000     -4.600000
H           6.913000    -13.990000     -3.502000
H           6.910000    -15.828000     -3.356000
O           9.800000    -13.203000     -3.771000
C           9.626000    -13.967000     -2.828000
C          10.579000    -13.923000     -1.596000
H          10.833000    -14.938000     -1.267000
H           9.850000    -13.522000     -0.881000
C          11.913000    -13.112000     -1.822000
H          11.609000    -12.317000     -2.514000
H          12.146000    -12.682000     -0.840000
C          13.129000    -13.896000     -2.394000
H          13.422000    -14.731000     -1.745000
H          12.798000    -14.468000     -3.270000
C          14.369000    -13.089000     -2.770000
C          14.024000    -12.138000     -3.846000
C          13.964000    -10.775000     -3.560000
H          14.109000    -10.409000     -2.548000
C          13.599000     -9.913000     -4.613000
H          13.563000     -8.833000     -4.498000
C          13.127000    -10.428000     -5.809000
H          12.674000     -9.716000     -6.493000
C          13.117000    -11.764000     -6.025000
H          12.793000    -12.176000     -6.976000
C          13.604000    -12.642000     -5.082000
H          13.581000    -13.725000     -5.155000
C          19.770000    -13.292000     -4.053000
C          19.639000    -11.155000     -2.967000
C          21.700000    -12.344000      0.820000
C          17.823000    -16.902000     -1.095000
C          18.755000    -12.828000      2.577000
C          19.029000    -12.150000     -3.812000
C          18.256000    -16.291000      1.590000
C          22.265000    -12.881000     -1.510000
C          16.593000    -11.144000     -0.374000
C          16.775000    -16.372000     -0.333000
C          15.405000    -12.695000     -1.754000
C          15.999000    -12.075000      0.470000
C          16.224000    -14.847000      1.200000
C          18.766000    -15.270000      2.423000
C          17.390000    -11.229000     -2.608000
C          20.775000    -13.927000      2.163000
C          15.751000    -13.720000     -2.782000
C          16.051000    -15.134000     -2.311000
C          20.153000    -12.743000      2.438000
C          21.292000    -16.265000     -1.120000
C          22.112000    -14.656000      0.202000
C          22.318000    -14.226000     -1.081000
C          21.627000    -12.515000     -2.692000
C          17.213000    -15.546000     -2.954000
C          16.372000    -11.503000     -1.699000
C          20.917000    -11.291000     -2.396000
C          16.982000    -16.024000      0.980000
C          18.586000    -10.588000     -2.263000
C          16.698000    -12.458000      1.602000
C          19.394000    -16.502000     -2.629000
C          21.926000    -11.928000     -0.518000
C          15.363000    -13.115000     -0.305000
C          21.104000    -14.851000     -3.052000
C          16.845000    -13.819000      1.959000
C          17.759000    -10.493000      0.031000
C          20.483000    -16.121000      1.198000
C          19.313000    -16.891000      0.825000
C          18.433000    -10.768000      1.252000
C          17.995000    -16.566000     -2.398000
C          15.909000    -15.466000     -0.904000
C          20.085000    -16.877000     -1.483000
C          16.950000    -13.381000     -3.644000
C          20.022000    -10.395000     -0.334000
C          15.640000    -14.455000      0.001000
C          17.910000    -11.866000      1.991000
C          19.926000    -15.450000     -3.414000
C          20.654000    -11.757000      1.521000
C          21.019000    -13.493000     -3.438000
C          21.750000    -13.651000      1.140000
C          18.765000    -10.219000     -0.951000
C          19.842000    -10.749000      0.983000
C          17.642000    -12.195000     -3.636000
C          17.704000    -14.541000     -3.814000
C          21.481000    -15.877000      0.204000
C          21.104000    -10.959000     -1.044000
C          18.052000    -14.060000      2.589000
C          19.055000    -17.245000     -0.499000
C          20.142000    -15.196000      2.170000
C          19.075000    -14.503000     -4.075000
C          21.808000    -15.260000     -1.890000
O          21.413000    -14.855000      7.239000
C          20.845000    -13.623000      7.723000
H          21.393000    -13.103000      8.518000
H          19.787000    -13.742000      7.986000
H          20.670000    -12.912000      6.906000
O          19.710000    -15.244000      5.828000
C          20.758000    -15.604000      6.314000
C          21.447000    -16.933000      6.097000
H          21.647000    -17.421000      7.059000
H          22.436000    -16.758000      5.654000
C          20.766000    -17.945000      5.043000
H          19.873000    -18.285000      5.581000
H          20.419000    -17.349000      4.190000
C          21.519000    -19.257000      4.597000
H          22.532000    -18.983000      4.276000
H          21.690000    -19.892000      5.476000
C          20.869000    -20.087000      3.539000
C          19.422000    -20.305000      3.837000
C          18.490000    -19.433000      3.419000
H          18.920000    -18.558000      2.939000
C          17.162000    -19.524000      3.713000
H          16.538000    -18.735000      3.303000
C          16.720000    -20.479000      4.651000
H          15.689000    -20.462000      4.991000
C          17.638000    -21.411000      5.094000
H          17.426000    -22.238000      5.765000
C          18.905000    -21.415000      4.589000
H          19.599000    -22.181000      4.921000
C          21.412000    -24.891000      0.854000
C          20.334000    -23.413000     -0.740000
C          23.925000    -22.857000     -3.469000
C          25.586000    -22.543000      2.546000
C          24.652000    -19.665000     -2.253000
C          20.492000    -23.800000      0.575000
C          26.653000    -20.915000      0.531000
C          23.176000    -24.805000     -2.333000
C          21.193000    -19.618000     -0.205000
C          25.383000    -21.167000      2.519000
C          21.374000    -20.067000      2.105000
C          22.338000    -18.924000      0.279000
C          24.951000    -19.304000      1.231000
C          26.437000    -20.529000     -0.823000
C          20.117000    -21.595000      0.558000
C          25.776000    -21.826000     -2.776000
C          21.689000    -21.206000      2.956000
C          23.086000    -21.552000      3.261000
C          24.785000    -20.834000     -3.038000
C          25.815000    -24.859000     -0.106000
C          25.507000    -24.189000     -2.224000
C          24.472000    -25.012000     -1.887000
C          22.024000    -25.049000     -1.507000
C          23.328000    -22.924000      3.244000
C          20.584000    -20.314000      0.844000
C          21.077000    -24.004000     -1.769000
C          25.879000    -20.319000      1.558000
C          20.100000    -22.051000     -0.720000
C          23.409000    -18.752000     -0.548000
C          24.701000    -24.596000      2.074000
C          22.868000    -23.730000     -3.102000
C          22.527000    -19.259000      1.636000
C          23.491000    -25.695000      0.264000
C          24.699000    -18.951000     -0.084000
C          21.131000    -20.055000     -1.544000
C          26.794000    -22.778000     -0.813000
C          26.908000    -22.307000      0.479000
C          22.234000    -19.790000     -2.370000
C          24.588000    -23.450000      2.905000
C          24.117000    -20.669000      2.880000
C          25.794000    -24.353000      1.209000
C          21.219000    -22.567000      2.501000
C          21.304000    -21.831000     -2.851000
C          23.826000    -19.524000      2.121000
C          23.397000    -19.179000     -1.899000
C          23.542000    -25.248000      1.594000
C          23.636000    -21.454000     -3.497000
C          22.176000    -25.482000     -0.164000
C          25.210000    -23.092000     -3.070000
C          20.587000    -21.263000     -1.823000
C          22.314000    -20.927000     -3.199000
C          20.437000    -22.668000      1.366000
C          22.191000    -23.559000      2.725000
C          26.371000    -24.090000     -1.102000
C          21.558000    -23.217000     -2.813000
C          25.459000    -19.486000     -1.118000
C          26.304000    -23.123000      1.494000
C          26.564000    -21.674000     -1.654000
C          22.337000    -24.678000      1.892000
C          24.648000    -25.458000     -0.599000
$end

--------------------------------------------------------------

             Standard Nuclear Orientation (Angstroms)
    I     Atom           X                Y                Z
 ----------------------------------------------------------------
    1      O       9.5822605844     4.7841768424     5.2613224250
    2      C      10.4117399517     5.9407246690     5.4810929961
    3      H      10.3547118425     6.7173962797     4.7089867832
    4      H      11.4713992739     5.6569094127     5.4946952439
    5      H      10.0677936941     6.4473391769     6.3917354684
    6      O      10.2738287936     4.4517468891     3.0168116235
    7      C       9.6419495262     4.1417486872     4.0207293025
    8      C       8.8476733993     2.8019446090     4.0656677756
    9      H       7.8653628752     2.9500164436     4.5305578337
   10      H       9.4840146643     2.2973368725     4.8031688446
   11      C       8.6482716659     2.1054665539     2.6644146695
   12      H       9.5624313705     2.3717004030     2.1196793467
   13      H       8.6465267897     1.0311054756     2.8863566187
   14      C       7.3890648798     2.5112875117     1.8457550209
   15      H       6.4596010979     2.3028097026     2.3906486629
   16      H       7.3275634340     3.6064567548     1.8150483274
   17      C       7.2733733218     1.9693985450     0.4233637909
   18      C       8.3995922316     2.4782071334    -0.3853059733
   19      C       9.4092887949     1.6013597534    -0.7787732811
   20      H       9.4101094462     0.5661375590    -0.4509938818
   21      C      10.4773130358     2.1428903110    -1.5211659509
   22      H      11.2900540806     1.5325668418    -1.9057153717
   23      C      10.6057027295     3.5143123523    -1.6665711476
   24      H      11.5509200449     3.8682884594    -2.0681606672
   25      C       9.6482339597     4.3473056191    -1.1964352391
   26      H       9.7158095414     5.4206975738    -1.3460489158
   27      C       8.5103373156     3.8573867224    -0.5943781803
   28      H       7.7253382688     4.4569252098    -0.1437374158
   29      C       3.9156555909     1.1587472665    -3.9271160843
   30      C       5.4077965465    -0.7088698447    -4.1481312302
   31      C       2.5249166633    -3.8649056194    -2.8323604418
   32      C       1.9142376739     1.2844168275     0.7152116166
   33      C       3.7197403172    -3.9692185441     0.4166155892
   34      C       5.2007687009     0.6696683862    -3.7835467857
   35      C       1.6154940060    -1.3021104798     1.7105325245
   36      C       2.1806524405    -1.9529931211    -4.3365435236
   37      C       6.8883139847    -1.6843999321    -0.5622847244
   38      C       2.8418700104     0.7928999131     1.6413635324
   39      C       6.7277169932     0.5990034900     0.1317054904
   40      C       6.4160416109    -1.6835801895     0.7449609040
   41      C       4.0616897926    -0.9780684002     2.2372040581
   42      C       1.9077975193    -2.6482165104     1.3959101946
   43      C       6.7184455855    -0.1541480256    -2.3685692616
   44      C       1.6843603321    -3.8207918660    -0.7212749317
   45      C       5.9228971179     1.7961341042    -0.2507448474
   46      C       4.5864167421     2.0115898426     0.4410904148
   47      C       2.9191938927    -4.4000395718    -0.6578464457
   48      C       0.1900999576    -0.2483742126    -1.9527943359
   49      C       0.6387183434    -2.3828852001    -2.4543612687
   50      C       1.0606081123    -1.6499744635    -3.5305935276
   51      C       3.0732637028    -0.9672983738    -4.7485811426
   52      C       3.6534655882     2.3098322099    -0.5458698857
   53      C       6.9972591946    -0.3770688889    -1.0231138517
   54      C       4.3903239129    -1.5514852618    -4.6303860372
   55      C       2.7357288607    -0.4944897643     2.1096410941
   56      C       6.3767840434    -1.1707919182    -3.2685829206
   57      C       5.4808428996    -2.6430047992     1.0937040598
   58      C       1.4903703090     1.7438199706    -1.4273294469
   59      C       2.9334479715    -3.0885914298    -3.9480729716
   60      C       6.1792209585    -0.3291493793     1.1878538470
   61      C       1.7175163174     0.6557011669    -3.5705121642
   62      C       4.3019179792    -2.3085335785     1.8005590906
   63      C       6.5624729426    -2.7428741591    -1.4113088266
   64      C       0.3968037646    -1.8700655775    -0.1154779088
   65      C       0.6301440661    -0.7769511733     0.8073342081
   66      C       5.7082534681    -3.8171966922    -1.0413329028
   67      C       2.2908025160     2.0916391564    -0.3079599386
   68      C       4.1751074009     1.1091432569     1.5024347443
   69      C       0.5637516642     0.7722011995    -1.0685023986
   70      C       5.5692926120     1.8850984923    -1.7213281300
   71      C       5.2620057435    -3.3096541699    -3.2145124988
   72      C       4.9425134667    -0.0109720866     1.7668899341
   73      C       5.0843360379    -3.6761507415     0.2299212339
   74      C       2.0822972173     1.6587233657    -2.7112040916
   75      C       3.5049986224    -4.3367968628    -1.9681590719
   76      C       2.8599553798     0.3235810580    -4.3353090144
   77      C       1.4548577975    -3.4930224838    -2.1044689957
   78      C       6.3043926479    -2.4577308330    -2.7909913426
   79      C       4.8745094553    -4.1162654193    -2.1697972654
   80      C       6.0176959172     1.0474953055    -2.7127308621
   81      C       4.2496610151     2.3220502513    -1.8245831969
   82      C       0.1234524734    -1.5577660242    -1.4834413808
   83      C       4.2778991790    -2.8548046303    -4.1187061539
   84      C       3.2402247750    -3.1209045426     1.4474430237
   85      C       0.7661980061     0.5403376922     0.3701896437
   86      C       1.1334481606    -2.9752862502     0.2750759267
   87      C       3.4529118717     2.0208457658    -2.9307805846
   88      C       0.7542419845    -0.3165135386    -3.1962901364
   89      O      -0.3287875320    -7.6201899645     2.2020474532
   90      C       0.8702119331    -8.4082373950     2.3288761961
   91      H       0.7691907252    -9.4910085453     2.1869947257
   92      H       1.4067147334    -8.1805104690     3.2578536945
   93      H       1.6617081604    -8.0474963769     1.6602697050
   94      O       0.7157882618    -5.7005540654     2.7181001886
   95      C      -0.3082254305    -6.2832454818     2.4424796683
   96      C      -1.7049006228    -5.7025440349     2.4308505344
   97      H      -2.3709713916    -6.2971230248     3.0683562644
   98      H      -2.1231857889    -5.7903511652     1.4197509213
   99      C      -1.8420168230    -4.1244025583     2.7299987039
  100      H      -1.6256689947    -4.0650136838     3.8033856699
  101      H      -1.0209507804    -3.6170240317     2.2087966467
  102      C      -3.2255507465    -3.3931834058     2.5339848436
  103      H      -3.6067018469    -3.6351461526     1.5337529366
  104      H      -3.9685949433    -3.8391332104     3.2078699179
  105      C      -3.2450878744    -1.9125752030     2.7293860987
  106      C      -2.5417140212    -1.5249419754     3.9884106035
  107      C      -1.2194648279    -1.2898116090     3.9985487280
  108      H      -0.7502163434    -1.4933710773     3.0397503120
  109      C      -0.4957636947    -1.0040515946     5.1178783863
  110      H       0.5668420917    -0.8443900217     4.9585858099
  111      C      -1.0996035272    -1.1202998620     6.3863801786
  112      H      -0.4920332405    -1.0303083163     7.2817068611
  113      C      -2.4624600969    -1.3407211531     6.4267958282
  114      H      -3.0686341239    -1.3902458829     7.3263592502
  115      C      -3.1807862900    -1.3904462466     5.2684069059
  116      H      -4.2566621111    -1.5245299274     5.3243424428
  117      C      -6.7137915083     2.3904789191     2.9146165544
  118      C      -4.6328662695     3.3126290745     2.0739065918
  119      C      -6.0101555725     3.9222045246    -2.2136743050
  120      C      -7.9104970485    -1.5994822636     0.0083561376
  121      C      -4.2954063185     1.1253924594    -3.4109738783
  122      C      -5.2597725187     2.4031460475     2.9008208427
  123      C      -7.0059059911    -1.1831358844    -2.6103207633
  124      C      -7.1994317470     4.2475148988    -0.1824194364
  125      C      -2.4273590683     0.7121712289     0.1246790580
  126      C      -6.7439127808    -2.1832477532    -0.4749791495
  127      C      -3.2939784032    -0.9646773239     1.5415812633
  128      C      -2.7217495599    -0.4226798100    -0.6830116985
  129      C      -4.8399048007    -1.9242818852    -1.7493524430
  130      C      -6.3358573190    -0.2214939180    -3.4197943611
  131      C      -3.3634552542     1.4645811813     2.1755513588
  132      C      -6.5382441267     2.2033660556    -3.5312963284
  133      C      -4.5018205433    -1.1916076657     2.3228411334
  134      C      -5.7048485808    -1.7621829982     1.6971276757
  135      C      -5.1164060491     2.2766561020    -3.4430124109
  136      C      -9.3182832727     1.5641588258    -0.6690757807
  137      C      -8.2394853256     3.0251372671    -1.9849120104
  138      C      -8.2592041958     3.5326461020    -0.7183540967
  139      C      -6.7979719299     4.1235483382     1.1932179820
  140      C      -6.8853433535    -1.1593950100     2.1264477576
  141      C      -2.7505235255     0.4399090047     1.4577717085
  142      C      -5.3643491038     4.1550214195     1.2280466741
  143      C      -6.2505927130    -2.0153322560    -1.7466240278
  144      C      -3.4655031400     2.7095281269     1.6452662170
  145      C      -3.1255371174    -0.2335309292    -1.9720936622
  146      C      -8.8034996245     0.1023096966     1.2441831979
  147      C      -6.0587857953     4.4383861521    -0.8925919348
  148      C      -3.3368891110    -1.4021780485     0.1241943059
  149      C      -8.5337375716     2.5122276784     1.5040384578
  150      C      -4.1787195240    -0.9644827800    -2.4969871849
  151      C      -2.4755771164     2.0122445790    -0.4186608945
  152      C      -8.2524879685     0.7507253866    -2.6668889374
  153      C      -8.2033981791    -0.5473625422    -2.2014225888
  154      C      -2.8301083792     2.1433680983    -1.7700395263
  155      C      -8.0207370350    -1.0812770902     1.2994194759
  156      C      -5.6296628074    -2.2628930145     0.3812828600
  157      C      -9.1611809114     0.2787923324    -0.1133295926
  158      C      -5.1425519131     0.0076643971     2.9796941087
  159      C      -3.6838657432     3.8624639548    -0.5139544179
  160      C      -4.4490942081    -2.1205052703    -0.3655574929
  161      C      -3.1959026713     1.0532844025    -2.5610155511
  162      C      -8.4694028439     1.2183006264     2.0452628356
  163      C      -4.7684246728     3.3566486173    -2.6506696008
  164      C      -7.4606065718     3.2166412049     2.0607874506
  165      C      -7.0755089754     3.2623562775    -2.7570649727
  166      C      -2.9860024294     3.0229074479     0.3236783577
  167      C      -3.5854843489     3.3327204720    -1.8055088859
  168      C      -4.5172322522     1.2374867252     2.8993052859
  169      C      -6.5454847605    -0.0286811699     2.8823163631
  170      C      -8.9161337859     1.7773323418    -1.9672844859
  171      C      -4.8923698857     4.4242104044    -0.0546999525
  172      C      -4.8780941233    -0.1517739857    -3.3820637836
  173      C      -8.6136949247    -0.7353250552    -0.8386226496
  174      C      -7.1267749674     0.9566004587    -3.4850470479
  175      C      -7.3286180295     1.1314096966     2.7914457712
  176      C      -8.9369912847     2.6672213692     0.1065584406
 ----------------------------------------------------------------

    9   -5804.2626534794      8.46E-06 Convergence criterion met
 Total energy in the final basis set = -5804.2626534794

                    Orbital Energies (a.u.)
 --------------------------------------------------------------

 Alpha MOs
 -- Occupied --
-19.201 -19.192 -19.148 -19.138 -10.327 -10.322 -10.249 -10.245
-10.238 -10.238 -10.234 -10.233 -10.233 -10.231 -10.226 -10.225
-10.224 -10.224 -10.223 -10.222 -10.221 -10.221 -10.220 -10.220
-10.219 -10.219 -10.218 -10.218 -10.218 -10.218 -10.217 -10.217
-10.217 -10.217 -10.217 -10.217 -10.216 -10.216 -10.216 -10.216
-10.216 -10.216 -10.216 -10.216 -10.215 -10.215 -10.215 -10.215
-10.215 -10.215 -10.215 -10.215 -10.214 -10.214 -10.214 -10.214
-10.214 -10.214 -10.214 -10.214 -10.214 -10.214 -10.213 -10.213
-10.213 -10.213 -10.213 -10.213 -10.213 -10.213 -10.213 -10.212
-10.212 -10.212 -10.212 -10.212 -10.211 -10.211 -10.211 -10.211
-10.211 -10.211 -10.211 -10.211 -10.211 -10.211 -10.211 -10.210
-10.210 -10.210 -10.210 -10.210 -10.210 -10.210 -10.210 -10.209
-10.209 -10.209 -10.209 -10.209 -10.209 -10.209 -10.209 -10.209
-10.209 -10.209 -10.209 -10.209 -10.208 -10.208 -10.208 -10.208
-10.208 -10.208 -10.208 -10.207 -10.207 -10.207 -10.206 -10.206
-10.206 -10.206 -10.205 -10.205 -10.205 -10.205 -10.204 -10.204
-10.204 -10.203 -10.203 -10.203 -10.203 -10.203 -10.198 -10.198
-10.197 -10.196 -10.195 -10.191 -10.191 -10.190 -10.189 -10.189
-10.188 -10.186 -10.184 -10.178  -1.098  -1.086  -1.018  -1.012
 -0.983  -0.982  -0.968  -0.965  -0.962  -0.961  -0.960  -0.960
 -0.938  -0.934  -0.927  -0.926  -0.924  -0.924  -0.922  -0.921
 -0.920  -0.920  -0.898  -0.898  -0.890  -0.887  -0.885  -0.884
 -0.875  -0.875  -0.859  -0.855  -0.842  -0.841  -0.839  -0.835
 -0.835  -0.835  -0.820  -0.819  -0.798  -0.797  -0.797  -0.796
 -0.795  -0.794  -0.793  -0.792  -0.791  -0.790  -0.783  -0.780
 -0.771  -0.770  -0.769  -0.768  -0.767  -0.765  -0.763  -0.761
 -0.752  -0.748  -0.742  -0.741  -0.734  -0.733  -0.716  -0.714
 -0.713  -0.713  -0.713  -0.712  -0.711  -0.708  -0.707  -0.707
 -0.706  -0.706  -0.705  -0.705  -0.702  -0.700  -0.673  -0.671
 -0.659  -0.659  -0.655  -0.655  -0.646  -0.644  -0.630  -0.629
 -0.628  -0.627  -0.624  -0.623  -0.621  -0.620  -0.618  -0.617
 -0.614  -0.614  -0.613  -0.612  -0.610  -0.609  -0.609  -0.606
 -0.604  -0.602  -0.602  -0.599  -0.567  -0.565  -0.563  -0.561
 -0.560  -0.558  -0.558  -0.556  -0.556  -0.555  -0.551  -0.550
 -0.538  -0.533  -0.533  -0.531  -0.528  -0.526  -0.525  -0.524
 -0.521  -0.521  -0.519  -0.517  -0.515  -0.513  -0.513  -0.512
 -0.506  -0.505  -0.500  -0.499  -0.492  -0.490  -0.485  -0.484
 -0.483  -0.483  -0.481  -0.481  -0.479  -0.478  -0.473  -0.472
 -0.472  -0.471  -0.470  -0.470  -0.468  -0.466  -0.465  -0.465
 -0.464  -0.462  -0.461  -0.461  -0.460  -0.459  -0.459  -0.456
 -0.454  -0.453  -0.451  -0.450  -0.448  -0.446  -0.443  -0.442
 -0.441  -0.440  -0.438  -0.438  -0.438  -0.435  -0.435  -0.431
 -0.431  -0.430  -0.428  -0.426  -0.426  -0.425  -0.423  -0.422
 -0.422  -0.421  -0.420  -0.420  -0.419  -0.418  -0.417  -0.416
 -0.416  -0.415  -0.415  -0.414  -0.413  -0.412  -0.412  -0.411
 -0.410  -0.407  -0.407  -0.405  -0.400  -0.399  -0.395  -0.395
 -0.392  -0.392  -0.391  -0.391  -0.389  -0.385  -0.384  -0.384
 -0.376  -0.375  -0.371  -0.370  -0.368  -0.368  -0.365  -0.365
 -0.364  -0.361  -0.360  -0.359  -0.359  -0.358  -0.356  -0.356
 -0.355  -0.354  -0.353  -0.353  -0.352  -0.352  -0.351  -0.350
 -0.348  -0.347  -0.346  -0.346  -0.344  -0.343  -0.342  -0.341
 -0.341  -0.340  -0.340  -0.338  -0.337  -0.336  -0.335  -0.333
 -0.332  -0.330  -0.328  -0.327  -0.326  -0.324  -0.321  -0.318
 -0.309  -0.306  -0.305  -0.297  -0.289  -0.285  -0.275  -0.274
 -0.271  -0.269  -0.268  -0.267  -0.265  -0.264  -0.263  -0.262
 -0.260  -0.259  -0.258  -0.258  -0.256  -0.255  -0.251  -0.251
 -0.246  -0.245  -0.243  -0.239  -0.222  -0.220  -0.213  -0.210
 -0.209  -0.207  -0.202  -0.202  -0.199  -0.197

          Ground-State Mulliken Net Atomic Charges

     Atom                 Charge (a.u.)
  ----------------------------------------
      1 O                    -0.472634
      2 C                    -0.089144
      3 H                     0.129133
      4 H                     0.127040
      5 H                     0.126636
      6 O                    -0.458673
      7 C                     0.593455
      8 C                    -0.266984
      9 H                     0.126070
     10 H                     0.138083
     11 C                    -0.182071
     12 H                     0.145151
     13 H                     0.100786
     14 C                    -0.184067
     15 H                     0.098643
     16 H                     0.112777
     17 C                     0.007862
     18 C                     0.095133
     19 C                    -0.104909
     20 H                     0.094582
     21 C                    -0.103115
     22 H                     0.084598
     23 C                    -0.068446
     24 H                     0.087374
     25 C                    -0.082758
     26 H                     0.085381
     27 C                    -0.086045
     28 H                     0.087117
     29 C                    -0.014819
     30 C                     0.014995
     31 C                     0.009428
     32 C                     0.023864
     33 C                     0.004523
     34 C                    -0.001774
     35 C                    -0.014895
     36 C                     0.010785
     37 C                     0.026862
     38 C                     0.006235
     39 C                    -0.099679
     40 C                    -0.037382
     41 C                    -0.047340
     42 C                     0.015053
     43 C                    -0.025182
     44 C                     0.001874
     45 C                    -0.098235
     46 C                     0.001154
     47 C                    -0.034970
     48 C                     0.028376
     49 C                    -0.011476
     50 C                     0.013091
     51 C                    -0.023377
     52 C                     0.021193
     53 C                     0.052902
     54 C                    -0.027678
     55 C                    -0.005848
     56 C                     0.005656
     57 C                     0.020235
     58 C                    -0.024472
     59 C                    -0.020000
     60 C                     0.010142
     61 C                     0.010869
     62 C                    -0.008765
     63 C                     0.005907
     64 C                     0.017104
     65 C                    -0.016987
     66 C                    -0.044261
     67 C                    -0.010645
     68 C                    -0.025090
     69 C                     0.007677
     70 C                     0.060368
     71 C                     0.008242
     72 C                     0.065299
     73 C                     0.004591
     74 C                     0.008222
     75 C                     0.010153
     76 C                     0.025182
     77 C                    -0.001676
     78 C                    -0.009355
     79 C                    -0.004973
     80 C                    -0.001802
     81 C                     0.023883
     82 C                     0.001525
     83 C                     0.022160
     84 C                     0.031264
     85 C                    -0.022087
     86 C                     0.011917
     87 C                    -0.034370
     88 C                    -0.037479
     89 O                    -0.466123
     90 C                    -0.090647
     91 H                     0.129221
     92 H                     0.127196
     93 H                     0.125400
     94 O                    -0.471435
     95 C                     0.612874
     96 C                    -0.284576
     97 H                     0.136607
     98 H                     0.137343
     99 C                    -0.196791
    100 H                     0.126870
    101 H                     0.120405
    102 C                    -0.178762
    103 H                     0.103079
    104 H                     0.108318
    105 C                     0.006712
    106 C                     0.099275
    107 C                    -0.087108
    108 H                     0.085657
    109 C                    -0.096053
    110 H                     0.090990
    111 C                    -0.094920
    112 H                     0.091400
    113 C                    -0.078912
    114 H                     0.089277
    115 C                    -0.119541
    116 H                     0.078093
    117 C                    -0.028007
    118 C                     0.009045
    119 C                     0.000500
    120 C                     0.002941
    121 C                    -0.002843
    122 C                    -0.029090
    123 C                    -0.015842
    124 C                     0.016936
    125 C                     0.003520
    126 C                     0.015126
    127 C                    -0.080923
    128 C                     0.015976
    129 C                    -0.028738
    130 C                    -0.014446
    131 C                     0.008586
    132 C                    -0.029829
    133 C                    -0.088693
    134 C                     0.054170
    135 C                     0.015300
    136 C                    -0.008724
    137 C                    -0.012000
    138 C                     0.028911
    139 C                    -0.028019
    140 C                    -0.012436
    141 C                     0.024615
    142 C                     0.010310
    143 C                     0.009964
    144 C                    -0.002250
    145 C                     0.003990
    146 C                    -0.019000
    147 C                    -0.015665
    148 C                     0.041011
    149 C                     0.000342
    150 C                     0.025819
    151 C                     0.016084
    152 C                     0.029996
    153 C                    -0.021408
    154 C                    -0.009604
    155 C                    -0.012944
    156 C                    -0.016444
    157 C                     0.017718
    158 C                     0.014064
    159 C                     0.002975
    160 C                    -0.031431
    161 C                     0.009695
    162 C                    -0.008471
    163 C                    -0.003272
    164 C                    -0.004407
    165 C                     0.005596
    166 C                    -0.003638
    167 C                    -0.017726
    168 C                     0.029326
    169 C                     0.008365
    170 C                    -0.014362
    171 C                    -0.001839
    172 C                    -0.023650
    173 C                    -0.005767
    174 C                     0.019043
    175 C                     0.030206
    176 C                     0.000397
  ----------------------------------------
  Sum of atomic charges =     0.000000

                    Cartesian Multipole Moments
 -----------------------------------------------------------------
    Charge (ESU x 10^10)
                 0.0000
    Dipole Moment (Debye)
         X       3.5091      Y      -0.9199      Z       3.8408
       Tot       5.2832
    Quadrupole Moments (Debye-Ang)
        XX    -791.6196     XY      23.5086     YY    -776.0278
        XZ      16.2395     YZ       3.4439     ZZ    -790.9967

 Total job time:  871.45s(wall), 8340.38s(cpu)
        *  Thank you very much for using Q-Chem.  Have a nice day.  *
