 Q-Chem 4.4, Q-Chem, Inc., Pleasanton, CA (2016)
 Q-Chem 4.4.2 for Intel X86 Linux

User input:
--------------------------------------------------------------
$comment
SP
$end

$rem
MEM_STATIC 5000
MEM_TOTAL 20000
JOBTYPE SP
EXCHANGE B3LYP
BASIS 6-31g(d,p)
$end

$molecule
0 1
O          -7.583000     13.860000     -4.382000
C          -6.887000     14.979000     -3.890000
H          -6.555000     15.658000     -4.685000
H          -6.079000     14.670000     -3.214000
H          -7.575000     15.571000     -3.274000
O          -5.731000     12.501000     -4.631000
C          -6.918000     12.612000     -4.677000
C          -7.888000     11.545000     -5.387000
H          -8.741000     12.093000     -5.805000
H          -8.278000     10.896000     -4.594000
C          -7.197000     10.659000     -6.507000
H          -6.978000     11.334000     -7.343000
H          -6.295000     10.241000     -6.042000
C          -8.135000      9.553000     -7.043000
H          -8.365000      8.885000     -6.204000
H          -9.149000      9.917000     -7.247000
C          -7.533000      8.687000     -8.137000
C          -6.345000      7.880000     -7.627000
C          -6.444000      6.493000     -7.396000
H          -7.366000      6.002000     -7.693000
C          -5.315000      5.786000     -6.925000
H          -5.399000      4.715000     -6.766000
C          -4.085000      6.388000     -6.742000
H          -3.210000      5.797000     -6.489000
C          -3.964000      7.769000     -7.021000
H          -3.051000      8.315000     -6.806000
C          -5.095000      8.482000     -7.439000
H          -4.904000      9.533000     -7.633000
C          -5.588000      8.701000    -13.303000
C          -6.375000      6.408000    -13.003000
C         -10.105000      6.669000    -15.663000
C          -9.360000     12.004000    -12.091000
C         -12.273000      7.220000    -12.920000
C          -5.760000      7.566000    -12.533000
C         -11.913000     10.952000    -12.787000
C          -7.871000      7.551000    -16.021000
C          -9.355000      6.294000    -10.338000
C         -10.170000     11.373000    -11.083000
C          -8.385000      8.155000     -9.219000
C         -10.421000      7.203000     -9.989000
C         -11.555000      9.734000    -10.564000
C         -12.483000      9.698000    -13.297000
C          -7.051000      6.691000    -10.920000
C         -11.787000      8.193000    -15.119000
C          -7.461000      9.272000     -9.564000
C          -8.124000     10.533000    -10.093000
C         -11.899000      7.109000    -14.275000
C          -8.838000     10.894000    -15.363000
C          -9.795000      9.042000    -16.190000
C          -8.473000      8.846000    -16.252000
C          -6.716000      7.497000    -15.179000
C          -7.318000     11.101000    -11.162000
C          -8.134000      6.866000    -10.007000
C          -6.882000      6.356000    -14.329000
C         -11.405000     10.860000    -11.425000
C          -7.191000      5.842000    -12.020000
C         -11.561000      7.310000    -10.811000
C          -7.599000     11.621000    -13.472000
C          -8.707000      6.427000    -15.692000
C          -9.828000      8.341000     -9.430000
C          -6.638000      9.910000    -14.934000
C         -12.102000      8.576000    -11.110000
C          -9.519000      5.475000    -11.490000
C         -11.241000     10.623000    -14.936000
C         -11.090000     11.485000    -13.789000
C         -10.650000      5.585000    -12.293000
C          -7.995000     11.801000    -12.144000
C          -9.534000     10.674000    -10.092000
C          -8.729000     11.790000    -14.255000
C          -6.419000      9.011000    -10.667000
C          -8.904000      5.178000    -13.675000
C         -10.378000      9.606000     -9.797000
C         -11.681000      6.422000    -11.924000
C          -6.588000     10.733000    -13.806000
C         -10.899000      6.162000    -14.628000
C          -6.145000      8.652000    -14.567000
C         -10.624000      7.976000    -16.013000
C          -8.431000      5.257000    -12.327000
C         -10.253000      5.395000    -13.664000
C          -6.188000      7.728000    -11.240000
C          -6.328000     10.159000    -11.470000
C         -10.076000     10.301000    -15.679000
C          -8.065000      5.702000    -14.663000
C         -12.491000      8.546000    -12.453000
C          -9.810000     12.029000    -13.449000
C         -12.121000      9.573000    -14.647000
C          -5.853000     10.003000    -12.759000
C          -7.806000      9.983000    -15.692000
O          -6.864000     18.027000    -13.271000
C          -5.706000     18.674000    -13.833000
H          -4.991000     17.853000    -13.972000
H          -5.325000     19.452000    -13.160000
H          -5.945000     19.145000    -14.795000
O          -7.004000     16.479000    -15.000000
C          -7.422000     16.938000    -13.961000
C          -8.656000     16.408000    -13.211000
H          -9.196000     15.855000    -13.990000
H          -9.297000     17.222000    -12.850000
C          -8.327000     15.517000    -12.000000
H          -9.099000     14.780000    -11.748000
H          -7.513000     14.842000    -12.291000
C          -8.040000     16.369000    -10.642000
H          -7.367000     17.228000    -10.759000
H          -8.901000     16.999000    -10.387000
C          -7.439000     15.496000     -9.475000
C          -8.504000     15.039000     -8.527000
C          -8.813000     15.833000     -7.382000
H          -8.365000     16.820000     -7.333000
C          -9.776000     15.268000     -6.448000
H          -9.988000     15.824000     -5.540000
C         -10.373000     13.990000     -6.682000
H         -10.964000     13.502000     -5.912000
C          -9.940000     13.242000     -7.758000
H         -10.402000     12.261000     -7.817000
C          -9.131000     13.777000     -8.701000
H          -9.090000     13.230000     -9.639000
C          -3.283000     15.683000     -5.917000
C          -3.562000     13.348000     -6.306000
C           0.147000     12.931000     -8.745000
C          -2.708000     18.249000    -10.215000
C          -1.410000     13.020000    -11.830000
C          -4.135000     14.600000     -6.156000
C          -1.412000     16.556000    -12.038000
C          -0.204000     14.162000     -6.743000
C          -4.957000     12.638000     -9.984000
C          -3.421000     17.557000    -11.180000
C          -6.161000     14.711000     -9.770000
C          -4.787000     13.393000    -11.166000
C          -3.612000     15.633000    -12.354000
C          -0.863000     15.297000    -12.220000
C          -5.362000     13.497000     -7.725000
C           0.427000     14.036000    -10.671000
C          -6.092000     16.002000     -9.013000
C          -5.258000     17.133000     -9.554000
C          -0.303000     12.864000    -10.913000
C           0.052000     17.259000     -8.302000
C           0.970000     15.225000     -8.591000
C           0.417000     15.301000     -7.263000
C          -1.336000     14.295000     -5.944000
C          -4.529000     17.798000     -8.531000
C          -5.664000     13.445000     -9.099000
C          -2.167000     13.217000     -6.189000
C          -2.784000     16.725000    -12.142000
C          -4.256000     12.691000     -7.281000
C          -3.645000     13.254000    -11.916000
C          -2.196000     18.195000     -8.050000
C          -0.259000     12.954000     -7.428000
C          -5.426000     14.621000    -11.018000
C          -1.334000     16.694000     -6.360000
C          -3.074000     14.389000    -12.617000
C          -3.944000     11.766000     -9.537000
C           0.326000     16.414000    -10.678000
C          -0.655000     17.300000    -11.119000
C          -2.774000     11.670000    -10.300000
C          -3.264000     18.322000     -8.919000
C          -4.657000     17.024000    -10.826000
C          -0.975000     18.093000     -8.745000
C          -5.527000     15.893000     -7.622000
C          -2.264000     11.721000     -8.095000
C          -4.725000     15.746000    -11.483000
C          -2.629000     12.404000    -11.507000
C          -2.368000     17.531000     -6.826000
C          -0.475000     12.184000     -9.728000
C          -1.937000     15.540000     -5.837000
C           0.798000     14.035000     -9.327000
C          -3.606000     11.803000     -8.150000
C          -1.712000     11.569000     -9.389000
C          -5.226000     14.684000     -7.050000
C          -4.696000     17.002000     -7.355000
C           0.693000     16.396000     -9.268000
C          -1.507000     12.371000     -7.136000
C          -1.701000     14.182000    -12.445000
C          -1.279000     18.141000    -10.130000
C           0.227000     15.229000    -11.328000
C          -3.588000     16.906000     -6.542000
C          -0.127000     16.589000     -7.111000
$end

--------------------------------------------------------------

             Standard Nuclear Orientation (Angstroms)
    I     Atom           X                Y                Z
 ----------------------------------------------------------------
    1      O       2.5906667792    -3.7472775471     4.6212190113
    2      C       3.9755435699    -3.6088350149     4.8251575800
    3      H       4.3521520844    -2.6196804041     4.5370097313
    4      H       4.5236931302    -4.4377160621     4.3584571736
    5      H       4.1769576199    -3.6919788102     5.9002312936
    6      O       2.7331883519    -4.5432157246     2.4567430889
    7      C       2.0461012217    -4.2922899019     3.3992681585
    8      C       0.4434630175    -4.1885066191     3.3339319758
    9      H       0.1263353556    -3.4303982017     4.0601128580
   10      H       0.0501636503    -5.1517878309     3.6796991152
   11      C      -0.1444873383    -3.8591304766     1.8977207324
   12      H       0.1431313119    -2.8243493968     1.6763937592
   13      H       0.3097316092    -4.5888028304     1.2152132938
   14      C      -1.6889080795    -3.9235352350     1.8662151535
   15      H      -1.9775394034    -4.9554343507     2.1005678234
   16      H      -2.1532556544    -3.4232699139     2.7243666192
   17      C      -2.3094381357    -3.5928471326     0.5190760262
   18      C      -1.9245315782    -4.6143282094    -0.5444635131
   19      C      -2.8483299531    -5.5701833965    -1.0133648074
   20      H      -3.8735990692    -5.4862316086    -0.6652996743
   21      C      -2.4466901121    -6.4960781142    -2.0021698488
   22      H      -3.1719757851    -7.2173696535    -2.3669673378
   23      C      -1.1944959789    -6.4636361752    -2.5850509460
   24      H      -0.9543281776    -7.1138723084    -3.4207706348
   25      C      -0.2788374870    -5.4747247254    -2.1569543792
   26      H       0.7478345679    -5.4596032901    -2.5085590351
   27      C      -0.6579105162    -4.5885155490    -1.1404943780
   28      H       0.1079149606    -3.8634698644    -0.8825445876
   29      C      -3.0003847364     0.3894511837    -3.2405343147
   30      C      -4.9497364344    -1.0445911811    -3.5733532645
   31      C      -8.1049527399     1.7502294836    -1.7594600709
   32      C      -2.6627742709     1.7353227182     1.7275021170
   33      C      -8.0698631693     0.0940094430     1.3684110740
   34      C      -3.5972961358    -0.8559470908    -3.2987487384
   35      C      -5.2445645312     2.0373897939     2.8902761852
   36      C      -6.2319867395     2.2545138566    -3.2204664475
   37      C      -5.9081721645    -2.9076275221    -0.1665780234
   38      C      -3.2276514334     0.6598645237     2.4986236788
   39      C      -3.6108799693    -2.8993266919     0.4488581361
   40      C      -5.8270576723    -2.5463142854     1.2288828983
   41      C      -5.0244312866    -0.5094783275     3.0260006367
   42      C      -6.6492021881     1.8217483689     2.5187821359
   43      C      -4.4059282013    -2.5018175149    -2.0059611573
   44      C      -7.9181515654     2.3762215080     0.4812709051
   45      C      -2.3956117664    -2.1069884256     0.1085446530
   46      C      -2.1475664805    -0.8815343427     0.9724120194
   47      C      -8.4149829053     1.0913878163     0.4333438314
   48      C      -4.3108237750     3.7189281491    -0.6304228874
   49      C      -6.4851292725     3.4754054288    -1.1231441960
   50      C      -5.8114836861     3.2477922013    -2.2564304981
   51      C      -5.2298266813     1.3891919115    -3.7615747077
   52      C      -1.6509442412     0.2088690166     0.1481500068
   53      C      -4.6270486805    -3.0118532861    -0.6914071471
   54      C      -5.7972946546     0.0742804187    -3.7919863052
   55      C      -4.4813575952     0.8080252569     3.0568595222
   56      C      -5.4832809776    -2.0623178686    -2.7783289818
   57      C      -6.7761416631    -1.6694515212     1.7919852613
   58      C      -2.3319321231     2.4246811894    -0.4103237345
   59      C      -7.4027006873     1.4601262154    -2.9579971576
   60      C      -4.4689815780    -2.4388476667     1.5502148887
   61      C      -3.4411374514     2.5354607147    -2.5888272201
   62      C      -6.3624307184    -0.6446606008     2.6657614476
   63      C      -6.9994612557    -2.4057169408    -0.9294245923
   64      C      -5.8468744931     3.5232035000     1.2754677320
   65      C      -4.7362376337     3.0512034266     2.0661356125
   66      C      -7.9337699558    -1.5438393969    -0.3634702196
   67      C      -1.9635442927     1.4909518050     0.5619107245
   68      C      -2.9367793695    -0.6237975845     2.1207572546
   69      C      -3.2178619999     3.3032525267     0.1911666300
   70      C      -2.3297149832    -1.4848102108    -1.2982410034
   71      C      -7.6291207833    -0.8652473015    -2.5014109694
   72      C      -4.0869153134    -1.3579035480     2.4005084743
   73      C      -7.8724102001    -1.2437940587     0.9803671126
   74      C      -2.4276744415     2.0699080331    -1.7471821474
   75      C      -8.5650149587     0.7203752396    -0.9309354841
   76      C      -3.8542349833     1.4656995396    -3.3921101449
   77      C      -7.6683889016     2.8369481644    -0.9059001586
   78      C      -6.7762917843    -1.9825969509    -2.2344157269
   79      C      -8.3243640274    -0.5807179988    -1.3600561134
   80      C      -3.2743368165    -1.7671229541    -2.3257467732
   81      C      -1.7870963776    -0.1948362006    -1.1863209345
   82      C      -5.6113927939     3.8012527251    -0.0957342946
   83      C      -7.1116793429     0.1300316002    -3.3358660393
   84      C      -7.1271455422     0.4854656712     2.3593371544
   85      C      -3.4338235333     2.9163808202     1.4869323876
   86      C      -7.0095652752     2.8086968179     1.5885992482
   87      C      -2.0749375851     0.7104670506    -2.1908384618
   88      C      -4.4072238951     3.3444696969    -1.9919198152
   89      O       2.5810997649     5.7679262571     2.1001128976
   90      C       3.5415410093     6.4436473822     1.2656246848
   91      H       3.3781633994     6.0048179727     0.2729900562
   92      H       4.5628988434     6.2825440484     1.6320232252
   93      H       3.3551353616     7.5249636088     1.2452739420
   94      O       0.7921199208     6.3285317694     0.7251155969
   95      C       1.2297373214     5.7906088412     1.7171115314
   96      C       0.3714419859     5.0366831879     2.7471995016
   97      H      -0.6355509010     5.4311080045     2.5610694664
   98      H       0.6591511506     5.2807453364     3.7774689344
   99      C       0.4201288655     3.5043429170     2.6122703284
  100      H      -0.4746406660     2.9822850415     2.9721314962
  101      H       0.3621292614     3.2592121749     1.5448205800
  102      C       1.6879090463     2.8369947488     3.3867487565
  103      H       2.6540649321     3.3298959841     3.2191475137
  104      H       1.6722376374     3.0922262634     4.4534526896
  105      C       1.9034176252     1.3161430503     3.0320867151
  106      C       1.2748652569     0.4199532101     4.0536265775
  107      C       2.0492806667    -0.0301436494     5.1647681482
  108      H       3.0232921815     0.4276619610     5.3025708776
  109      C       1.4058224370    -0.9885720826     6.0515186460
  110      H       1.9903864027    -1.3911080641     6.8729769551
  111      C       0.0705398793    -1.4398236276     5.8110159763
  112      H      -0.3476175556    -2.2682477987     6.3759785878
  113      C      -0.5688604939    -1.0360248998     4.6565105626
  114      H      -1.5512908324    -1.4805053462     4.5278491358
  115      C      -0.0460062224    -0.0675227092     3.8700107740
  116      H      -0.7430268356     0.3863331810     3.1707889954
  117      C       5.9665531918    -2.0148783895     1.4952410703
  118      C       4.0512712096    -2.9740629710     0.4497522528
  119      C       5.1890841937    -1.6869051532    -3.6646003530
  120      C       6.4813231744     2.8668230897     0.3586727556
  121      C       3.1235055584     1.0822312836    -3.7856924483
  122      C       4.6024108030    -2.3200040138     1.5391488882
  123      C       5.4605488066     3.2401385720    -2.2274148764
  124      C       6.5545978045    -2.5863696771    -1.9403897658
  125      C       1.3209313649    -0.1900527667    -0.4290768057
  126      C       5.2014504024     3.3571139003     0.1586762345
  127      C       2.0603145040     0.9534456510     1.5554798053
  128      C       1.5036503603     1.1786868185    -0.7277651328
  129      C       3.3301005732     3.2592892770    -1.1082149053
  130      C       4.8776385626     2.6113475724    -3.3157363024
  131      C       2.4940196968    -1.5017861986     1.2762695430
  132      C       5.4031428637     0.4726013297    -4.2119682696
  133      C       3.2673708931     1.0517393417     2.4374345797
  134      C       4.3627129660     2.0235665927     2.0864708530
  135      C       4.0537348255     0.1043848812    -4.3045025523
  136      C       8.2510447643     0.3960208135    -1.3792831144
  137      C       7.3306978360    -0.6278958071    -3.1591587520
  138      C       7.5293912189    -1.6001221232    -2.1149049850
  139      C       6.2315709034    -3.0206209050    -0.6579727150
  140      C       5.6557780718     1.4686651795     2.2871249178
  141      C       1.7574008186    -0.3697557218     0.8791755644
  142      C       4.8818058904    -3.3207029371    -0.6304921075
  143      C       4.6752639099     3.5945907524    -1.1413889639
  144      C       2.8035258340    -2.4583416457     0.2470875244
  145      C       1.8470970182     1.5682499794    -1.9990911873
  146      C       7.5718468589     1.0020838057     0.8932665231
  147      C       5.4398366567    -2.6986270476    -2.7627156538
  148      C       1.9961811660     1.8292817375     0.4002192007
  149      C       7.7169479292    -1.3323760045     0.2757002723
  150      C       2.7203817903     2.7065236290    -2.2167464314
  151      C       1.5280318439    -1.1743342682    -1.4163261751
  152      C       6.9616701971     1.8278964583    -3.0290474501
  153      C       6.7864729460     2.8110752918    -2.0571918515
  154      C       1.9136095911    -0.7535363743    -2.6948190117
  155      C       6.6641730547     1.9194428854     1.3897487323
  156      C       4.1924743701     2.9253749045     1.0146375687
  157      C       8.0106759493     1.3574529455    -0.3972418279
  158      C       4.0655699220    -0.2181287317     2.5651075458
  159      C       3.0894964126    -2.5916870501    -2.0921430823
  160      C       3.0321433671     2.7525397732     0.1819809883
  161      C       2.0569702771     0.6270080551    -2.9951101907
  162      C       7.4656708588    -0.3495713491     1.2543911547
  163      C       3.9221138558    -1.2243927222    -3.9679984642
  164      C       6.7443328806    -2.3317959447     0.4307284969
  165      C       6.1357418785    -0.6734791484    -3.9057392356
  166      C       2.2818601927    -2.3299981864    -1.0481336595
  167      C       2.8509067525    -1.6898404645    -3.1560940727
  168      C       3.6416054414    -1.4034611422     2.0222381363
  169      C       5.4447008522     0.0814003355     2.5617586009
  170      C       7.7047044260     0.6188320523    -2.6986289320
  171      C       4.3660883697    -3.1062787707    -1.9481349710
  172      C       3.5056410653     2.2750126771    -3.2913292199
  173      C       7.3370242739     2.5549395765    -0.7510273401
  174      C       5.8480021100     1.7055602863    -3.7914799079
  175      C       6.3778445298    -0.7778549970     2.0243833591
  176      C       8.1240903493    -0.9311487466    -1.0301047427
 ----------------------------------------------------------------

   10   -5804.2627747892      3.07E-06 Convergence criterion met
 Total energy in the final basis set = -5804.2627747892

                    Orbital Energies (a.u.)
 --------------------------------------------------------------

 Alpha MOs
 -- Occupied --
-19.186 -19.181 -19.153 -19.143 -10.329 -10.319 -10.245 -10.243
-10.240 -10.240 -10.240 -10.239 -10.238 -10.237 -10.236 -10.234
-10.229 -10.229 -10.229 -10.228 -10.228 -10.226 -10.226 -10.225
-10.225 -10.225 -10.224 -10.224 -10.224 -10.224 -10.223 -10.223
-10.223 -10.223 -10.223 -10.223 -10.223 -10.222 -10.221 -10.221
-10.221 -10.220 -10.220 -10.220 -10.220 -10.220 -10.220 -10.219
-10.219 -10.219 -10.219 -10.219 -10.218 -10.218 -10.218 -10.218
-10.218 -10.218 -10.218 -10.217 -10.217 -10.217 -10.216 -10.216
-10.216 -10.216 -10.216 -10.216 -10.216 -10.216 -10.215 -10.215
-10.215 -10.215 -10.215 -10.215 -10.215 -10.215 -10.215 -10.215
-10.215 -10.215 -10.215 -10.214 -10.214 -10.214 -10.214 -10.214
-10.214 -10.214 -10.214 -10.214 -10.213 -10.213 -10.213 -10.213
-10.213 -10.213 -10.213 -10.212 -10.212 -10.212 -10.212 -10.212
-10.211 -10.211 -10.211 -10.211 -10.211 -10.211 -10.211 -10.211
-10.210 -10.210 -10.210 -10.210 -10.210 -10.210 -10.209 -10.209
-10.209 -10.209 -10.208 -10.208 -10.208 -10.208 -10.208 -10.208
-10.207 -10.206 -10.206 -10.206 -10.206 -10.205 -10.204 -10.204
-10.204 -10.203 -10.202 -10.201 -10.199 -10.198 -10.197 -10.197
-10.196 -10.194 -10.194 -10.192  -1.088  -1.082  -1.018  -1.013
 -0.985  -0.983  -0.968  -0.965  -0.965  -0.964  -0.963  -0.961
 -0.937  -0.935  -0.930  -0.928  -0.927  -0.925  -0.925  -0.923
 -0.923  -0.918  -0.899  -0.898  -0.891  -0.891  -0.887  -0.882
 -0.875  -0.874  -0.854  -0.853  -0.844  -0.842  -0.842  -0.841
 -0.838  -0.835  -0.823  -0.819  -0.801  -0.800  -0.798  -0.798
 -0.797  -0.794  -0.794  -0.793  -0.792  -0.792  -0.786  -0.785
 -0.773  -0.772  -0.771  -0.769  -0.768  -0.767  -0.764  -0.761
 -0.748  -0.747  -0.741  -0.736  -0.732  -0.727  -0.720  -0.716
 -0.715  -0.715  -0.714  -0.713  -0.713  -0.711  -0.710  -0.709
 -0.708  -0.708  -0.706  -0.704  -0.699  -0.698  -0.675  -0.674
 -0.661  -0.659  -0.658  -0.657  -0.649  -0.646  -0.633  -0.631
 -0.628  -0.627  -0.625  -0.625  -0.623  -0.623  -0.619  -0.618
 -0.617  -0.616  -0.615  -0.614  -0.612  -0.611  -0.611  -0.610
 -0.610  -0.606  -0.604  -0.602  -0.567  -0.565  -0.565  -0.564
 -0.559  -0.559  -0.558  -0.557  -0.556  -0.555  -0.555  -0.553
 -0.537  -0.536  -0.535  -0.532  -0.529  -0.528  -0.527  -0.526
 -0.525  -0.523  -0.521  -0.521  -0.517  -0.517  -0.516  -0.516
 -0.507  -0.507  -0.499  -0.497  -0.492  -0.490  -0.488  -0.486
 -0.485  -0.484  -0.482  -0.481  -0.479  -0.477  -0.476  -0.475
 -0.475  -0.473  -0.472  -0.471  -0.470  -0.468  -0.467  -0.467
 -0.465  -0.464  -0.463  -0.462  -0.462  -0.461  -0.460  -0.458
 -0.456  -0.454  -0.454  -0.453  -0.450  -0.446  -0.446  -0.444
 -0.442  -0.442  -0.440  -0.438  -0.438  -0.438  -0.437  -0.433
 -0.432  -0.431  -0.429  -0.428  -0.428  -0.426  -0.425  -0.424
 -0.423  -0.422  -0.422  -0.421  -0.420  -0.419  -0.419  -0.418
 -0.417  -0.417  -0.416  -0.415  -0.415  -0.414  -0.414  -0.413
 -0.413  -0.411  -0.411  -0.408  -0.402  -0.400  -0.400  -0.396
 -0.396  -0.394  -0.394  -0.391  -0.390  -0.389  -0.389  -0.387
 -0.385  -0.378  -0.376  -0.374  -0.370  -0.368  -0.368  -0.368
 -0.365  -0.364  -0.364  -0.361  -0.360  -0.360  -0.360  -0.358
 -0.357  -0.357  -0.356  -0.355  -0.355  -0.354  -0.353  -0.352
 -0.351  -0.349  -0.348  -0.347  -0.346  -0.345  -0.344  -0.343
 -0.343  -0.341  -0.340  -0.339  -0.338  -0.337  -0.335  -0.333
 -0.333  -0.332  -0.331  -0.329  -0.328  -0.326  -0.326  -0.320
 -0.315  -0.307  -0.296  -0.294  -0.290  -0.288  -0.279  -0.274
 -0.274  -0.273  -0.269  -0.269  -0.268  -0.266  -0.266  -0.264
 -0.262  -0.262  -0.261  -0.259  -0.259  -0.256  -0.254  -0.252
 -0.251  -0.245  -0.244  -0.243  -0.227  -0.223  -0.217  -0.211
 -0.210  -0.209  -0.208  -0.206  -0.201  -0.199

          Ground-State Mulliken Net Atomic Charges

     Atom                 Charge (a.u.)
  ----------------------------------------
      1 O                    -0.487240
      2 C                    -0.075866
      3 H                     0.116628
      4 H                     0.120647
      5 H                     0.110089
      6 O                    -0.428465
      7 C                     0.587101
      8 C                    -0.277656
      9 H                     0.139981
     10 H                     0.124310
     11 C                    -0.183726
     12 H                     0.121430
     13 H                     0.134794
     14 C                    -0.196815
     15 H                     0.110764
     16 H                     0.105192
     17 C                     0.026821
     18 C                     0.086300
     19 C                    -0.113123
     20 H                     0.092933
     21 C                    -0.092758
     22 H                     0.087973
     23 C                    -0.078454
     24 H                     0.092720
     25 C                    -0.101333
     26 H                     0.096872
     27 C                    -0.105742
     28 H                     0.098722
     29 C                     0.003201
     30 C                    -0.005540
     31 C                     0.004203
     32 C                    -0.015157
     33 C                    -0.019315
     34 C                    -0.003179
     35 C                    -0.025737
     36 C                    -0.027459
     37 C                    -0.006616
     38 C                    -0.006966
     39 C                    -0.108926
     40 C                    -0.013773
     41 C                    -0.040975
     42 C                    -0.010411
     43 C                     0.009293
     44 C                    -0.015665
     45 C                    -0.075637
     46 C                     0.025588
     47 C                     0.029939
     48 C                    -0.005181
     49 C                     0.059045
     50 C                    -0.004716
     51 C                     0.000216
     52 C                    -0.002640
     53 C                     0.026412
     54 C                    -0.004079
     55 C                     0.015054
     56 C                    -0.000378
     57 C                    -0.009879
     58 C                     0.026927
     59 C                    -0.004446
     60 C                     0.046564
     61 C                    -0.009849
     62 C                     0.006083
     63 C                    -0.001155
     64 C                    -0.009782
     65 C                     0.010971
     66 C                     0.012320
     67 C                     0.006523
     68 C                     0.002565
     69 C                    -0.010227
     70 C                     0.044124
     71 C                     0.002195
     72 C                    -0.019427
     73 C                    -0.011730
     74 C                    -0.002621
     75 C                    -0.007016
     76 C                     0.024240
     77 C                    -0.043945
     78 C                    -0.011438
     79 C                     0.017677
     80 C                     0.012305
     81 C                     0.030866
     82 C                     0.015010
     83 C                     0.004807
     84 C                     0.034144
     85 C                    -0.008342
     86 C                    -0.015079
     87 C                    -0.034957
     88 C                    -0.001449
     89 O                    -0.480354
     90 C                    -0.083014
     91 H                     0.129241
     92 H                     0.124530
     93 H                     0.122657
     94 O                    -0.453385
     95 C                     0.596787
     96 C                    -0.245284
     97 H                     0.130105
     98 H                     0.121247
     99 C                    -0.196868
    100 H                     0.114451
    101 H                     0.119643
    102 C                    -0.199684
    103 H                     0.127306
    104 H                     0.108154
    105 C                     0.006135
    106 C                     0.074358
    107 C                    -0.110897
    108 H                     0.096419
    109 C                    -0.085934
    110 H                     0.090344
    111 C                    -0.083231
    112 H                     0.090260
    113 C                    -0.094089
    114 H                     0.092342
    115 C                    -0.092162
    116 H                     0.088656
    117 C                     0.000096
    118 C                     0.068035
    119 C                     0.016251
    120 C                    -0.016057
    121 C                    -0.002322
    122 C                    -0.000352
    123 C                     0.018666
    124 C                     0.020176
    125 C                     0.017805
    126 C                    -0.020838
    127 C                    -0.058515
    128 C                     0.015747
    129 C                     0.017271
    130 C                    -0.020808
    131 C                    -0.034299
    132 C                     0.014362
    133 C                    -0.089862
    134 C                    -0.004662
    135 C                    -0.011600
    136 C                    -0.007869
    137 C                    -0.036093
    138 C                    -0.004444
    139 C                    -0.005103
    140 C                    -0.026848
    141 C                     0.032701
    142 C                    -0.024922
    143 C                    -0.011739
    144 C                     0.011608
    145 C                    -0.011542
    146 C                     0.011148
    147 C                    -0.012404
    148 C                     0.007587
    149 C                    -0.016449
    150 C                    -0.046504
    151 C                    -0.035531
    152 C                     0.010582
    153 C                    -0.009499
    154 C                     0.008885
    155 C                     0.021747
    156 C                     0.033579
    157 C                     0.002428
    158 C                     0.044900
    159 C                     0.025440
    160 C                     0.018895
    161 C                     0.006276
    162 C                    -0.015709
    163 C                     0.008804
    164 C                     0.025794
    165 C                    -0.005937
    166 C                    -0.018980
    167 C                    -0.027152
    168 C                     0.012181
    169 C                    -0.001743
    170 C                     0.016631
    171 C                    -0.019508
    172 C                     0.037486
    173 C                    -0.019962
    174 C                     0.004081
    175 C                    -0.012534
    176 C                     0.004210
  ----------------------------------------
  Sum of atomic charges =     0.000000

                    Cartesian Multipole Moments
 -----------------------------------------------------------------
    Charge (ESU x 10^10)
                 0.0000
    Dipole Moment (Debye)
         X       0.4666      Y      -2.3466      Z       3.2597
       Tot       4.0435
    Quadrupole Moments (Debye-Ang)
        XX    -812.7228     XY      16.3172     YY    -805.3920
        XZ      10.6909     YZ       3.1817     ZZ    -792.5318

 Total job time:  995.64s(wall), 9621.58s(cpu)
        *  Thank you very much for using Q-Chem.  Have a nice day.  *
