 Q-Chem 4.4, Q-Chem, Inc., Pleasanton, CA (2016)
 Q-Chem 4.4.2 for Intel X86 Linux

User input:
--------------------------------------------------------------
$comment
SP
$end

$rem
MEM_STATIC 5000
MEM_TOTAL 20000
JOBTYPE SP
EXCHANGE B3LYP
BASIS 6-31g(d,p)
$end

$molecule
0 1
O         -11.272000    -15.779000     14.585000
C         -10.722000    -14.427000     14.297000
H         -11.340000    -13.796000     13.646000
H          -9.899000    -14.689000     13.620000
H         -10.455000    -13.907000     15.225000
O         -11.872000    -16.243000     12.436000
C         -11.832000    -16.530000     13.617000
C         -12.517000    -17.722000     14.271000
H         -12.732000    -17.429000     15.306000
H         -11.845000    -18.580000     14.388000
C         -13.837000    -18.105000     13.488000
H         -14.377000    -17.165000     13.317000
H         -13.505000    -18.514000     12.525000
C         -14.581000    -19.220000     14.322000
H         -13.856000    -19.957000     14.689000
H         -15.062000    -18.714000     15.168000
C         -15.598000    -19.960000     13.441000
C         -16.563000    -19.006000     12.922000
C         -16.458000    -18.487000     11.605000
H         -15.681000    -19.006000     11.052000
C         -17.161000    -17.323000     11.185000
H         -17.041000    -16.888000     10.197000
C         -18.020000    -16.731000     12.078000
H         -18.505000    -15.826000     11.725000
C         -18.231000    -17.307000     13.367000
H         -18.742000    -16.825000     14.196000
C         -17.466000    -18.428000     13.818000
H         -17.451000    -18.690000     14.872000
C         -19.280000    -24.047000     13.581000
C         -18.797000    -23.772000     11.163000
C         -16.470000    -27.633000     10.743000
C         -14.820000    -24.742000     16.140000
C         -13.382000    -26.099000     10.906000
C         -18.981000    -23.196000     12.472000
C         -13.083000    -26.107000     14.474000
C         -18.513000    -27.215000     12.023000
C         -15.049000    -22.396000     10.655000
C         -13.843000    -24.010000     15.473000
C         -15.276000    -21.204000     12.687000
C         -13.816000    -22.535000     11.327000
C         -12.767000    -23.889000     13.505000
C         -12.932000    -26.645000     13.195000
C         -17.347000    -22.034000     11.417000
C         -14.539000    -28.037000     11.855000
C         -16.096000    -21.327000     13.898000
C         -15.478000    -22.202000     15.010000
C         -14.282000    -27.200000     10.781000
C         -16.899000    -27.527000     15.154000
C         -16.624000    -28.387000     13.033000
C         -17.925000    -27.930000     13.128000
C         -19.158000    -25.991000     12.182000
C         -16.503000    -23.009000     15.578000
C         -15.952000    -21.761000     11.432000
C         -18.888000    -25.157000     11.066000
C         -12.986000    -24.697000     14.629000
C         -17.787000    -23.057000     10.567000
C         -13.175000    -23.773000     11.124000
C         -17.072000    -25.281000     15.968000
C         -17.798000    -27.118000     10.774000
C         -13.961000    -21.946000     12.578000
C         -18.806000    -26.100000     14.553000
C         -12.568000    -24.447000     12.242000
C         -15.523000    -23.445000      9.797000
C         -14.652000    -27.793000     14.273000
C         -14.104000    -26.834000     15.149000
C         -14.818000    -24.667000      9.562000
C         -16.199000    -24.249000     16.164000
C         -14.211000    -22.795000     14.855000
C         -16.350000    -26.513000     15.971000
C         -17.482000    -21.894000     13.785000
C         -17.053000    -25.118000      9.505000
C         -13.456000    -22.712000     13.684000
C         -13.641000    -24.837000     10.275000
C         -18.322000    -25.084000     15.364000
C         -15.484000    -26.971000     10.036000
C         -19.347000    -25.412000     13.447000
C         -15.933000    -28.294000     11.852000
C         -16.913000    -23.705000      9.675000
C         -15.781000    -25.682000      9.443000
C         -18.116000    -22.106000     12.570000
C         -17.691000    -22.763000     14.888000
C         -16.000000    -28.190000     14.311000
C         -18.042000    -25.853000     10.161000
C         -12.702000    -25.821000     12.087000
C         -14.975000    -26.151000     15.996000
C         -13.885000    -27.794000     13.074000
C         -18.605000    -23.824000     14.770000
C         -18.063000    -27.331000     14.381000
O          -9.119000    -28.894000      1.243000
C          -8.618000    -28.381000     -0.025000
H          -7.596000    -28.699000     -0.265000
H          -8.553000    -27.287000      0.036000
H          -9.144000    -28.765000     -0.907000
O          -7.886000    -27.496000      2.518000
C          -8.689000    -28.363000      2.466000
C          -9.275000    -28.935000      3.734000
H          -8.861000    -28.368000      4.576000
H          -9.074000    -30.014000      3.748000
C         -10.817000    -28.781000      3.848000
H         -11.258000    -28.450000      2.900000
H         -11.304000    -29.727000      4.114000
C         -11.159000    -27.769000      4.983000
H         -10.914000    -28.159000      5.979000
H         -10.670000    -26.798000      4.836000
C         -12.657000    -27.689000      5.116000
C         -13.241000    -28.860000      6.001000
C         -13.885000    -29.982000      5.399000
H         -14.128000    -29.916000      4.343000
C         -14.503000    -30.993000      6.087000
H         -14.937000    -31.846000      5.572000
C         -14.566000    -30.869000      7.457000
H         -15.170000    -31.646000      7.918000
C         -13.977000    -29.814000      8.170000
H         -14.046000    -29.753000      9.252000
C         -13.267000    -28.811000      7.426000
H         -12.808000    -27.961000      7.921000
C         -16.998000    -27.015000      1.677000
C         -17.897000    -26.304000      3.802000
C         -18.045000    -21.882000      2.914000
C         -12.688000    -24.494000      0.504000
C         -15.039000    -21.146000      4.579000
C         -17.073000    -27.123000      3.056000
C         -13.018000    -22.012000      1.733000
C         -18.652000    -23.782000      1.523000
C         -14.973000    -24.879000      6.141000
C         -12.096000    -24.247000      1.785000
C         -13.480000    -26.424000      5.059000
C         -13.841000    -24.184000      5.840000
C         -12.282000    -23.142000      3.808000
C         -13.798000    -21.184000      2.489000
C         -15.966000    -26.709000      5.048000
C         -16.131000    -20.758000      2.465000
C         -13.356000    -27.166000      3.785000
C         -12.706000    -26.448000      2.614000
C         -16.232000    -20.880000      3.847000
C         -15.849000    -23.419000     -0.616000
C         -17.153000    -22.070000      0.689000
C         -17.813000    -23.290000      0.512000
C         -18.576000    -25.124000      1.780000
C         -13.373000    -26.679000      1.436000
C         -14.857000    -26.219000      5.697000
C         -18.634000    -25.294000      3.190000
C         -12.233000    -22.980000      2.378000
C         -17.242000    -26.064000      5.074000
C         -13.882000    -22.771000      5.500000
C         -14.539000    -25.478000     -0.284000
C         -18.772000    -23.125000      2.781000
C         -12.895000    -25.050000      5.228000
C         -16.964000    -25.489000      0.040000
C         -13.022000    -22.261000      4.535000
C         -16.173000    -24.192000      6.108000
C         -14.807000    -21.585000      0.526000
C         -13.568000    -22.271000      0.518000
C         -16.256000    -22.820000      5.869000
C         -13.367000    -25.703000      0.370000
C         -12.142000    -25.176000      2.825000
C         -14.605000    -24.103000     -0.658000
C         -14.613000    -27.589000      3.161000
C         -18.118000    -23.780000      4.998000
C         -12.235000    -24.489000      4.094000
C         -15.080000    -22.088000      5.598000
C         -15.758000    -26.168000      0.034000
C         -17.363000    -21.603000      4.093000
C         -17.737000    -25.944000      1.085000
C         -17.274000    -21.356000      1.871000
C         -17.337000    -24.786000      5.597000
C         -17.396000    -22.583000      5.101000
C         -15.894000    -27.386000      3.825000
C         -14.581000    -27.382000      1.735000
C         -15.926000    -22.166000      0.020000
C         -18.751000    -24.056000      3.783000
C         -13.845000    -21.288000      3.877000
C         -13.421000    -23.522000     -0.087000
C         -14.911000    -20.883000      1.728000
C         -15.778000    -27.113000      1.041000
C         -16.994000    -24.079000     -0.299000
$end

--------------------------------------------------------------

             Standard Nuclear Orientation (Angstroms)
    I     Atom           X                Y                Z
 ----------------------------------------------------------------
    1      O       7.8240340031     6.4252568462    -5.1420120214
    2      C       7.7937743486     7.7723351558    -5.7727357177
    3      H       7.3821364076     8.5754466340    -5.1486746958
    4      H       6.9837547190     7.6316053735    -6.4996231422
    5      H       8.7792388593     8.0394828721    -6.1731914528
    6      O       5.7105539261     6.5230619037    -4.2951748854
    7      C       6.7806648605     5.9608775847    -4.4276187587
    8      C       7.2170887659     4.6895272405    -3.7127708889
    9      H       8.3095289317     4.7393337965    -3.6267895477
   10      H       7.0542108135     3.7905446350    -4.3183598977
   11      C       6.5255580282     4.5822687909    -2.2941592916
   12      H       6.6398547548     5.5658884212    -1.8210106035
   13      H       5.4623379716     4.3959928821    -2.4935042116
   14      C       7.1604870213     3.3460919365    -1.5451272774
   15      H       7.2608853621     2.5016845800    -2.2382213471
   16      H       8.1503460232     3.6630237475    -1.1946327929
   17      C       6.2567621631     2.8983902173    -0.3871572643
   18      C       6.0874318682     4.0034546022     0.5406692046
   19      C       4.9226075887     4.8144764979     0.5232656797
   20      H       4.1784483160     4.3977389244    -0.1486389055
   21      C       4.8669366902     6.0841611404     1.1638175197
   22      H       3.9988397281     6.7344209742     1.1060350575
   23      C       5.9659227683     6.4953868642     1.8772017109
   24      H       5.8899336091     7.4852582836     2.3167915434
   25      C       7.1028565661     5.6419942835     2.0072810809
   26      H       8.0742396598     5.9414715491     2.3912267187
   27      C       7.1911956075     4.4029700972     1.2985623218
   28      H       8.1472819895     3.8967695553     1.2013777474
   29      C       5.8768587077    -0.8812564877     3.5940783668
   30      C       3.5482096966    -0.0663474785     3.3314853552
   31      C       1.9817787075    -3.8452459288     1.3911579450
   32      C       7.6709749355    -2.4263815038    -1.0229381640
   33      C       2.1345400887    -2.5779077973    -1.8160194778
   34      C       4.9670305065     0.1906395600     3.3357481377
   35      C       5.5449811158    -3.4540199720    -2.4651792872
   36      C       3.5519710321    -3.6256470799     3.2548224559
   37      C       2.9396590428     1.1691908929    -0.4503204350
   38      C       7.0819952809    -1.6149464626    -1.9872607970
   39      C       5.2040290398     1.8534250168    -0.5269310129
   40      C       3.4136594636     0.8019953611    -1.7276947116
   41      C       5.0837195180    -1.0913572097    -2.8694111638
   42      C       4.1677386311    -3.6793920176    -2.4428952227
   43      C       4.0261075505     1.4729621147     1.7221999182
   44      C       2.7386997246    -4.6151267081    -0.5995392092
   45      C       6.4407937712     1.4934253162     0.1765341353
   46      C       7.2415212976     0.3438511800    -0.4726251162
   47      C       1.8643317833    -3.5626889316    -0.8185127914
   48      C       6.3174453348    -4.7692455281     1.3707217499
   49      C       4.0380940162    -5.1132315259     1.3805807532
   50      C       4.3863217124    -4.6166938276     2.6226205214
   51      C       4.0627695156    -2.4392678476     3.7754674660
   52      C       7.7231329114    -0.5138686850     0.5554142248
   53      C       3.9416049885     1.6523387669     0.3145556685
   54      C       3.1456246771    -1.3804838819     3.5480166819
   55      C       6.0086686664    -2.1298313778    -2.6955104019
   56      C       3.0200700376     0.7097445147     2.3288434856
   57      C       2.8575885392    -0.3872284874    -2.2388363407
   58      C       7.6419484431    -2.7759909687     1.2723918089
   59      C       2.2846887568    -3.2756410632     2.6614200436
   60      C       4.7749176595     1.0831316890    -1.7574518833
   61      C       6.2873557053    -3.1309469840     3.2008177842
   62      C       3.7117487954    -1.3427431656    -2.8946190459
   63      C       1.9238435233     0.3846680132     0.1930174867
   64      C       5.1440951743    -4.9485919605    -0.7475346694
   65      C       6.1479510730    -4.2599392843    -1.4584438241
   66      C       1.3331176903    -0.7851624673    -0.3797596402
   67      C       7.9679693315    -1.8734473676     0.3004378859
   68      C       6.8079083919    -0.2682237479    -1.6635521210
   69      C       7.2768713022    -4.0132657858     0.6600302260
   70      C       6.3617660218     1.0518925529     1.6097324585
   71      C       1.4335140820    -1.0778852927     1.8799104490
   72      C       5.6081079526     0.0472682022    -2.3031603881
   73      C       1.8460793734    -1.1889067829    -1.6030579845
   74      C       7.2489929201    -2.3677914201     2.5550001223
   75      C       1.3369656941    -3.0926561073     0.4277713464
   76      C       5.4403549039    -2.1685873449     3.7887927559
   77      C       2.8383695133    -4.7819133766     0.8045769329
   78      C       1.9073925797     0.2431164712     1.6052060462
   79      C       1.0958554371    -1.6843182633     0.6723717574
   80      C       5.2126808785     1.1732455903     2.3765451957
   81      C       7.2511971540    -0.0412918023     1.7809376766
   82      C       5.2457440317    -5.2635631279     0.6187075029
   83      C       2.0125680454    -1.8889026607     2.8574734068
   84      C       3.2606600612    -2.6298673094    -2.6306353484
   85      C       7.2248787777    -3.7488274944    -0.7362731677
   86      C       3.8964771336    -4.7085538726    -1.3891902943
   87      C       6.9986025509    -0.9881470454     2.7882619119
   88      C       5.7510058078    -4.3267505002     2.5848821234
   89      O      -8.3403416688    -3.2326655989    -4.8503080909
   90      C      -9.5051870402    -2.4623337413    -5.2646969055
   91      H      -9.9290462874    -2.7732118507    -6.2274565535
   92      H      -9.2014794903    -1.4201806963    -5.4273645268
   93      H     -10.3847743227    -2.5934482692    -4.6234549910
   94      O      -6.9292932652    -2.2537136780    -6.3169074019
   95      C      -7.0862685642    -3.0347471852    -5.4425233810
   96      C      -5.9251626064    -3.8572952695    -4.9388850147
   97      H      -5.0290080982    -3.5326863973    -5.4805354347
   98      H      -6.1838365112    -4.9183689121    -5.0486508381
   99      C      -5.6004838200    -3.6448992673    -3.4342429895
  100      H      -6.3887920954    -3.0721430831    -2.9309871733
  101      H      -5.5051515933    -4.5968506774    -2.8980142330
  102      C      -4.2308584030    -2.9145156482    -3.2928252187
  103      H      -3.3870302656    -3.5444345360    -3.6015277768
  104      H      -4.2056923651    -1.9668242702    -3.8449291243
  105      C      -3.9099998785    -2.7809614438    -1.8274562953
  106      C      -3.2572923646    -4.0929548183    -1.2373984282
  107      C      -4.0228894208    -4.9993352992    -0.4447070812
  108      H      -4.9996431177    -4.6693058542    -0.1047456408
  109      C      -3.5196509684    -6.1072584266     0.1850916198
  110      H      -4.1635365905    -6.7859184104     0.7382841107
  111      C      -2.1601972314    -6.3100647599     0.1014248519
  112      H      -1.8239157226    -7.1378400268     0.7201080136
  113      C      -1.2964320152    -5.4918820855    -0.6420815453
  114      H      -0.2290453303    -5.6867299040    -0.6859676755
  115      C      -1.8662976852    -4.3837472213    -1.3568788877
  116      H      -1.2453282341    -3.7046900037    -1.9326255647
  117      C      -6.5729324244    -1.0533113754     2.7604946087
  118      C      -4.2516361840    -0.8181773607     3.3814960253
  119      C      -4.0724387057     3.6888620743     3.2435982569
  120      C      -7.6250938587     1.4178420445    -1.6091537858
  121      C      -2.6431463716     3.8292571374     0.0362052891
  122      C      -5.2568997220    -1.4824582292     2.7073824244
  123      C      -5.8270052023     3.5501011441    -1.6128028605
  124      C      -5.7840141781     2.2142844838     4.1432983914
  125      C      -2.0027681656    -0.1658015934     0.1306006880
  126      C      -6.3992982708     1.3171380763    -2.3438087304
  127      C      -3.5777541828    -1.4929054408    -1.1123845991
  128      C      -2.2646890507     0.5134110717    -1.0205368388
  129      C      -4.1684490351     1.9167811487    -2.4528494264
  130      C      -4.8151134003     4.2181452590    -0.9840644080
  131      C      -3.3654900915    -1.6209820294     1.3776118553
  132      C      -4.4691850233     4.7734411967     1.2956112223
  133      C      -4.9940825696    -1.9156430310    -1.0466363651
  134      C      -6.0352346533    -0.9784438727    -1.6356398255
  135      C      -3.1504644562     4.3315300741     1.2691607863
  136      C      -8.0921798152     2.9121130745     1.5453558113
  137      C      -6.3689050564     3.9849722788     2.5953744937
  138      C      -6.7446602988     2.8831808753     3.3700955409
  139      C      -5.8540752892     0.8476353035     4.1555645507
  140      C      -7.1491254716    -0.8823999777    -0.8381708198
  141      C      -2.7542392839    -1.3656893287     0.1724645252
  142      C      -4.5243673968     0.3499987186     4.0877504648
  143      C      -5.5182789168     2.4119590132    -2.3734569018
  144      C      -3.0434641672    -0.9272099564     2.5858571180
  145      C      -2.2625010858     1.9666296879    -1.0652678838
  146      C      -8.3984220741     0.7602705099     0.3870837121
  147      C      -4.4032121871     2.5582056928     4.0823306642
  148      C      -3.1655012365    -0.2355293845    -1.8249257989
  149      C      -7.8064047797     0.8143467632     2.7603332316
  150      C      -3.1769937181     2.6407758153    -1.8653648930
  151      C      -1.7368780081     0.5783037247     1.2657956932
  152      C      -6.6868859256     4.3566168577     0.2445707006
  153      C      -6.9966829184     3.6209742950    -0.9253168338
  154      C      -1.6416953546     1.9701519237     1.2561596593
  155      C      -7.9545643791     0.3175724015    -0.8207795796
  156      C      -5.6034934554     0.1712691694    -2.3229246711
  157      C      -8.4349429956     2.1862243500     0.3737095499
  158      C      -5.5485453841    -2.1032821352     0.2971331664
  159      C      -2.4883963144     1.3562824494     3.2695018441
  160      C      -4.2082799276     0.5400676981    -2.4142803330
  161      C      -1.8712082418     2.6755012493     0.0553069774
  162      C      -8.1088238077     0.0869453600     1.6223776393
  163      C      -2.9482524654     3.6382317633     2.4271131874
  164      C      -6.8120405068     0.1693448952     3.4616115524
  165      C      -5.0482629990     4.4023303668     2.5381225704
  166      C      -2.2324100606     0.1925074266     2.5205714506
  167      C      -2.1966345043     2.4497939640     2.4425740276
  168      C      -4.7115190777    -1.9898264650     1.4843908357
  169      C      -6.8821583148    -1.5644403884     0.3891935985
  170      C      -7.1798136819     3.9795951154     1.4531379651
  171      C      -3.6523586663     1.4155363730     4.0407155733
  172      C      -3.4927141362     3.7890901241    -1.0661672543
  173      C      -7.8867660426     2.5439395169    -0.9057434143
  174      C      -5.3516635239     4.7565775301     0.1694934165
  175      C      -7.3516087502    -1.0680867950     1.6220988662
  176      C      -7.8052197521     2.2637746263     2.7048493122
 ----------------------------------------------------------------

    9   -5804.2574576189      8.69E-06 Convergence criterion met
 Total energy in the final basis set = -5804.2574576189

                    Orbital Energies (a.u.)
 --------------------------------------------------------------

 Alpha MOs
 -- Occupied --
-19.192 -19.181 -19.135 -19.132 -10.316 -10.312 -10.253 -10.242
-10.241 -10.241 -10.238 -10.237 -10.236 -10.236 -10.231 -10.230
-10.230 -10.228 -10.226 -10.225 -10.224 -10.224 -10.224 -10.224
-10.223 -10.223 -10.222 -10.222 -10.222 -10.222 -10.222 -10.221
-10.221 -10.221 -10.221 -10.221 -10.221 -10.221 -10.221 -10.220
-10.220 -10.220 -10.219 -10.219 -10.219 -10.219 -10.219 -10.219
-10.218 -10.218 -10.218 -10.218 -10.217 -10.217 -10.217 -10.217
-10.217 -10.217 -10.217 -10.216 -10.216 -10.216 -10.216 -10.216
-10.216 -10.215 -10.215 -10.215 -10.215 -10.214 -10.214 -10.213
-10.213 -10.213 -10.213 -10.213 -10.213 -10.213 -10.213 -10.213
-10.213 -10.213 -10.212 -10.212 -10.212 -10.212 -10.212 -10.212
-10.212 -10.211 -10.211 -10.211 -10.211 -10.211 -10.210 -10.210
-10.210 -10.210 -10.210 -10.210 -10.210 -10.210 -10.209 -10.209
-10.209 -10.209 -10.209 -10.209 -10.209 -10.209 -10.208 -10.208
-10.208 -10.208 -10.208 -10.208 -10.208 -10.208 -10.208 -10.207
-10.207 -10.207 -10.207 -10.207 -10.206 -10.206 -10.206 -10.205
-10.205 -10.204 -10.204 -10.204 -10.204 -10.204 -10.203 -10.203
-10.203 -10.202 -10.201 -10.201 -10.200 -10.200 -10.200 -10.200
-10.197 -10.194 -10.193 -10.191  -1.091  -1.087  -1.009  -1.009
 -0.983  -0.982  -0.965  -0.965  -0.962  -0.962  -0.961  -0.958
 -0.938  -0.931  -0.927  -0.926  -0.924  -0.924  -0.922  -0.922
 -0.921  -0.919  -0.899  -0.894  -0.890  -0.888  -0.886  -0.884
 -0.875  -0.870  -0.852  -0.851  -0.842  -0.841  -0.839  -0.838
 -0.838  -0.835  -0.821  -0.820  -0.805  -0.801  -0.799  -0.797
 -0.795  -0.794  -0.793  -0.792  -0.790  -0.790  -0.785  -0.781
 -0.772  -0.770  -0.770  -0.769  -0.768  -0.764  -0.762  -0.760
 -0.748  -0.748  -0.742  -0.737  -0.737  -0.729  -0.718  -0.715
 -0.714  -0.713  -0.712  -0.712  -0.709  -0.709  -0.708  -0.708
 -0.707  -0.705  -0.704  -0.703  -0.703  -0.701  -0.674  -0.671
 -0.659  -0.658  -0.656  -0.654  -0.648  -0.646  -0.631  -0.631
 -0.630  -0.626  -0.625  -0.622  -0.621  -0.620  -0.618  -0.615
 -0.615  -0.614  -0.613  -0.611  -0.610  -0.609  -0.608  -0.607
 -0.607  -0.604  -0.602  -0.602  -0.565  -0.564  -0.562  -0.562
 -0.559  -0.559  -0.558  -0.557  -0.556  -0.556  -0.555  -0.552
 -0.538  -0.534  -0.533  -0.530  -0.529  -0.529  -0.527  -0.523
 -0.522  -0.521  -0.520  -0.518  -0.515  -0.514  -0.513  -0.513
 -0.507  -0.505  -0.500  -0.500  -0.492  -0.491  -0.490  -0.485
 -0.484  -0.481  -0.480  -0.480  -0.478  -0.474  -0.474  -0.473
 -0.473  -0.470  -0.470  -0.468  -0.466  -0.465  -0.465  -0.465
 -0.463  -0.463  -0.462  -0.462  -0.461  -0.461  -0.459  -0.456
 -0.455  -0.453  -0.453  -0.451  -0.449  -0.445  -0.445  -0.443
 -0.442  -0.440  -0.440  -0.439  -0.439  -0.437  -0.434  -0.434
 -0.432  -0.431  -0.430  -0.427  -0.426  -0.425  -0.424  -0.424
 -0.422  -0.420  -0.420  -0.420  -0.419  -0.418  -0.417  -0.417
 -0.417  -0.416  -0.416  -0.415  -0.414  -0.414  -0.413  -0.412
 -0.412  -0.409  -0.407  -0.406  -0.402  -0.401  -0.400  -0.396
 -0.393  -0.393  -0.392  -0.392  -0.390  -0.386  -0.385  -0.383
 -0.377  -0.375  -0.373  -0.371  -0.369  -0.368  -0.368  -0.366
 -0.364  -0.363  -0.362  -0.362  -0.359  -0.359  -0.358  -0.357
 -0.357  -0.355  -0.355  -0.354  -0.354  -0.352  -0.351  -0.350
 -0.349  -0.348  -0.347  -0.346  -0.345  -0.345  -0.344  -0.343
 -0.343  -0.341  -0.340  -0.339  -0.339  -0.337  -0.335  -0.334
 -0.332  -0.331  -0.330  -0.329  -0.328  -0.327  -0.326  -0.323
 -0.310  -0.300  -0.297  -0.292  -0.291  -0.287  -0.272  -0.271
 -0.270  -0.269  -0.268  -0.267  -0.265  -0.265  -0.264  -0.263
 -0.262  -0.260  -0.259  -0.258  -0.257  -0.255  -0.253  -0.252
 -0.249  -0.248  -0.241  -0.240  -0.225  -0.221  -0.215  -0.211
 -0.209  -0.207  -0.206  -0.204  -0.199  -0.197

          Ground-State Mulliken Net Atomic Charges

     Atom                 Charge (a.u.)
  ----------------------------------------
      1 O                    -0.471261
      2 C                    -0.094675
      3 H                     0.137301
      4 H                     0.137218
      5 H                     0.133980
      6 O                    -0.477907
      7 C                     0.600399
      8 C                    -0.278949
      9 H                     0.126845
     10 H                     0.133396
     11 C                    -0.180872
     12 H                     0.130148
     13 H                     0.125142
     14 C                    -0.172850
     15 H                     0.105257
     16 H                     0.113904
     17 C                     0.001372
     18 C                     0.106145
     19 C                    -0.102827
     20 H                     0.089820
     21 C                    -0.085949
     22 H                     0.101142
     23 C                    -0.081948
     24 H                     0.092369
     25 C                    -0.099758
     26 H                     0.088987
     27 C                    -0.118454
     28 H                     0.093044
     29 C                     0.019021
     30 C                     0.001643
     31 C                     0.009014
     32 C                    -0.015522
     33 C                     0.004414
     34 C                    -0.021365
     35 C                     0.001403
     36 C                    -0.014887
     37 C                     0.017425
     38 C                    -0.010980
     39 C                    -0.093143
     40 C                    -0.006245
     41 C                     0.011028
     42 C                    -0.015400
     43 C                     0.010632
     44 C                    -0.022651
     45 C                    -0.100214
     46 C                     0.018886
     47 C                    -0.003362
     48 C                    -0.017378
     49 C                     0.005995
     50 C                    -0.011032
     51 C                     0.028485
     52 C                    -0.004432
     53 C                     0.041858
     54 C                     0.001160
     55 C                     0.005762
     56 C                    -0.005035
     57 C                     0.009942
     58 C                     0.020813
     59 C                    -0.023706
     60 C                     0.019419
     61 C                    -0.014412
     62 C                    -0.026721
     63 C                    -0.013484
     64 C                     0.029034
     65 C                    -0.007494
     66 C                    -0.004937
     67 C                    -0.009994
     68 C                     0.011765
     69 C                     0.004121
     70 C                     0.056956
     71 C                     0.017113
     72 C                    -0.003587
     73 C                    -0.014590
     74 C                     0.004634
     75 C                     0.001713
     76 C                    -0.010210
     77 C                     0.017931
     78 C                    -0.017295
     79 C                     0.008639
     80 C                    -0.003393
     81 C                     0.008679
     82 C                    -0.006283
     83 C                    -0.011416
     84 C                     0.012313
     85 C                    -0.004382
     86 C                    -0.020628
     87 C                    -0.028000
     88 C                     0.020968
     89 O                    -0.496926
     90 C                    -0.082542
     91 H                     0.117522
     92 H                     0.132317
     93 H                     0.125200
     94 O                    -0.435364
     95 C                     0.588202
     96 C                    -0.254225
     97 H                     0.142453
     98 H                     0.131895
     99 C                    -0.189388
    100 H                     0.125920
    101 H                     0.113004
    102 C                    -0.198844
    103 H                     0.114775
    104 H                     0.119297
    105 C                     0.013536
    106 C                     0.077816
    107 C                    -0.120958
    108 H                     0.089016
    109 C                    -0.073754
    110 H                     0.096936
    111 C                    -0.087542
    112 H                     0.085054
    113 C                    -0.082856
    114 H                     0.098840
    115 C                    -0.126094
    116 H                     0.093202
    117 C                    -0.017742
    118 C                     0.000674
    119 C                    -0.016106
    120 C                    -0.004213
    121 C                    -0.012532
    122 C                    -0.000197
    123 C                     0.021899
    124 C                    -0.012591
    125 C                     0.019368
    126 C                    -0.008178
    127 C                    -0.085202
    128 C                     0.011466
    129 C                     0.011351
    130 C                     0.015967
    131 C                     0.032652
    132 C                    -0.006183
    133 C                    -0.055766
    134 C                     0.007544
    135 C                    -0.001725
    136 C                     0.008488
    137 C                     0.006508
    138 C                     0.018407
    139 C                     0.000016
    140 C                     0.012528
    141 C                     0.023696
    142 C                    -0.002741
    143 C                    -0.026578
    144 C                    -0.031465
    145 C                     0.019856
    146 C                     0.012440
    147 C                    -0.008532
    148 C                    -0.014076
    149 C                    -0.024292
    150 C                    -0.033996
    151 C                     0.014235
    152 C                    -0.005314
    153 C                     0.009126
    154 C                    -0.007502
    155 C                    -0.006050
    156 C                    -0.000539
    157 C                    -0.027312
    158 C                    -0.001468
    159 C                    -0.014257
    160 C                     0.020055
    161 C                    -0.013089
    162 C                     0.002392
    163 C                     0.024822
    164 C                     0.023516
    165 C                    -0.013950
    166 C                    -0.002928
    167 C                     0.005702
    168 C                    -0.000074
    169 C                    -0.008259
    170 C                    -0.000450
    171 C                     0.024301
    172 C                     0.009818
    173 C                     0.001686
    174 C                    -0.021157
    175 C                     0.007621
    176 C                    -0.007768
  ----------------------------------------
  Sum of atomic charges =     0.000000

                    Cartesian Multipole Moments
 -----------------------------------------------------------------
    Charge (ESU x 10^10)
                 0.0000
    Dipole Moment (Debye)
         X       3.6962      Y       0.7177      Z      -0.7933
       Tot       3.8479
    Quadrupole Moments (Debye-Ang)
        XX    -765.6558     XY      44.4785     YY    -776.4490
        XZ     -15.4196     YZ      -5.5241     ZZ    -818.4094

 Total job time:  848.82s(wall), 8131.08s(cpu)
        *  Thank you very much for using Q-Chem.  Have a nice day.  *
