 Q-Chem 4.4, Q-Chem, Inc., Pleasanton, CA (2016)
 Q-Chem 4.4.0 for Intel X86 Linux

User input:
--------------------------------------------------------------
$comment
OPTIMIZATION
$end

$rem
JOBTYPE OPT
EXCHANGE omegaB97X-D
BASIS cc-pVTZ
$end

$molecule
0 1
C          0.00000        0.00000        0.00000
C         -0.65442       -1.22189        0.00029
C          1.38558        0.00000        0.00000
C          0.09563       -2.38039        0.00926
N          2.11898       -1.10529        0.01182
C          1.48579       -2.27657        0.02342
C          2.30845       -3.51149        0.04024
N          2.37717       -4.16713        1.16640
C          3.03802       -4.00014       -1.09318
C          3.10694       -5.30167        1.29398
N          3.14350       -3.45365       -2.30509
C          3.79903       -5.20656       -0.95533
C          3.84521       -5.89404        0.29630
S          4.10064       -4.41397       -3.16123
N          4.44119       -5.55057       -2.07002
C          4.63513       -7.09749        0.51138
S          5.32313       -8.00010       -0.77999
C          4.98454       -7.70753        1.71576
C          6.03903       -9.18427        0.21658
N          4.63304       -7.27862        2.96022
C          5.78136       -8.88458        1.54930
C          6.79747      -10.29283       -0.32094
C          5.06160       -7.99933        3.95110
N          6.21387       -9.61435        2.61202
C          7.74760      -11.04531        0.31260
S          6.57290      -10.84332       -1.95016
C          5.85525       -9.17389        3.77926
C          8.29934      -12.05152       -0.51529
C          7.76679      -12.05709       -1.76684
H         -0.54818        0.93041       -0.00000
H         -1.73449       -1.27032       -0.00344
H          1.93674        0.93371       -0.01430
H         -0.36223       -3.35775        0.00507
H          3.10373       -5.73882        2.27923
H          4.78642       -7.68094        4.95047
H          8.02086      -10.87688        1.34024
H          6.18540       -9.73124        4.64785
H          9.06628      -12.73750       -0.19019
H          8.00634      -12.71404       -2.58601
$end

$opt
CONSTRAINT
tors 4 6 7 8 -75.00000
tors 10 13 16 17 168.54979
tors 17 19 22 25 157.50653
ENDCONSTRAINT
$end
--------------------------------------------------------------

   16   -2291.1905461064      7.19E-09 Convergence criterion met
 Total energy in the final basis set = -2291.1905461064
   13   -2291.1915611887      5.48E-09 Convergence criterion met
 Total energy in the final basis set = -2291.1915611887
   12   -2291.1917224181      6.44E-09 Convergence criterion met
 Total energy in the final basis set = -2291.1917224181
   11   -2291.1917569541      7.31E-09 Convergence criterion met
 Total energy in the final basis set = -2291.1917569541
   11   -2291.1917657909      3.91E-09 Convergence criterion met
 Total energy in the final basis set = -2291.1917657909
    9   -2291.1917674955      9.51E-09 Convergence criterion met
 Total energy in the final basis set = -2291.1917674955

             Standard Nuclear Orientation (Angstroms)
    I     Atom           X                Y                Z
 ----------------------------------------------------------------
    1      C      -7.6625167937    -0.2914532618    -0.0707921552
    2      C      -7.0376903998    -0.4646016750    -1.2935677059
    3      C      -6.8729431452    -0.1245622418     1.0560078649
    4      C      -5.6558686416    -0.4764899107    -1.3369309824
    5      N      -5.5445514075    -0.1259242573     1.0282795423
    6      C      -4.9561330446    -0.3157359377    -0.1490779783
    7      C      -3.4664488043    -0.3180816306    -0.1489294365
    8      N      -2.8415365745    -1.4477577814    -0.2922597980
    9      C      -2.7250863956     0.8833139470     0.0488240018
   10      C      -1.4798171119    -1.4995267385    -0.2544639636
   11      N      -3.2173532045     2.1141562696     0.1841186460
   12      C      -1.3002826466     0.8272937134     0.0918479598
   13      C      -0.6371531702    -0.4308875229    -0.0570796922
   14      S      -1.9509994295     3.0867323243     0.3626461101
   15      N      -0.7412652578     2.0234142119     0.2689189893
   16      C       0.8118862083    -0.5731182296    -0.0053492788
   17      S       1.8770768712     0.7759240804    -0.0470423641
   18      C       1.5738449751    -1.7373053445     0.0794134658
   19      C       3.3088268020    -0.1487215436     0.0172418783
   20      N       1.0865254206    -3.0091814001     0.1371361332
   21      C       2.9841649922    -1.4974357163     0.0958073612
   22      C       4.6222194621     0.4567726837     0.0039008502
   23      C       1.9723534316    -3.9542707263     0.2021513428
   24      N       3.8848361899    -2.5148913170     0.1656799394
   25      C       5.7969801382    -0.0760134828     0.4591220509
   26      S       4.8860429968     2.0440937653    -0.6435634983
   27      C       3.3800462337    -3.7088584070     0.2156522309
   28      C       6.8994257448     0.7959496998     0.2987893807
   29      C       6.5577507109     1.9794468087    -0.2752926604
   30      H      -8.7399548995    -0.2806061525     0.0089775823
   31      H      -7.6165024433    -0.5929043843    -2.1982569750
   32      H      -7.3262675729     0.0100812613     2.0309654115
   33      H      -5.1220190765    -0.6208594847    -2.2652896904
   34      H      -1.0620521480    -2.4870031515    -0.3652978214
   35      H       1.6070935910    -4.9744778780     0.2417000175
   36      H       5.8498055611    -1.0641820276     0.8845475978
   37      H       4.0706513936    -4.5428951809     0.2723087146
   38      H       7.9042180960     0.5501156836     0.6071761200
   39      H       7.1982407375     2.8129070685    -0.5082335969
 ----------------------------------------------------------------

    8   -2291.1917681801      9.94E-09 Convergence criterion met
 Total energy in the final basis set = -2291.1917681801
 Final energy is   -2291.19176818013
 **  OPTIMIZATION CONVERGED  **

                    Orbital Energies (a.u.)
 --------------------------------------------------------------

 Alpha MOs
 -- Occupied --
-89.156 -89.107 -89.087 -14.487 -14.483 -14.463 -14.462 -14.446
-14.437 -10.357 -10.351 -10.350 -10.346 -10.344 -10.344 -10.343
-10.341 -10.338 -10.337 -10.335 -10.332 -10.326 -10.325 -10.320
-10.312 -10.302 -10.301 -10.295 -10.293  -8.161  -8.116  -8.097
 -6.111  -6.105  -6.104  -6.064  -6.061  -6.059  -6.046  -6.042
 -6.039  -1.146  -1.101  -1.069  -1.049  -1.030  -1.015  -1.005
 -0.986  -0.925  -0.913  -0.899  -0.879  -0.869  -0.854  -0.838
 -0.812  -0.777  -0.772  -0.746  -0.740  -0.733  -0.723  -0.711
 -0.673  -0.656  -0.649  -0.631  -0.629  -0.621  -0.607  -0.604
 -0.587  -0.584  -0.567  -0.565  -0.559  -0.548  -0.543  -0.527
 -0.513  -0.504  -0.501  -0.498  -0.494  -0.493  -0.486  -0.485
 -0.476  -0.467  -0.463  -0.461  -0.451  -0.442  -0.429  -0.428
 -0.422  -0.411  -0.395  -0.377  -0.371  -0.359  -0.358  -0.346
 -0.344  -0.340  -0.338  -0.334  -0.330  -0.266

          Ground-State Mulliken Net Atomic Charges

     Atom                 Charge (a.u.)
  ----------------------------------------
      1 C                    -0.091220
      2 C                    -0.126410
      3 C                    -0.079324
      4 C                    -0.128442
      5 N                    -0.173974
      6 C                     0.143815
      7 C                     0.085487
      8 N                    -0.164983
      9 C                    -0.000639
     10 C                    -0.084132
     11 N                    -0.246616
     12 C                     0.046000
     13 C                     0.054740
     14 S                     0.407250
     15 N                    -0.304399
     16 C                    -0.075838
     17 S                     0.174693
     18 C                     0.062464
     19 C                    -0.055055
     20 N                    -0.169113
     21 C                     0.063211
     22 C                    -0.011582
     23 C                    -0.042140
     24 N                    -0.161521
     25 C                    -0.137293
     26 S                     0.102538
     27 C                    -0.045687
     28 C                    -0.158604
     29 C                    -0.182501
     30 H                     0.130017
     31 H                     0.120747
     32 H                     0.120325
     33 H                     0.132976
     34 H                     0.138717
     35 H                     0.125506
     36 H                     0.134010
     37 H                     0.128899
     38 H                     0.131600
     39 H                     0.136479
  ----------------------------------------
  Sum of atomic charges =     0.000000

                    Cartesian Multipole Moments
 -----------------------------------------------------------------
    Charge (ESU x 10^10)
                 0.0000
    Dipole Moment (Debye)
         X       0.3303      Y      -0.1598      Z      -1.2344
       Tot       1.2878
    Quadrupole Moments (Debye-Ang)
        XX    -150.8024     XY      -4.1483     YY    -169.4678
        XZ       9.6523     YZ      -1.0505     ZZ    -182.6221

 Total job time:  26356.35s(wall), 104438.50s(cpu)
        *  Thank you very much for using Q-Chem.  Have a nice day.  *
