 Q-Chem 4.4, Q-Chem, Inc., Pleasanton, CA (2016)
 Q-Chem 4.4.0 for Intel X86 Linux

User input:
--------------------------------------------------------------
$comment
OPTIMIZATION
$end

$rem
JOBTYPE OPT
EXCHANGE omegaB97X-D
BASIS cc-pVTZ
$end

$molecule
0 1
C          0.00000        0.00000        0.00000
C         -0.65442       -1.22189        0.00029
C          1.38558        0.00000        0.00000
C          0.09563       -2.38039        0.00926
N          2.11898       -1.10529        0.01182
C          1.48579       -2.27657        0.02342
C          2.30845       -3.51149        0.04024
N          3.46939       -3.44681        0.63256
C          1.90884       -4.74525       -0.57119
C          4.30316       -4.51291        0.69785
N          0.79946       -5.00100       -1.26572
C          2.78991       -5.87245       -0.48923
C          4.05186       -5.75809        0.17086
S          0.89088       -6.53271       -1.73136
N          2.31503       -6.95377       -1.10442
C          5.00846       -6.85238        0.24811
S          4.59794       -8.47457       -0.14643
C          6.35414       -6.81020        0.61163
C          6.14397       -9.11484        0.18184
N          7.04726       -5.69730        0.98208
C          6.99688       -8.08818        0.57025
C          6.44536      -10.52249        0.03790
C          8.29547       -5.88134        1.28710
N          8.30809       -8.24264        0.89563
C          7.66898      -11.10397       -0.14919
S          5.20108      -11.72932        0.09417
C          8.93151       -7.15913        1.24551
C          7.60116      -12.51312       -0.25863
C          6.33199      -12.99092       -0.15405
H         -0.54818        0.93041       -0.00000
H         -1.73449       -1.27032       -0.00344
H          1.93674        0.93371       -0.01430
H         -0.36223       -3.35775        0.00507
H          5.24286       -4.32862        1.19265
H          8.86417       -5.01024        1.59304
H          8.57704      -10.52726       -0.19287
H          9.97888       -7.24694        1.50890
H          8.46425      -13.14161       -0.41525
H          6.00371      -14.01562       -0.20121
$end

$opt
CONSTRAINT
tors 4 6 7 8 -150.00000
tors 10 13 16 17 168.54979
tors 17 19 22 25 157.50653
ENDCONSTRAINT
$end
--------------------------------------------------------------

   16   -2291.1918443141      5.55E-09 Convergence criterion met
 Total energy in the final basis set = -2291.1918443141
   12   -2291.1925027620      7.56E-09 Convergence criterion met
 Total energy in the final basis set = -2291.1925027620
   12   -2291.1926163429      5.87E-09 Convergence criterion met
 Total energy in the final basis set = -2291.1926163429
   11   -2291.1926532284      6.21E-09 Convergence criterion met
 Total energy in the final basis set = -2291.1926532284
   10   -2291.1926665091      9.06E-09 Convergence criterion met
 Total energy in the final basis set = -2291.1926665091
   10   -2291.1926694624      5.87E-09 Convergence criterion met
 Total energy in the final basis set = -2291.1926694624
    9   -2291.1926707695      7.44E-09 Convergence criterion met
 Total energy in the final basis set = -2291.1926707695

             Standard Nuclear Orientation (Angstroms)
    I     Atom           X                Y                Z
 ----------------------------------------------------------------
    1      C       7.6695321568    -0.4668396636     0.0492715551
    2      C       7.1088455004     0.7066705290     0.5177025437
    3      C       6.8143041480    -1.4873031489    -0.3408794292
    4      C       5.7301769877     0.8159982443     0.5707071822
    5      N       5.4947484083    -1.4012866202    -0.2877735252
    6      C       4.9570161480    -0.2683563163     0.1656221440
    7      C       3.4696593866    -0.2357350761     0.1974368448
    8      N       2.8374043553    -1.3564710671     0.3916430069
    9      C       2.7087574318     0.9576683532    -0.0272673114
   10      C       1.4832900463    -1.4228961273     0.3782972548
   11      N       3.1701216117     2.1884596451    -0.2544709334
   12      C       1.2803468665     0.8807719907    -0.0570999136
   13      C       0.6259168397    -0.3724110049     0.1425315905
   14      S       1.8869231256     3.1314382986    -0.4699783772
   15      N       0.7005943400     2.0557000930    -0.2974332423
   16      C      -0.8191923618    -0.5332684749     0.0837731411
   17      S      -1.9045385517     0.8002455354     0.0765562706
   18      C      -1.5627797076    -1.7106609735     0.0101866465
   19      C      -3.3214836858    -0.1465880711     0.0028746003
   20      N      -1.0564642651    -2.9758820074    -0.0188883432
   21      C      -2.9755355625    -1.4916415572    -0.0388278910
   22      C      -4.6426878322     0.4408024591    -0.0208078428
   23      C      -1.9276837079    -3.9345758843    -0.0818715455
   24      N      -3.8606995037    -2.5228476586    -0.1038630750
   25      C      -5.8022688062    -0.1155968324    -0.4877155747
   26      S      -4.9390817835     2.0361897332     0.5910658524
   27      C      -3.3384784199    -3.7100947579    -0.1220915683
   28      C      -6.9183855849     0.7453534032    -0.3638038961
   29      C      -6.6024028694     1.9434912697     0.1943630221
   30      H       8.7412834087    -0.5902464230    -0.0138474113
   31      H       7.7354622116     1.5302601279     0.8317008348
   32      H       7.2136238261    -2.4199866503    -0.7228964494
   33      H       5.2656550223     1.7215411785     0.9269284459
   34      H       1.0763313050    -2.4077977482     0.5433298555
   35      H      -1.5482077612    -4.9500837088    -0.1025403860
   36      H      -5.8364246161    -1.1107922020    -0.8984645414
   37      H      -4.0158778802    -4.5553067526    -0.1725946805
   38      H      -7.9139082637     0.4793540415    -0.6853691287
   39      H      -7.2579602799     2.7715863640     0.4026985305
 ----------------------------------------------------------------

    9   -2291.1926713934      4.04E-09 Convergence criterion met
 Total energy in the final basis set = -2291.1926713934
 Final energy is   -2291.19267139344
 **  OPTIMIZATION CONVERGED  **

                    Orbital Energies (a.u.)
 --------------------------------------------------------------

 Alpha MOs
 -- Occupied --
-89.159 -89.107 -89.087 -14.490 -14.486 -14.463 -14.462 -14.441
-14.432 -10.359 -10.355 -10.351 -10.345 -10.344 -10.344 -10.343
-10.341 -10.338 -10.337 -10.335 -10.331 -10.326 -10.323 -10.320
-10.310 -10.300 -10.300 -10.296 -10.294  -8.164  -8.116  -8.097
 -6.114  -6.108  -6.107  -6.065  -6.061  -6.059  -6.046  -6.042
 -6.040  -1.149  -1.101  -1.068  -1.045  -1.029  -1.017  -1.006
 -0.987  -0.926  -0.910  -0.900  -0.879  -0.869  -0.854  -0.839
 -0.812  -0.778  -0.772  -0.748  -0.740  -0.732  -0.718  -0.712
 -0.674  -0.656  -0.649  -0.631  -0.628  -0.621  -0.607  -0.605
 -0.589  -0.577  -0.569  -0.566  -0.558  -0.548  -0.542  -0.528
 -0.511  -0.507  -0.502  -0.501  -0.493  -0.488  -0.485  -0.484
 -0.477  -0.467  -0.465  -0.462  -0.453  -0.443  -0.430  -0.429
 -0.420  -0.411  -0.398  -0.379  -0.370  -0.362  -0.351  -0.348
 -0.344  -0.340  -0.336  -0.334  -0.322  -0.264

          Ground-State Mulliken Net Atomic Charges

     Atom                 Charge (a.u.)
  ----------------------------------------
      1 C                    -0.091953
      2 C                    -0.136068
      3 C                    -0.078736
      4 C                    -0.115073
      5 N                    -0.131100
      6 C                     0.092484
      7 C                     0.049011
      8 N                    -0.125558
      9 C                     0.019822
     10 C                    -0.077292
     11 N                    -0.281499
     12 C                     0.053424
     13 C                     0.056218
     14 S                     0.406581
     15 N                    -0.301707
     16 C                    -0.073514
     17 S                     0.172902
     18 C                     0.061222
     19 C                    -0.054739
     20 N                    -0.168476
     21 C                     0.063982
     22 C                    -0.012043
     23 C                    -0.041205
     24 N                    -0.161604
     25 C                    -0.136031
     26 S                     0.102392
     27 C                    -0.046182
     28 C                    -0.157741
     29 C                    -0.182165
     30 H                     0.132341
     31 H                     0.120716
     32 H                     0.118034
     33 H                     0.127831
     34 H                     0.140510
     35 H                     0.125719
     36 H                     0.133005
     37 H                     0.129492
     38 H                     0.130999
     39 H                     0.136001
  ----------------------------------------
  Sum of atomic charges =     0.000000

                    Cartesian Multipole Moments
 -----------------------------------------------------------------
    Charge (ESU x 10^10)
                 0.0000
    Dipole Moment (Debye)
         X      -0.3791      Y       1.2959      Z       0.0741
       Tot       1.3523
    Quadrupole Moments (Debye-Ang)
        XX    -150.7663     XY      11.6471     YY    -166.8872
        XZ       3.9505     YZ       3.1604     ZZ    -186.2403

 Total job time:  29494.92s(wall), 116871.93s(cpu)
        *  Thank you very much for using Q-Chem.  Have a nice day.  *
