 Q-Chem 4.4, Q-Chem, Inc., Pleasanton, CA (2016)
 Q-Chem 4.4.0 for Intel X86 Linux

User input:
--------------------------------------------------------------
$comment
OPTIMIZATION
$end

$rem
JOBTYPE OPT
EXCHANGE omegaB97X-D
BASIS cc-pVTZ
$end

$molecule
0 1
C          7.67777        0.34642       -0.33993
C          6.98892        1.51270       -0.04885
C          6.94370       -0.80400       -0.58243
C          5.60978        1.47954       -0.00352
N          5.61883       -0.85095       -0.53894
C          4.96205        0.26974       -0.24819
C          3.47962        0.21444       -0.19685
N          2.83481        1.33798       -0.34991
C          2.73362       -0.98872        0.03061
C          1.48160        1.40094       -0.31172
N          3.19870       -2.21714        0.26374
C          1.30325       -0.91788        0.05914
C          0.63707        0.33357       -0.11468
S          1.92034       -3.16172        0.46998
N          0.72482       -2.09492        0.29058
C         -0.80985        0.47767       -0.05204
S         -1.88040       -0.86682       -0.09381
C         -1.56638        1.64356        0.06446
C         -3.30736        0.06120        0.00792
N         -1.07341        2.91209        0.13774
C         -2.97696        1.40790        0.10327
C         -4.62265       -0.54017        0.00653
C         -1.95462        3.85869        0.23857
N         -3.87207        2.42642        0.21102
C         -5.78850       -0.01133        0.48882
S         -4.90180       -2.11612       -0.66218
C         -3.36222        3.61771        0.27514
C         -6.89590       -0.87751        0.33181
C         -6.56731       -2.05254       -0.26686
H          8.75733        0.32596       -0.37845
H          7.52022        2.43532        0.14280
H          7.44267       -1.73482       -0.82711
H          5.02391        2.35976        0.21256
H          1.06741        2.38942       -0.42819
H         -1.58537        4.87694        0.29040
H         -5.83313        0.97106        0.92819
H         -4.04850        4.45242        0.36420
H         -7.89525       -0.63350        0.65875
H         -7.21448       -2.87971       -0.50357
$end

$opt
CONSTRAINT
tors 4 6 7 8 15.00000
tors 10 13 16 17 168.54979
tors 17 19 22 25 157.50653
ENDCONSTRAINT
$end
--------------------------------------------------------------

   16   -2291.1956868708      5.28E-09 Convergence criterion met
 Total energy in the final basis set = -2291.1956868708
   13   -2291.1953882941      4.61E-09 Convergence criterion met
 Total energy in the final basis set = -2291.1953882941
   11   -2291.1954548362      5.80E-09 Convergence criterion met
 Total energy in the final basis set = -2291.1954548362
   12   -2291.1954855576      4.44E-09 Convergence criterion met
 Total energy in the final basis set = -2291.1954855576
   11   -2291.1955029212      5.78E-09 Convergence criterion met
 Total energy in the final basis set = -2291.1955029212
   10   -2291.1955083042      6.66E-09 Convergence criterion met
 Total energy in the final basis set = -2291.1955083042

             Standard Nuclear Orientation (Angstroms)
    I     Atom           X                Y                Z
 ----------------------------------------------------------------
    1      C       7.6822865670     0.3515305067    -0.1853196997
    2      C       6.9874989651     1.5366577701    -0.0057018020
    3      C       6.9532928652    -0.8168813672    -0.3398626916
    4      C       5.6078826861     1.5049111191     0.0180976624
    5      N       5.6279961849    -0.8625383102    -0.3129526687
    6      C       4.9647941413     0.2764652584    -0.1279114300
    7      C       3.4805026873     0.2266309798    -0.1073449400
    8      N       2.8465763838     1.3574667439    -0.2538869945
    9      C       2.7190133099    -0.9705125527     0.1053111322
   10      C       1.4947200346     1.4346880652    -0.2371074949
   11      N       3.1655401848    -2.2076778582     0.3294680314
   12      C       1.2884109301    -0.8819770511     0.1263323582
   13      C       0.6365086065     0.3767248483    -0.0490878248
   14      S       1.8742171052    -3.1363286467     0.5234704859
   15      N       0.6934773383    -2.0528252973     0.3470263013
   16      C      -0.8097410339     0.5355608634    -0.0133868846
   17      S      -1.8936510961    -0.7982844637    -0.0665833314
   18      C      -1.5567448223     1.7111148101     0.0628129951
   19      C      -3.3127903089     0.1456715939    -0.0117074970
   20      N      -1.0538591343     2.9766474508     0.1235610407
   21      C      -2.9701724659     1.4903021769     0.0674094862
   22      C      -4.6341746290    -0.4417501233    -0.0287696225
   23      C      -1.9282622543     3.9333762076     0.1782096865
   24      N      -3.8580385622     2.5190119355     0.1287563807
   25      C      -5.8034146674     0.1091404149     0.4197058231
   26      S      -4.9183454296    -2.0271870902    -0.6719286769
   27      C      -3.3386768464     3.7067379646     0.1797522775
   28      C      -6.9177081620    -0.7472810770     0.2571033496
   29      C      -6.5904793156    -1.9373120944    -0.3120150600
   30      H       8.7623257880     0.3303629223    -0.2066852139
   31      H       7.5124395506     2.4749518428     0.1120297019
   32      H       7.4565839270    -1.7653104765    -0.4891590505
   33      H       5.0186811532     2.3987373423     0.1525638774
   34      H       1.0919387986     2.4273760941    -0.3579916744
   35      H      -1.5511964397     4.9492683042     0.2182807452
   36      H      -5.8453154595     1.0992908363     0.8415962465
   37      H      -4.0187264341     4.5499426842     0.2278725901
   38      H      -7.9198808935    -0.4851431993     0.5606232545
   39      H      -7.2421075555    -2.7619967235    -0.5450077370
 ----------------------------------------------------------------

    8   -2291.1955087836      7.94E-09 Convergence criterion met
 Total energy in the final basis set = -2291.1955087836
 Final energy is   -2291.19550878356
 **  OPTIMIZATION CONVERGED  **

                    Orbital Energies (a.u.)
 --------------------------------------------------------------

 Alpha MOs
 -- Occupied --
-89.152 -89.107 -89.087 -14.482 -14.479 -14.463 -14.463 -14.445
-14.433 -10.355 -10.352 -10.351 -10.346 -10.344 -10.344 -10.343
-10.342 -10.338 -10.336 -10.335 -10.330 -10.326 -10.323 -10.320
-10.309 -10.301 -10.297 -10.295 -10.293  -8.157  -8.116  -8.097
 -6.107  -6.101  -6.101  -6.064  -6.061  -6.059  -6.046  -6.042
 -6.039  -1.142  -1.102  -1.068  -1.048  -1.030  -1.013  -1.003
 -0.986  -0.925  -0.911  -0.895  -0.879  -0.869  -0.853  -0.838
 -0.812  -0.777  -0.772  -0.748  -0.737  -0.731  -0.716  -0.711
 -0.672  -0.655  -0.649  -0.629  -0.628  -0.620  -0.607  -0.603
 -0.587  -0.574  -0.568  -0.560  -0.557  -0.548  -0.543  -0.526
 -0.511  -0.508  -0.501  -0.498  -0.493  -0.492  -0.485  -0.484
 -0.473  -0.466  -0.462  -0.460  -0.451  -0.443  -0.429  -0.427
 -0.418  -0.411  -0.392  -0.377  -0.372  -0.359  -0.357  -0.351
 -0.343  -0.339  -0.334  -0.333  -0.320  -0.263

          Ground-State Mulliken Net Atomic Charges

     Atom                 Charge (a.u.)
  ----------------------------------------
      1 C                    -0.087500
      2 C                    -0.130904
      3 C                    -0.081544
      4 C                    -0.119938
      5 N                    -0.142644
      6 C                     0.073885
      7 C                     0.100785
      8 N                    -0.176741
      9 C                    -0.013652
     10 C                    -0.085537
     11 N                    -0.217224
     12 C                     0.049756
     13 C                     0.061113
     14 S                     0.406486
     15 N                    -0.306489
     16 C                    -0.071285
     17 S                     0.177354
     18 C                     0.060064
     19 C                    -0.055034
     20 N                    -0.170120
     21 C                     0.063414
     22 C                    -0.011588
     23 C                    -0.042169
     24 N                    -0.161119
     25 C                    -0.136844
     26 S                     0.103580
     27 C                    -0.046620
     28 C                    -0.158356
     29 C                    -0.182075
     30 H                     0.129030
     31 H                     0.120209
     32 H                     0.119883
     33 H                     0.142215
     34 H                     0.135389
     35 H                     0.124246
     36 H                     0.133195
     37 H                     0.129293
     38 H                     0.131249
     39 H                     0.136235
  ----------------------------------------
  Sum of atomic charges =     0.000000

                    Cartesian Multipole Moments
 -----------------------------------------------------------------
    Charge (ESU x 10^10)
                 0.0000
    Dipole Moment (Debye)
         X      -0.3885      Y       1.6008      Z       0.6098
       Tot       1.7565
    Quadrupole Moments (Debye-Ang)
        XX    -151.9821     XY       3.6133     YY    -164.6737
        XZ      -0.4494     YZ       2.3296     ZZ    -186.8986

 Total job time:  26970.71s(wall), 106860.81s(cpu)
        *  Thank you very much for using Q-Chem.  Have a nice day.  *
