 Q-Chem 4.4, Q-Chem, Inc., Pleasanton, CA (2016)
 Q-Chem 4.4.0 for Intel X86 Linux

User input:
--------------------------------------------------------------
$comment
OPTIMIZATION
$end

$rem
JOBTYPE OPT
EXCHANGE omegaB97X-D
BASIS cc-pVTZ
$end

$molecule
0 1
C          7.67777        0.34642       -0.33993
C          6.98892        1.51270       -0.04885
C          6.94370       -0.80400       -0.58243
C          5.60978        1.47954       -0.00352
N          5.61883       -0.85095       -0.53894
C          4.96205        0.26974       -0.24819
C          3.47962        0.21444       -0.19685
N          2.83481        1.33798       -0.34991
C          2.73362       -0.98872        0.03061
C          1.48160        1.40094       -0.31172
N          3.19870       -2.21714        0.26374
C          1.30325       -0.91788        0.05914
C          0.63707        0.33357       -0.11468
S          1.92034       -3.16172        0.46998
N          0.72482       -2.09492        0.29058
C         -0.80985        0.47767       -0.05204
S         -1.88040       -0.86682       -0.09381
C         -1.56638        1.64356        0.06446
C         -3.30736        0.06120        0.00792
N         -1.07341        2.91209        0.13774
C         -2.97696        1.40790        0.10327
C         -4.62265       -0.54017        0.00653
C         -1.95462        3.85869        0.23857
N         -3.87207        2.42642        0.21102
C         -5.78850       -0.01133        0.48882
S         -4.90180       -2.11612       -0.66218
C         -3.36222        3.61771        0.27514
C         -6.89590       -0.87751        0.33181
C         -6.56731       -2.05254       -0.26686
H          8.75733        0.32596       -0.37845
H          7.52022        2.43532        0.14280
H          7.44267       -1.73482       -0.82711
H          5.02391        2.35976        0.21256
H          1.06741        2.38942       -0.42819
H         -1.58537        4.87694        0.29040
H         -5.83313        0.97106        0.92819
H         -4.04850        4.45242        0.36420
H         -7.89525       -0.63350        0.65875
H         -7.21448       -2.87971       -0.50357
$end

$opt
CONSTRAINT
tors 4 6 7 8 0.00000
tors 10 13 16 17 168.54979
tors 17 19 22 25 157.50653
ENDCONSTRAINT
$end
--------------------------------------------------------------

   16   -2291.1956868708      5.28E-09 Convergence criterion met
 Total energy in the final basis set = -2291.1956868708
   14   -2291.1938866019      6.24E-09 Convergence criterion met
 Total energy in the final basis set = -2291.1938866019
   13   -2291.1933769143      4.70E-09 Convergence criterion met
 Total energy in the final basis set = -2291.1933769143
   13   -2291.1941721452      8.43E-09 Convergence criterion met
 Total energy in the final basis set = -2291.1941721452
   12   -2291.1949167037      7.96E-09 Convergence criterion met
 Total energy in the final basis set = -2291.1949167037
   12   -2291.1951066292      6.06E-09 Convergence criterion met
 Total energy in the final basis set = -2291.1951066292
   10   -2291.1951319025      6.78E-09 Convergence criterion met
 Total energy in the final basis set = -2291.1951319025
   10   -2291.1951483873      9.40E-09 Convergence criterion met
 Total energy in the final basis set = -2291.1951483873
    9   -2291.1951523810      6.03E-09 Convergence criterion met
 Total energy in the final basis set = -2291.1951523810
   10   -2291.1951560128      4.45E-09 Convergence criterion met
 Total energy in the final basis set = -2291.1951560128
    9   -2291.1951574145      5.64E-09 Convergence criterion met
 Total energy in the final basis set = -2291.1951574145

             Standard Nuclear Orientation (Angstroms)
    I     Atom           X                Y                Z
 ----------------------------------------------------------------
    1      C       7.6875786559     0.3743149133    -0.1001418480
    2      C       6.9803360222     1.5537686447    -0.2692294146
    3      C       6.9692939797    -0.8001298685     0.0562356157
    4      C       5.6009054490     1.5114803795    -0.2759063990
    5      N       5.6444617379    -0.8544953921     0.0509065347
    6      C       4.9674497246     0.2788105355    -0.1151312781
    7      C       3.4817625622     0.2182112306    -0.1046016449
    8      N       2.8450308848     1.3481302738    -0.2497783802
    9      C       2.7171330827    -0.9867749410     0.0566536970
   10      C       1.4946534236     1.4283517982    -0.2320339674
   11      N       3.1560224690    -2.2396872545     0.1945114507
   12      C       1.2851266205    -0.8962028862     0.0667332963
   13      C       0.6348117648     0.3677731191    -0.0681576877
   14      S       1.8605783347    -3.1728629072     0.3243177337
   15      N       0.6850353910    -2.0757958462     0.2137772772
   16      C      -0.8108071820     0.5285688386    -0.0229648721
   17      S      -1.8995170244    -0.8002999823    -0.1063629919
   18      C      -1.5535954206     1.7029886381     0.1001393895
   19      C      -3.3149492199     0.1463136778    -0.0146147266
   20      N      -1.0455965887     2.9638161194     0.2003970743
   21      C      -2.9675939227     1.4863057465     0.1098471119
   22      C      -4.6386618970    -0.4352155510    -0.0475168570
   23      C      -1.9159015826     3.9204729280     0.3011967705
   24      N      -3.8510170555     2.5148504211     0.2193222875
   25      C      -5.8038488521     0.1048924932     0.4234945019
   26      S      -4.9321620480    -1.9956451000    -0.7459475947
   27      C      -3.3269006092     3.6979372067     0.3111643778
   28      C      -6.9229041298    -0.7390991168     0.2324104081
   29      C      -6.6035538562    -1.9095468011    -0.3802033910
   30      H       8.7678950476     0.3618078050    -0.0885374251
   31      H       7.4958732971     2.4970626618    -0.3886857423
   32      H       7.4807678611    -1.7466768228     0.1891351567
   33      H       5.0033189436     2.4003186746    -0.4048242495
   34      H       1.0938442662     2.4240677816    -0.3327126921
   35      H      -1.5352421765     4.9334016544     0.3715761579
   36      H      -5.8412142958     1.0822166592     0.8745829951
   37      H      -4.0032579936     4.5404227689     0.4030424010
   38      H      -7.9234409907    -0.4822690416     0.5456662334
   39      H      -7.2603129751    -2.7220210542    -0.6401861767
 ----------------------------------------------------------------

    9   -2291.1951579933      4.27E-09 Convergence criterion met
 Total energy in the final basis set = -2291.1951579933
 Final energy is   -2291.19515799328
 **  OPTIMIZATION CONVERGED  **

                    Orbital Energies (a.u.)
 --------------------------------------------------------------

 Alpha MOs
 -- Occupied --
-89.152 -89.107 -89.087 -14.481 -14.479 -14.463 -14.463 -14.444
-14.433 -10.355 -10.353 -10.351 -10.346 -10.344 -10.344 -10.343
-10.342 -10.338 -10.336 -10.335 -10.330 -10.326 -10.323 -10.320
-10.309 -10.300 -10.296 -10.295 -10.293  -8.157  -8.116  -8.097
 -6.106  -6.101  -6.100  -6.064  -6.061  -6.059  -6.046  -6.042
 -6.039  -1.142  -1.102  -1.068  -1.048  -1.030  -1.013  -1.003
 -0.986  -0.925  -0.911  -0.895  -0.879  -0.869  -0.853  -0.838
 -0.812  -0.777  -0.772  -0.748  -0.737  -0.731  -0.715  -0.711
 -0.672  -0.655  -0.649  -0.629  -0.628  -0.620  -0.607  -0.603
 -0.587  -0.573  -0.567  -0.560  -0.557  -0.548  -0.543  -0.526
 -0.511  -0.509  -0.501  -0.499  -0.493  -0.492  -0.485  -0.484
 -0.473  -0.466  -0.462  -0.460  -0.451  -0.443  -0.429  -0.427
 -0.418  -0.411  -0.391  -0.377  -0.372  -0.358  -0.357  -0.352
 -0.344  -0.339  -0.334  -0.331  -0.319  -0.263

          Ground-State Mulliken Net Atomic Charges

     Atom                 Charge (a.u.)
  ----------------------------------------
      1 C                    -0.084498
      2 C                    -0.133085
      3 C                    -0.084047
      4 C                    -0.115463
      5 N                    -0.137286
      6 C                     0.064511
      7 C                     0.102465
      8 N                    -0.175824
      9 C                    -0.009529
     10 C                    -0.088096
     11 N                    -0.215320
     12 C                     0.047914
     13 C                     0.060945
     14 S                     0.404469
     15 N                    -0.306401
     16 C                    -0.070736
     17 S                     0.177540
     18 C                     0.060717
     19 C                    -0.054851
     20 N                    -0.170481
     21 C                     0.063642
     22 C                    -0.011861
     23 C                    -0.042913
     24 N                    -0.161774
     25 C                    -0.137810
     26 S                     0.103717
     27 C                    -0.046219
     28 C                    -0.158074
     29 C                    -0.182205
     30 H                     0.128984
     31 H                     0.119512
     32 H                     0.118653
     33 H                     0.144681
     34 H                     0.133557
     35 H                     0.125026
     36 H                     0.134032
     37 H                     0.128674
     38 H                     0.131248
     39 H                     0.136186
  ----------------------------------------
  Sum of atomic charges =     0.000000

                    Cartesian Multipole Moments
 -----------------------------------------------------------------
    Charge (ESU x 10^10)
                 0.0000
    Dipole Moment (Debye)
         X      -0.4057      Y       1.6085      Z       0.2108
       Tot       1.6722
    Quadrupole Moments (Debye-Ang)
        XX    -152.3330     XY       3.7417     YY    -164.7747
        XZ      -2.4301     YZ       1.9257     ZZ    -186.6322

 Total job time:  46308.88s(wall), 183499.32s(cpu)
        *  Thank you very much for using Q-Chem.  Have a nice day.  *
