 Q-Chem 4.4, Q-Chem, Inc., Pleasanton, CA (2016)
 Q-Chem 4.4.0 for Intel X86 Linux

User input:
--------------------------------------------------------------
$comment
OPTIMIZATION
$end

$rem
JOBTYPE OPT
EXCHANGE omegaB97X-D
BASIS cc-pVTZ
$end

$molecule
0 1
C          0.00000        0.00000        0.00000
C         -0.65442       -1.22189        0.00029
C          1.38558        0.00000        0.00000
C          0.09563       -2.38039        0.00926
N          2.11898       -1.10529        0.01182
C          1.48579       -2.27657        0.02342
C          2.30845       -3.51149        0.04024
N          3.11132       -3.67958        1.05510
C          2.28307       -4.50174       -0.99632
C          3.91255       -4.76675        1.16511
N          1.58231       -4.49128       -2.13092
C          3.12440       -5.65480       -0.86901
C          3.98742       -5.79979        0.26038
S          1.96196       -5.83537       -2.91870
N          3.02202       -6.49362       -1.89815
C          4.89701       -6.92422        0.42418
S          4.79788       -8.34668       -0.53627
C          5.96401       -7.06055        1.31170
C          6.10732       -9.13878        0.21596
N          6.36389       -6.13556        2.22859
C          6.65052       -8.31045        1.19123
C          6.53551      -10.46530       -0.17144
C          7.38202       -6.46702        2.96240
N          7.71536       -8.62277        1.97710
C          7.76250      -11.03942        0.01627
S          5.46476      -11.56823       -0.97449
C          8.06253       -7.71631        2.83900
C          7.84150      -12.35624       -0.49561
C          6.67893      -12.77223       -1.06604
H         -0.54818        0.93041       -0.00000
H         -1.73449       -1.27032       -0.00344
H          1.93674        0.93371       -0.01430
H         -0.36223       -3.35775        0.00507
H          4.54715       -4.78059        2.03628
H          7.71212       -5.74893        3.70482
H          8.56551      -10.52528        0.51617
H          8.90925       -7.93264        3.47956
H          8.73194      -12.96369       -0.44481
H          6.46983      -13.72316       -1.52649
$end

$opt
CONSTRAINT
tors 4 6 7 8 -120.00000
tors 10 13 16 17 168.54979
tors 17 19 22 25 157.50653
ENDCONSTRAINT
$end
--------------------------------------------------------------

   16   -2291.1907609408      7.00E-09 Convergence criterion met
 Total energy in the final basis set = -2291.1907609408
   13   -2291.1918698742      4.75E-09 Convergence criterion met
 Total energy in the final basis set = -2291.1918698742
   12   -2291.1920075918      6.03E-09 Convergence criterion met
 Total energy in the final basis set = -2291.1920075918
   11   -2291.1920398767      8.48E-09 Convergence criterion met
 Total energy in the final basis set = -2291.1920398767
   10   -2291.1920565476      6.91E-09 Convergence criterion met
 Total energy in the final basis set = -2291.1920565476
    9   -2291.1920587217      6.68E-09 Convergence criterion met
 Total energy in the final basis set = -2291.1920587217

             Standard Nuclear Orientation (Angstroms)
    I     Atom           X                Y                Z
 ----------------------------------------------------------------
    1      C      -7.6717320913    -0.3548503539    -0.1764408746
    2      C      -7.0079305164     0.4892524112    -1.0492813816
    3      C      -6.9136366541    -1.1345695782     0.6832269817
    4      C      -5.6271114035     0.5240676806    -1.0203381356
    5      N      -5.5871673875    -1.1138744379     0.7206819996
    6      C      -4.9585839785    -0.2899608871    -0.1138644201
    7      C      -3.4711968069    -0.3126897188    -0.0784499309
    8      N      -2.8483894132    -1.4309892762    -0.3006236809
    9      C      -2.7197543107     0.8799051195     0.1482745621
   10      C      -1.4884528392    -1.4872115140    -0.2852834053
   11      N      -3.2035379653     2.1022128124     0.3729482319
   12      C      -1.2943256421     0.8203746491     0.1572539695
   13      C      -0.6370799833    -0.4296368442    -0.0595023757
   14      S      -1.9300822396     3.0631827695     0.5696479512
   15      N      -0.7279826862     2.0044505277     0.3862225926
   16      C       0.8114882663    -0.5749176331    -0.0333522317
   17      S       1.8774145375     0.7741225070    -0.0387208474
   18      C       1.5726570123    -1.7413440022     0.0163183940
   19      C       3.3087282655    -0.1529596466    -0.0104222738
   20      N       1.0833069949    -3.0131216962     0.0512274785
   21      C       2.9832280520    -1.5030515817     0.0327419156
   22      C       4.6211392325     0.4545284369    -0.0177221581
   23      C       1.9684777336    -3.9601926014     0.0930935171
   24      N       3.8832604793    -2.5226758661     0.0743151756
   25      C       5.8013536629    -0.0864271993     0.4131910117
   26      S       4.8746740433     2.0590922578    -0.6254785926
   27      C       3.3768255209    -3.7167299270     0.1022609844
   28      C       6.8997036558     0.7934724518     0.2670626521
   29      C       6.5492920655     1.9904841424    -0.2727366660
   30      H      -8.7505244176    -0.4088610102    -0.1597328548
   31      H      -7.5627198359     1.1137282332    -1.7356964039
   32      H      -7.4007132005    -1.8083089063     1.3788374348
   33      H      -5.0656362560     1.1738393682    -1.6755801607
   34      H      -1.0744038117    -2.4679629657    -0.4571570964
   35      H       1.6022780367    -4.9804640302     0.1186407031
   36      H       5.8591732685    -1.0835002554     0.8168709389
   37      H       4.0665885143    -4.5527544558     0.1356757017
   38      H       7.9076614936     0.5434346326     0.5614311394
   39      H       7.1848832353     2.8319477321    -0.4899533750
 ----------------------------------------------------------------

    9   -2291.1920594001      2.93E-09 Convergence criterion met
 Total energy in the final basis set = -2291.1920594001
 Final energy is   -2291.19205940006
 **  OPTIMIZATION CONVERGED  **

                    Orbital Energies (a.u.)
 --------------------------------------------------------------

 Alpha MOs
 -- Occupied --
-89.159 -89.107 -89.087 -14.490 -14.486 -14.463 -14.462 -14.445
-14.435 -10.359 -10.354 -10.351 -10.345 -10.344 -10.344 -10.343
-10.341 -10.338 -10.337 -10.335 -10.332 -10.327 -10.324 -10.320
-10.311 -10.302 -10.301 -10.296 -10.294  -8.164  -8.116  -8.097
 -6.113  -6.108  -6.107  -6.065  -6.061  -6.059  -6.046  -6.042
 -6.040  -1.149  -1.101  -1.069  -1.047  -1.030  -1.016  -1.006
 -0.987  -0.926  -0.912  -0.901  -0.879  -0.869  -0.855  -0.839
 -0.812  -0.778  -0.772  -0.747  -0.741  -0.733  -0.722  -0.712
 -0.674  -0.656  -0.649  -0.632  -0.629  -0.621  -0.607  -0.605
 -0.588  -0.582  -0.568  -0.567  -0.559  -0.548  -0.542  -0.528
 -0.512  -0.504  -0.502  -0.500  -0.493  -0.490  -0.486  -0.485
 -0.477  -0.467  -0.464  -0.462  -0.452  -0.443  -0.430  -0.429
 -0.423  -0.411  -0.398  -0.376  -0.373  -0.361  -0.351  -0.348
 -0.344  -0.342  -0.339  -0.334  -0.327  -0.265

          Ground-State Mulliken Net Atomic Charges

     Atom                 Charge (a.u.)
  ----------------------------------------
      1 C                    -0.091226
      2 C                    -0.127132
      3 C                    -0.079579
      4 C                    -0.112158
      5 N                    -0.151678
      6 C                     0.108503
      7 C                     0.073637
      8 N                    -0.141796
      9 C                    -0.000696
     10 C                    -0.078443
     11 N                    -0.260454
     12 C                     0.047424
     13 C                     0.053817
     14 S                     0.407398
     15 N                    -0.303221
     16 C                    -0.073727
     17 S                     0.172574
     18 C                     0.062649
     19 C                    -0.054670
     20 N                    -0.169122
     21 C                     0.063349
     22 C                    -0.011456
     23 C                    -0.041584
     24 N                    -0.161593
     25 C                    -0.137645
     26 S                     0.102099
     27 C                    -0.045894
     28 C                    -0.158822
     29 C                    -0.182389
     30 H                     0.129996
     31 H                     0.116433
     32 H                     0.121123
     33 H                     0.126120
     34 H                     0.140107
     35 H                     0.126030
     36 H                     0.134281
     37 H                     0.129312
     38 H                     0.131821
     39 H                     0.136614
  ----------------------------------------
  Sum of atomic charges =     0.000000

                    Cartesian Multipole Moments
 -----------------------------------------------------------------
    Charge (ESU x 10^10)
                 0.0000
    Dipole Moment (Debye)
         X       0.4783      Y       1.1129      Z      -0.8452
       Tot       1.4770
    Quadrupole Moments (Debye-Ang)
        XX    -151.6086     XY     -10.7480     YY    -168.4146
        XZ       7.9120     YZ      -3.2790     ZZ    -184.7110

 Total job time:  26361.81s(wall), 104490.05s(cpu)
        *  Thank you very much for using Q-Chem.  Have a nice day.  *
