 Q-Chem 4.4, Q-Chem, Inc., Pleasanton, CA (2016)
 Q-Chem 4.4.0 for Intel X86 Linux

User input:
--------------------------------------------------------------
$comment
OPTIMIZATION
$end

$rem
JOBTYPE OPT
EXCHANGE omegaB97X-D
BASIS cc-pVTZ
$end

$molecule
0 1
C          0.00000        0.00000        0.00000
C         -0.65442       -1.22189        0.00029
C          1.38558        0.00000        0.00000
C          0.09563       -2.38039        0.00926
N          2.11898       -1.10529        0.01182
C          1.48579       -2.27657        0.02342
C          2.30845       -3.51149        0.04024
N          2.65150       -4.01543       -1.11351
C          2.71928       -4.18069        1.23986
C          3.39394       -5.14462       -1.21226
N          2.42993       -3.86352        2.50247
C          3.51373       -5.36822        1.12934
C          3.86843       -5.88471       -0.15470
S          3.13132       -4.96995        3.42722
N          3.82076       -5.90422        2.30903
C          4.63404       -7.10971       -0.33286
S          5.46865       -7.87949        0.95810
C          4.81820       -7.86205       -1.49254
C          6.08481       -9.15657        0.01083
N          4.30241       -7.57625       -2.72074
C          5.63475       -9.02102       -1.29737
C          6.92826      -10.19364        0.56413
C          4.60198       -8.40932       -3.67005
N          5.92654       -9.87289       -2.31629
C          7.14062      -11.45289        0.07471
S          7.84118       -9.94440        2.01751
C          5.41850       -9.56359       -3.47011
C          8.02467      -12.21556        0.87413
C          8.47650      -11.53354        1.96073
H         -0.54818        0.93041       -0.00000
H         -1.73449       -1.27032       -0.00344
H          1.93674        0.93371       -0.01430
H         -0.36223       -3.35775        0.00507
H          3.59283       -5.47428       -2.21904
H          4.20891       -8.19654       -4.65800
H          6.67987      -11.79981       -0.83437
H          5.62986      -10.22325       -4.30332
H          8.30541      -13.23293        0.64915
H          9.15392      -11.87723        2.72426
$end

$opt
CONSTRAINT
tors 4 6 7 8 90.00000
tors 10 13 16 17 168.54979
tors 17 19 22 25 157.50653
ENDCONSTRAINT
$end
--------------------------------------------------------------

   16   -2291.1894479039      7.28E-09 Convergence criterion met
 Total energy in the final basis set = -2291.1894479039
   12   -2291.1904040113      9.78E-09 Convergence criterion met
 Total energy in the final basis set = -2291.1904040113
   11   -2291.1905225788      9.31E-09 Convergence criterion met
 Total energy in the final basis set = -2291.1905225788
   11   -2291.1905386155      5.58E-09 Convergence criterion met
 Total energy in the final basis set = -2291.1905386155
   10   -2291.1905480595      6.96E-09 Convergence criterion met
 Total energy in the final basis set = -2291.1905480595
    9   -2291.1905500526      6.34E-09 Convergence criterion met
 Total energy in the final basis set = -2291.1905500526

             Standard Nuclear Orientation (Angstroms)
    I     Atom           X                Y                Z
 ----------------------------------------------------------------
    1      C      -7.6669538095     0.2914990130     0.1821342005
    2      C      -7.0289316212     0.4896357337    -1.0300681556
    3      C      -6.8890534595     0.1004298887     1.3128950107
    4      C      -5.6471337249     0.4958911087    -1.0587378724
    5      N      -5.5597039885     0.1030976015     1.3000441946
    6      C      -4.9591267650     0.3070056960     0.1321792476
    7      C      -3.4672213179     0.3202075459     0.1384457620
    8      N      -2.8449454110     1.4441704947     0.3246453152
    9      C      -2.7231579744    -0.8771759486    -0.0695052757
   10      C      -1.4821661349     1.4933034289     0.3163389527
   11      N      -3.2166054966    -2.0986813787    -0.2718910161
   12      C      -1.2980468964    -0.8245477941    -0.0812637844
   13      C      -0.6367238235     0.4289417385     0.1071789622
   14      S      -1.9488579437    -3.0702334826    -0.4509046116
   15      N      -0.7386826385    -2.0157716241    -0.2881397387
   16      C       0.8121917276     0.5733723442     0.0611239176
   17      S       1.8791071531    -0.7742347905     0.0878159090
   18      C       1.5715387230     1.7389912927    -0.0243041913
   19      C       3.3091142661     0.1523071442     0.0126926719
   20      N       1.0814657423     3.0100657989    -0.0764120041
   21      C       2.9819867734     1.5010420090    -0.0549829594
   22      C       4.6226500073    -0.4530322510     0.0068354592
   23      C       1.9654408028     3.9566227146    -0.1450805802
   24      N       3.8804988095     2.5201065849    -0.1287959180
   25      C       5.7923436634     0.0824832946    -0.4585736514
   26      S       4.8926701492    -2.0457790426     0.6377201727
   27      C       3.3734754052     3.7134728650    -0.1696685648
   28      C       6.8953783867    -0.7926233703    -0.3199821008
   29      C       6.5594164186    -1.9804486114     0.2484428224
   30      H      -8.7451236267     0.2815735550     0.2507532253
   31      H      -7.5978322399     0.6400775779    -1.9376908482
   32      H      -7.3528452620    -0.0569951240     2.2795454466
   33      H      -5.1047367270     0.6515006071    -1.9806874999
   34      H      -1.0652437963     2.4767890490     0.4613432221
   35      H       1.5984992283     4.9763732513    -0.1806040959
   36      H       5.8412554475     1.0733962320    -0.8780745697
   37      H       4.0622818755     4.5488658000    -0.2281840579
   38      H       7.8964958213    -0.5452515174    -0.6389495850
   39      H       7.2016871344    -2.8162385902     0.4676315421
 ----------------------------------------------------------------

    8   -2291.1905505034      9.52E-09 Convergence criterion met
 Total energy in the final basis set = -2291.1905505034
 Final energy is   -2291.19055050342
 **  OPTIMIZATION CONVERGED  **

                    Orbital Energies (a.u.)
 --------------------------------------------------------------

 Alpha MOs
 -- Occupied --
-89.158 -89.107 -89.087 -14.489 -14.484 -14.463 -14.463 -14.446
-14.437 -10.358 -10.352 -10.350 -10.346 -10.344 -10.344 -10.343
-10.342 -10.339 -10.337 -10.335 -10.332 -10.327 -10.325 -10.320
-10.312 -10.302 -10.301 -10.296 -10.294  -8.162  -8.116  -8.097
 -6.112  -6.107  -6.106  -6.065  -6.061  -6.060  -6.046  -6.042
 -6.040  -1.147  -1.102  -1.069  -1.048  -1.030  -1.016  -1.006
 -0.987  -0.926  -0.913  -0.900  -0.879  -0.870  -0.855  -0.839
 -0.812  -0.778  -0.772  -0.746  -0.740  -0.734  -0.724  -0.712
 -0.674  -0.656  -0.649  -0.632  -0.629  -0.621  -0.607  -0.605
 -0.587  -0.585  -0.568  -0.565  -0.559  -0.548  -0.543  -0.528
 -0.513  -0.504  -0.501  -0.499  -0.493  -0.492  -0.486  -0.485
 -0.477  -0.467  -0.463  -0.462  -0.451  -0.443  -0.430  -0.428
 -0.422  -0.411  -0.396  -0.376  -0.372  -0.359  -0.358  -0.345
 -0.344  -0.341  -0.339  -0.334  -0.331  -0.266

          Ground-State Mulliken Net Atomic Charges

     Atom                 Charge (a.u.)
  ----------------------------------------
      1 C                    -0.090611
      2 C                    -0.128782
      3 C                    -0.080754
      4 C                    -0.109295
      5 N                    -0.177960
      6 C                     0.133158
      7 C                     0.079530
      8 N                    -0.159555
      9 C                     0.010230
     10 C                    -0.082554
     11 N                    -0.251962
     12 C                     0.039318
     13 C                     0.053286
     14 S                     0.407424
     15 N                    -0.303682
     16 C                    -0.075214
     17 S                     0.175213
     18 C                     0.062229
     19 C                    -0.055447
     20 N                    -0.170020
     21 C                     0.063478
     22 C                    -0.011520
     23 C                    -0.041937
     24 N                    -0.161382
     25 C                    -0.137044
     26 S                     0.103356
     27 C                    -0.046026
     28 C                    -0.158645
     29 C                    -0.182411
     30 H                     0.129643
     31 H                     0.120697
     32 H                     0.121531
     33 H                     0.129648
     34 H                     0.140045
     35 H                     0.125546
     36 H                     0.133541
     37 H                     0.129022
     38 H                     0.131423
     39 H                     0.136484
  ----------------------------------------
  Sum of atomic charges =     0.000000

                    Cartesian Multipole Moments
 -----------------------------------------------------------------
    Charge (ESU x 10^10)
                 0.0000
    Dipole Moment (Debye)
         X       0.4100      Y       0.2029      Z      -2.1352
       Tot       2.1837
    Quadrupole Moments (Debye-Ang)
        XX    -151.2314     XY       3.8318     YY    -169.3497
        XZ       6.9648     YZ      -3.1775     ZZ    -183.6929

 Total job time:  27372.50s(wall), 108469.37s(cpu)
        *  Thank you very much for using Q-Chem.  Have a nice day.  *
