 Q-Chem 4.4, Q-Chem, Inc., Pleasanton, CA (2016)
 Q-Chem 4.4.0 for Intel X86 Linux

User input:
--------------------------------------------------------------
$comment
OPTIMIZATION
$end

$rem
JOBTYPE OPT
EXCHANGE omegaB97X-D
BASIS cc-pVTZ
$end

$molecule
0 1
C          0.00000        0.00000        0.00000
C         -0.65442       -1.22189        0.00029
C          1.38558        0.00000        0.00000
C          0.09563       -2.38039        0.00926
N          2.11898       -1.10529        0.01182
C          1.48579       -2.27657        0.02342
C          2.30845       -3.51149        0.04024
N          3.57527       -3.38826       -0.24745
C          1.78581       -4.81494        0.32933
C          4.41394       -4.45229       -0.26953
N          0.52403       -5.15920        0.58993
C          2.67978       -5.93485        0.31542
C          4.06083       -5.75449       -0.00321
S          0.51674       -6.74730        0.81169
N          2.07555       -7.09028        0.58583
C          5.00804       -6.85709       -0.07775
S          4.65411       -8.42801        0.52445
C          6.28993       -6.86984       -0.62673
C          6.16164       -9.10415        0.10243
N          6.91965       -5.81219       -1.21069
C          6.94029       -8.14085       -0.52853
C          6.49585      -10.48421        0.37953
C          8.11806       -6.03959       -1.65456
N          8.19719       -8.34244       -1.00662
C          7.43469      -11.26129       -0.24101
S          5.69062      -11.38235        1.62564
C          8.76293       -7.30955       -1.55265
C          7.49514      -12.57644        0.27766
C          6.60593      -12.78884        1.28474
H         -0.54818        0.93041       -0.00000
H         -1.73449       -1.27032       -0.00344
H          1.93674        0.93371       -0.01430
H         -0.36223       -3.35775        0.00507
H          5.43165       -4.22651       -0.54362
H          8.64126       -5.20926       -2.11569
H          8.05944      -10.88350       -1.03223
H          9.76445       -7.43685       -1.94613
H          8.17057      -13.33284       -0.09128
H          6.44666      -13.69262        1.84848
$end

$opt
CONSTRAINT
tors 4 6 7 8 165.00000
tors 10 13 16 17 168.54979
tors 17 19 22 25 157.50653
ENDCONSTRAINT
$end
--------------------------------------------------------------

   16   -2291.1901815611      6.47E-09 Convergence criterion met
 Total energy in the final basis set = -2291.1901815611
   14   -2291.1902586293      3.22E-09 Convergence criterion met
 Total energy in the final basis set = -2291.1902586293
   13   -2291.1918325134      4.59E-09 Convergence criterion met
 Total energy in the final basis set = -2291.1918325134
   11   -2291.1919372405      8.87E-09 Convergence criterion met
 Total energy in the final basis set = -2291.1919372405
   10   -2291.1919601536      9.76E-09 Convergence criterion met
 Total energy in the final basis set = -2291.1919601536
   10   -2291.1919695532      9.08E-09 Convergence criterion met
 Total energy in the final basis set = -2291.1919695532
    9   -2291.1919705730      4.69E-09 Convergence criterion met
 Total energy in the final basis set = -2291.1919705730

             Standard Nuclear Orientation (Angstroms)
    I     Atom           X                Y                Z
 ----------------------------------------------------------------
    1      C       7.6840867406    -0.4959210358     0.2245882243
    2      C       7.1376804382     0.6691549541    -0.2770641405
    3      C       6.8120860085    -1.4919925884     0.6431971723
    4      C       5.7600831416     0.7939483073    -0.3408979873
    5      N       5.4959056131    -1.3891188882     0.5854268889
    6      C       4.9677580428    -0.2660089515     0.0942524454
    7      C       3.4774702514    -0.2270318386     0.0491963503
    8      N       2.8410235013    -1.3537909893     0.1910923475
    9      C       2.7085195807     0.9746666672    -0.1177293322
   10      C       1.4897704482    -1.4283186576     0.1689961065
   11      N       3.1547400035     2.2255204050    -0.2452599962
   12      C       1.2779377145     0.8933974743    -0.1304418055
   13      C       0.6264500590    -0.3691457766     0.0062237530
   14      S       1.8643450684     3.1736244078    -0.3752817883
   15      N       0.6887412870     2.0792437411    -0.2727575748
   16      C      -0.8195122985    -0.5278112013    -0.0266818567
   17      S      -1.9050248162     0.8038363503     0.0581096327
   18      C      -1.5656025394    -1.7021150857    -0.1256367775
   19      C      -3.3233150957    -0.1415254774    -0.0053819554
   20      N      -1.0607159217    -2.9648581812    -0.2170143055
   21      C      -2.9790681204    -1.4832875918    -0.1169691973
   22      C      -4.6459230910     0.4418938022     0.0353875780
   23      C      -1.9333738918    -3.9215759514    -0.2898263973
   24      N      -3.8657354688    -2.5120926489    -0.1979439234
   25      C      -5.8166776532    -0.1032786638    -0.4155478770
   26      S      -4.9308387084     2.0110858259     0.7174964154
   27      C      -3.3444579254    -3.6970353335    -0.2798277351
   28      C      -6.9332001792     0.7436621439    -0.2226315468
   29      C      -6.6061973839     1.9216053896     0.3712584257
   30      H       8.7540132622    -0.6328246329     0.2916305637
   31      H       7.7739664058     1.4770024500    -0.6122190647
   32      H       7.1989293773    -2.4202248059     1.0487990056
   33      H       5.3105066599     1.6945599165    -0.7248400387
   34      H       1.0885160834    -2.4241796720     0.2688330326
   35      H      -1.5547893416    -4.9357621885    -0.3520695021
   36      H      -5.8587534479    -1.0854909272    -0.8555082116
   37      H      -4.0231757854    -4.5400051874    -0.3468050069
   38      H      -7.9371671390     0.4837586186    -0.5220648350
   39      H      -7.2594911014     2.7378636689     0.6281124941
 ----------------------------------------------------------------

    8   -2291.1919709095      7.98E-09 Convergence criterion met
 Total energy in the final basis set = -2291.1919709095
 Final energy is   -2291.19197090952
 **  OPTIMIZATION CONVERGED  **

                    Orbital Energies (a.u.)
 --------------------------------------------------------------

 Alpha MOs
 -- Occupied --
-89.160 -89.107 -89.088 -14.491 -14.486 -14.463 -14.462 -14.440
-14.430 -10.359 -10.357 -10.352 -10.345 -10.345 -10.344 -10.343
-10.342 -10.339 -10.336 -10.335 -10.331 -10.325 -10.322 -10.320
-10.308 -10.300 -10.298 -10.296 -10.294  -8.165  -8.116  -8.097
 -6.114  -6.109  -6.108  -6.065  -6.061  -6.060  -6.046  -6.043
 -6.040  -1.149  -1.102  -1.068  -1.044  -1.030  -1.017  -1.007
 -0.987  -0.926  -0.909  -0.899  -0.879  -0.869  -0.854  -0.839
 -0.812  -0.778  -0.772  -0.748  -0.740  -0.732  -0.717  -0.712
 -0.674  -0.656  -0.649  -0.630  -0.628  -0.621  -0.607  -0.604
 -0.589  -0.574  -0.569  -0.565  -0.559  -0.548  -0.541  -0.527
 -0.511  -0.509  -0.502  -0.501  -0.493  -0.487  -0.486  -0.484
 -0.477  -0.467  -0.466  -0.462  -0.453  -0.443  -0.431  -0.429
 -0.419  -0.411  -0.397  -0.381  -0.368  -0.362  -0.351  -0.350
 -0.344  -0.340  -0.334  -0.330  -0.321  -0.264

          Ground-State Mulliken Net Atomic Charges

     Atom                 Charge (a.u.)
  ----------------------------------------
      1 C                    -0.093561
      2 C                    -0.139150
      3 C                    -0.080939
      4 C                    -0.126851
      5 N                    -0.125612
      6 C                     0.086365
      7 C                     0.062857
      8 N                    -0.124302
      9 C                     0.022917
     10 C                    -0.082259
     11 N                    -0.284214
     12 C                     0.055211
     13 C                     0.055761
     14 S                     0.403340
     15 N                    -0.300737
     16 C                    -0.073247
     17 S                     0.172842
     18 C                     0.062176
     19 C                    -0.054541
     20 N                    -0.168178
     21 C                     0.063812
     22 C                    -0.011488
     23 C                    -0.041796
     24 N                    -0.162056
     25 C                    -0.137305
     26 S                     0.102656
     27 C                    -0.045547
     28 C                    -0.158058
     29 C                    -0.182242
     30 H                     0.132653
     31 H                     0.120411
     32 H                     0.117348
     33 H                     0.137142
     34 H                     0.139469
     35 H                     0.126234
     36 H                     0.133944
     37 H                     0.129142
     38 H                     0.131522
     39 H                     0.136280
  ----------------------------------------
  Sum of atomic charges =     0.000000

                    Cartesian Multipole Moments
 -----------------------------------------------------------------
    Charge (ESU x 10^10)
                 0.0000
    Dipole Moment (Debye)
         X      -0.4699      Y       1.2263      Z      -0.9398
       Tot       1.6149
    Quadrupole Moments (Debye-Ang)
        XX    -151.0011     XY      11.2582     YY    -166.9197
        XZ      -1.1942     YZ       1.4611     ZZ    -186.3869

 Total job time:  30733.82s(wall), 121793.46s(cpu)
        *  Thank you very much for using Q-Chem.  Have a nice day.  *
