 Q-Chem 4.4, Q-Chem, Inc., Pleasanton, CA (2016)
 Q-Chem 4.4.0 for Intel X86 Linux

User input:
--------------------------------------------------------------
$comment
OPTIMIZATION
$end

$rem
JOBTYPE OPT
EXCHANGE omegaB97X-D
BASIS cc-pVTZ
$end

$molecule
0 1
C          0.00000        0.00000        0.00000
C         -0.65442       -1.22189        0.00029
C          1.38558        0.00000        0.00000
C          0.09563       -2.38039        0.00926
N          2.11898       -1.10529        0.01182
C          1.48579       -2.27657        0.02342
C          2.30845       -3.51149        0.04024
N          2.62673       -4.00032        1.20753
C          2.78268       -4.17089       -1.14128
C          3.38129       -5.11832        1.33689
N          2.61740       -3.80560       -2.41318
C          3.57087       -5.35914       -0.99839
C          3.89461       -5.86109        0.29952
S          3.37963       -4.89628       -3.30801
N          3.96195       -5.87110       -2.16380
C          4.72764       -7.03587        0.51037
S          5.13252       -8.12674       -0.75524
C          5.33627       -7.47363        1.68626
C          6.06153       -9.16919        0.22362
N          5.25589       -6.86449        2.90227
C          6.09344       -8.67704        1.52328
C          6.70035      -10.35723       -0.29937
C          5.89718       -7.44379        3.87082
N          6.75420       -9.25509        2.56167
C          7.77427      -11.02885        0.21635
S          6.13686      -11.13100       -1.74560
C          6.65008       -8.64545        3.70297
C          8.14736      -12.15333       -0.55735
C          7.35761      -12.32809       -1.65087
H         -0.54818        0.93041       -0.00000
H         -1.73449       -1.27032       -0.00344
H          1.93674        0.93371       -0.01430
H         -0.36223       -3.35775        0.00507
H          3.59617       -5.40979        2.35212
H          5.83990       -6.98053        4.84956
H          8.26049      -10.72017        1.12596
H          7.16683       -9.07877        4.55107
H          8.97506      -12.79989       -0.30971
H          7.42329      -13.09989       -2.39920
$end

$opt
CONSTRAINT
tors 4 6 7 8 -90.00000
tors 10 13 16 17 168.54979
tors 17 19 22 25 157.50653
ENDCONSTRAINT
$end
--------------------------------------------------------------

   16   -2291.1893842772      7.30E-09 Convergence criterion met
 Total energy in the final basis set = -2291.1893842772
   13   -2291.1904563835      4.71E-09 Convergence criterion met
 Total energy in the final basis set = -2291.1904563835
   12   -2291.1906156454      6.92E-09 Convergence criterion met
 Total energy in the final basis set = -2291.1906156454
   11   -2291.1906458546      6.16E-09 Convergence criterion met
 Total energy in the final basis set = -2291.1906458546
   11   -2291.1906624620      6.71E-09 Convergence criterion met
 Total energy in the final basis set = -2291.1906624620
   10   -2291.1906677194      7.31E-09 Convergence criterion met
 Total energy in the final basis set = -2291.1906677194
    9   -2291.1906695957      8.65E-09 Convergence criterion met
 Total energy in the final basis set = -2291.1906695957

             Standard Nuclear Orientation (Angstroms)
    I     Atom           X                Y                Z
 ----------------------------------------------------------------
    1      C      -7.6638764107    -0.2566261873    -0.0724609116
    2      C      -7.0357150901    -0.1049176699    -1.2962978550
    3      C      -6.8775422845    -0.4311022484     1.0551278221
    4      C      -5.6540752070    -0.1341306408    -1.3414503369
    5      N      -5.5491890640    -0.4596326756     1.0267908272
    6      C      -4.9577520770    -0.3239313348    -0.1560654033
    7      C      -3.4659929737    -0.3460810843    -0.1492594120
    8      N      -2.8417871614    -1.4720277668    -0.3158180151
    9      C      -2.7249077871     0.8524219240     0.0627726408
   10      C      -1.4791849499    -1.5219566943    -0.2809856847
   11      N      -3.2210593987     2.0782969626     0.2275650393
   12      C      -1.3006104918     0.7989173581     0.1028785454
   13      C      -0.6366260038    -0.4557381800    -0.0677562385
   14      S      -1.9564971029     3.0508181304     0.4222605610
   15      N      -0.7444070984     1.9927464867     0.3031233082
   16      C       0.8128665801    -0.5936785333    -0.0209474373
   17      S       1.8712720873     0.7611208874    -0.0425009414
   18      C       1.5806743410    -1.7550604046     0.0426236805
   19      C       3.3076376580    -0.1571242801     0.0057528859
   20      N       1.0990105427    -3.0297470130     0.0831317526
   21      C       2.9899335777    -1.5085966654     0.0613071900
   22      C       4.6165217238     0.4582426391     0.0050181340
   23      C       1.9894879043    -3.9715030200     0.1323559965
   24      N       3.8956008386    -2.5227578324     0.1132291449
   25      C       5.7960002864    -0.0724249612     0.4506621852
   26      S       4.8644182501     2.0628154351    -0.6049062908
   27      C       3.3961863895    -3.7196830884     0.1456933911
   28      C       6.8889850938     0.8156125319     0.3141828765
   29      C       6.5355118570     2.0082647048    -0.2330673973
   30      H      -8.7411695492    -0.2398054111     0.0081224312
   31      H      -7.6116674962     0.0387411770    -2.2005190842
   32      H      -7.3320155591    -0.5389186758     2.0328069257
   33      H      -5.1209665846    -0.0209985372    -2.2747359737
   34      H      -1.0597766243    -2.5064890082    -0.4115910526
   35      H       1.6287314775    -4.9936698192     0.1605455379
   36      H       5.8568182824    -1.0677341070     0.8582079935
   37      H       4.0908247555    -4.5513481945     0.1860954138
   38      H       7.8956007034     0.5745287054     0.6203620410
   39      H       7.1668256208     2.8540532663    -0.4460166134
 ----------------------------------------------------------------

    9   -2291.1906701655      5.73E-09 Convergence criterion met
 Total energy in the final basis set = -2291.1906701655
 Final energy is   -2291.19067016555
 **  OPTIMIZATION CONVERGED  **

                    Orbital Energies (a.u.)
 --------------------------------------------------------------

 Alpha MOs
 -- Occupied --
-89.158 -89.107 -89.087 -14.489 -14.484 -14.463 -14.462 -14.446
-14.437 -10.358 -10.351 -10.350 -10.346 -10.344 -10.344 -10.343
-10.341 -10.338 -10.337 -10.335 -10.332 -10.327 -10.325 -10.320
-10.312 -10.302 -10.301 -10.296 -10.294  -8.162  -8.116  -8.097
 -6.112  -6.106  -6.106  -6.064  -6.061  -6.059  -6.046  -6.042
 -6.040  -1.147  -1.101  -1.069  -1.048  -1.030  -1.015  -1.006
 -0.987  -0.925  -0.913  -0.899  -0.879  -0.869  -0.855  -0.839
 -0.812  -0.777  -0.772  -0.745  -0.740  -0.734  -0.724  -0.712
 -0.674  -0.656  -0.649  -0.632  -0.629  -0.621  -0.607  -0.605
 -0.588  -0.585  -0.567  -0.566  -0.559  -0.548  -0.543  -0.528
 -0.513  -0.503  -0.501  -0.499  -0.493  -0.492  -0.486  -0.485
 -0.476  -0.467  -0.463  -0.461  -0.452  -0.442  -0.430  -0.428
 -0.422  -0.411  -0.396  -0.376  -0.372  -0.359  -0.358  -0.345
 -0.343  -0.341  -0.338  -0.334  -0.331  -0.266

          Ground-State Mulliken Net Atomic Charges

     Atom                 Charge (a.u.)
  ----------------------------------------
      1 C                    -0.090852
      2 C                    -0.127638
      3 C                    -0.080826
      4 C                    -0.110789
      5 N                    -0.178180
      6 C                     0.137449
      7 C                     0.075647
      8 N                    -0.159915
      9 C                     0.010530
     10 C                    -0.081449
     11 N                    -0.252495
     12 C                     0.041346
     13 C                     0.054372
     14 S                     0.406941
     15 N                    -0.304045
     16 C                    -0.075825
     17 S                     0.173429
     18 C                     0.063137
     19 C                    -0.055238
     20 N                    -0.169253
     21 C                     0.063039
     22 C                    -0.011029
     23 C                    -0.041803
     24 N                    -0.161506
     25 C                    -0.137323
     26 S                     0.102125
     27 C                    -0.045581
     28 C                    -0.159127
     29 C                    -0.182458
     30 H                     0.129981
     31 H                     0.120914
     32 H                     0.119962
     33 H                     0.129224
     34 H                     0.139573
     35 H                     0.125730
     36 H                     0.134423
     37 H                     0.129032
     38 H                     0.131775
     39 H                     0.136706
  ----------------------------------------
  Sum of atomic charges =     0.000000

                    Cartesian Multipole Moments
 -----------------------------------------------------------------
    Charge (ESU x 10^10)
                 0.0000
    Dipole Moment (Debye)
         X       0.3740      Y       0.3649      Z      -1.2320
       Tot       1.3382
    Quadrupole Moments (Debye-Ang)
        XX    -151.0198     XY      -7.0355     YY    -169.7187
        XZ       9.6872     YZ      -1.8433     ZZ    -182.6872

 Total job time:  30495.91s(wall), 120841.62s(cpu)
        *  Thank you very much for using Q-Chem.  Have a nice day.  *
