 Q-Chem 4.4, Q-Chem, Inc., Pleasanton, CA (2016)
 Q-Chem 4.4.0 for Intel X86 Linux

User input:
--------------------------------------------------------------
$comment
OPTIMIZATION
$end

$rem
JOBTYPE OPT
EXCHANGE omegaB97X-D
BASIS cc-pVTZ
$end

$molecule
0 1
C          0.00000        0.00000        0.00000
C         -0.65442       -1.22189        0.00029
C          1.38558        0.00000        0.00000
C          0.09563       -2.38039        0.00926
N          2.11898       -1.10529        0.01182
C          1.48579       -2.27657        0.02342
C          2.30845       -3.51149        0.04024
N          1.79647       -4.56138        0.62197
C          3.62483       -3.60144       -0.52079
C          2.46574       -5.73688        0.70135
N          4.34160       -2.63915       -1.10281
C          4.32327       -4.85037       -0.44368
C          3.72427       -5.97590        0.20107
S          5.74423       -3.29668       -1.51703
N          5.53827       -4.80498       -0.98677
C          4.40002       -7.25629        0.35101
S          5.83517       -7.65529       -0.50738
C          4.05937       -8.33126        1.17149
C          5.99073       -9.21723        0.15901
N          2.98777       -8.38755        2.01096
C          4.96066       -9.43788        1.06598
C          7.06930      -10.11016       -0.20489
C          2.85129       -9.48900        2.68411
N          4.78648      -10.57643        1.78873
C          7.56274      -11.16575        0.51107
S          7.92480       -9.93938       -1.70382
C          3.75286      -10.59084        2.57389
C          8.63221      -11.82466       -0.14033
C          8.94267      -11.26797       -1.34189
H         -0.54818        0.93041       -0.00000
H         -1.73449       -1.27032       -0.00344
H          1.93674        0.93371       -0.01430
H         -0.36223       -3.35775        0.00507
H          1.94780       -6.52320        1.22601
H          2.00013       -9.55882        3.35230
H          7.15363      -11.45290        1.46462
H          3.58629      -11.48285        3.16605
H          9.15105      -12.67469        0.27526
H          9.70819      -11.57283       -2.03547
$end

$opt
CONSTRAINT
tors 4 6 7 8 -30.00000
tors 10 13 16 17 168.54979
tors 17 19 22 25 157.50653
ENDCONSTRAINT
$end
--------------------------------------------------------------

   16   -2291.1952480561      5.23E-09 Convergence criterion met
 Total energy in the final basis set = -2291.1952480561
   12   -2291.1956689769      5.09E-09 Convergence criterion met
 Total energy in the final basis set = -2291.1956689769
   13   -2291.1959505462      4.26E-09 Convergence criterion met
 Total energy in the final basis set = -2291.1959505462
   11   -2291.1959654227      8.87E-09 Convergence criterion met
 Total energy in the final basis set = -2291.1959654227
   11   -2291.1959943750      5.24E-09 Convergence criterion met
 Total energy in the final basis set = -2291.1959943750
   10   -2291.1959969026      4.48E-09 Convergence criterion met
 Total energy in the final basis set = -2291.1959969026
    9   -2291.1959980742      4.86E-09 Convergence criterion met
 Total energy in the final basis set = -2291.1959980742

             Standard Nuclear Orientation (Angstroms)
    I     Atom           X                Y                Z
 ----------------------------------------------------------------
    1      C       7.6707064511     0.3656856323    -0.0699970114
    2      C       6.9946552952     1.2886883401    -0.8508763110
    3      C       6.9245722914    -0.5423545088     0.6643575976
    4      C       5.6147166075     1.2635280526    -0.8691134522
    5      N       5.5990693566    -0.5900798449     0.6440356957
    6      C       4.9567431279     0.2949250294    -0.1155441775
    7      C       3.4745437135     0.2564809045    -0.1117994682
    8      N       2.8422913105     1.3842089718    -0.2775967841
    9      C       2.7214896139    -0.9512406621     0.0405269574
   10      C       1.4873375674     1.4495176683    -0.2542021045
   11      N       3.1851263103    -2.1987901011     0.1247449347
   12      C       1.2923908699    -0.8791258848     0.0502815092
   13      C       0.6361255240     0.3836447799    -0.0772784616
   14      S       1.9025897350    -3.1559883986     0.2293120538
   15      N       0.7107359847    -2.0719843481     0.1629101445
   16      C      -0.8103094144     0.5370480082    -0.0203477455
   17      S      -1.8914377463    -0.7987459585    -0.0875305211
   18      C      -1.5582287530     1.7065973078     0.1136540856
   19      C      -3.3115632191     0.1399073279     0.0177325123
   20      N      -1.0557850301     2.9697689203     0.2128545749
   21      C      -2.9707637004     1.4816071098     0.1400332271
   22      C      -4.6327471820    -0.4477816179    -0.0112564325
   23      C      -1.9298019098     3.9210830415     0.3291630008
   24      N      -3.8584257593     2.5052270316     0.2625545655
   25      C      -5.7978379651     0.0836924182     0.4693578905
   26      S      -4.9236361018    -2.0022141767    -0.7243532822
   27      C      -3.3395321246     3.6905903012     0.3541900395
   28      C      -6.9148033132    -0.7620072882     0.2738221236
   29      C      -6.5940417598    -1.9252401598    -0.3516894335
   30      H       8.7500978489     0.3498808216    -0.0275005913
   31      H       7.5410644151     2.0109555965    -1.4416670500
   32      H       7.4200390774    -1.2673178220     1.2998043622
   33      H       5.0359788106     1.9595533977    -1.4563207996
   34      H       1.0777339513     2.4409149519    -0.3608425006
   35      H      -1.5534373799     4.9355192663     0.4009298177
   36      H      -5.8367901228     1.0567979463     0.9293374033
   37      H      -4.0193991722     4.5288629318     0.4577192322
   38      H      -7.9152502274    -0.5118288590     0.5926489998
   39      H      -7.2492544171    -2.7371131004    -0.6174673437
 ----------------------------------------------------------------

    9   -2291.1959984636      4.32E-09 Convergence criterion met
 Total energy in the final basis set = -2291.1959984636
 Final energy is   -2291.19599846358
 **  OPTIMIZATION CONVERGED  **

                    Orbital Energies (a.u.)
 --------------------------------------------------------------

 Alpha MOs
 -- Occupied --
-89.153 -89.107 -89.087 -14.483 -14.480 -14.463 -14.462 -14.445
-14.435 -10.355 -10.352 -10.350 -10.346 -10.344 -10.344 -10.342
-10.341 -10.338 -10.336 -10.335 -10.331 -10.326 -10.324 -10.320
-10.310 -10.301 -10.299 -10.295 -10.293  -8.158  -8.116  -8.097
 -6.108  -6.102  -6.102  -6.064  -6.061  -6.059  -6.046  -6.042
 -6.039  -1.143  -1.102  -1.068  -1.049  -1.030  -1.013  -1.003
 -0.986  -0.925  -0.912  -0.896  -0.879  -0.869  -0.853  -0.838
 -0.811  -0.777  -0.772  -0.748  -0.738  -0.731  -0.717  -0.711
 -0.672  -0.655  -0.648  -0.629  -0.629  -0.621  -0.607  -0.603
 -0.586  -0.578  -0.566  -0.562  -0.558  -0.548  -0.543  -0.526
 -0.512  -0.506  -0.501  -0.498  -0.493  -0.492  -0.485  -0.484
 -0.474  -0.466  -0.462  -0.461  -0.451  -0.443  -0.429  -0.427
 -0.419  -0.411  -0.393  -0.376  -0.372  -0.360  -0.357  -0.350
 -0.343  -0.339  -0.336  -0.334  -0.322  -0.264

          Ground-State Mulliken Net Atomic Charges

     Atom                 Charge (a.u.)
  ----------------------------------------
      1 C                    -0.090490
      2 C                    -0.126418
      3 C                    -0.079909
      4 C                    -0.119302
      5 N                    -0.152151
      6 C                     0.096233
      7 C                     0.102565
      8 N                    -0.177216
      9 C                    -0.017955
     10 C                    -0.079513
     11 N                    -0.223659
     12 C                     0.053275
     13 C                     0.056256
     14 S                     0.407906
     15 N                    -0.306814
     16 C                    -0.073137
     17 S                     0.177220
     18 C                     0.060677
     19 C                    -0.054996
     20 N                    -0.170155
     21 C                     0.064127
     22 C                    -0.012373
     23 C                    -0.043197
     24 N                    -0.162051
     25 C                    -0.138612
     26 S                     0.103615
     27 C                    -0.045975
     28 C                    -0.157842
     29 C                    -0.182585
     30 H                     0.129747
     31 H                     0.118707
     32 H                     0.120194
     33 H                     0.131805
     34 H                     0.136118
     35 H                     0.125584
     36 H                     0.134452
     37 H                     0.128360
     38 H                     0.131310
     39 H                     0.136197
  ----------------------------------------
  Sum of atomic charges =     0.000000

                    Cartesian Multipole Moments
 -----------------------------------------------------------------
    Charge (ESU x 10^10)
                 0.0000
    Dipole Moment (Debye)
         X      -0.3064      Y       1.2383      Z      -0.5958
       Tot       1.4079
    Quadrupole Moments (Debye-Ang)
        XX    -151.4686     XY       1.7777     YY    -166.6581
        XZ      -6.5853     YZ       0.4947     ZZ    -184.9186

 Total job time:  28937.03s(wall), 114685.11s(cpu)
        *  Thank you very much for using Q-Chem.  Have a nice day.  *
