 Q-Chem 4.4, Q-Chem, Inc., Pleasanton, CA (2016)
 Q-Chem 4.4.0 for Intel X86 Linux

User input:
--------------------------------------------------------------
$comment
OPTIMIZATION
$end

$rem
JOBTYPE OPT
EXCHANGE omegaB97X-D
BASIS cc-pVTZ
$end

$molecule
0 1
C          0.00000        0.00000        0.00000
C         -0.65442       -1.22189        0.00029
C          1.38558        0.00000        0.00000
C          0.09563       -2.38039        0.00926
N          2.11898       -1.10529        0.01182
C          1.48579       -2.27657        0.02342
C          2.30845       -3.51149        0.04024
N          3.60498       -3.36437        0.05312
C          1.76025       -4.83617        0.02019
C          4.44845       -4.42481        0.06029
N          0.47861       -5.19817       -0.04941
C          2.65701       -5.95378        0.03918
C          4.07066       -5.74714        0.05497
S          0.45339       -6.80143       -0.06413
N          2.03041       -7.12826        0.00468
C          5.03212       -6.83959        0.02934
S          4.58627       -8.47612        0.30982
C          6.40212       -6.78966       -0.22637
C          6.16164       -9.10376        0.13041
N          7.12290       -5.66715       -0.50326
C          7.03971       -8.06978       -0.17326
C          6.45408      -10.51349        0.27256
C          8.39278       -5.84367       -0.70618
N          8.37358       -8.21657       -0.39294
C          7.51879      -11.20520       -0.23567
S          5.41648      -11.57112        1.17403
C          9.02419       -7.12322       -0.65051
C          7.49073      -12.58193        0.09009
C          6.40978      -12.92555        0.84073
H         -0.54818        0.93041       -0.00000
H         -1.73449       -1.27032       -0.00344
H          1.93674        0.93371       -0.01430
H         -0.36223       -3.35775        0.00507
H          5.49690       -4.17499        0.04728
H          8.98736       -4.96241       -0.91993
H          8.29198      -10.72557       -0.81116
H         10.08911       -7.20541       -0.83288
H          8.24371      -13.28599       -0.22895
H          6.14982      -13.89891        1.22154
$end

$opt
CONSTRAINT
tors 4 6 7 8 180.00000
tors 10 13 16 17 168.54979
tors 17 19 22 25 157.50653
ENDCONSTRAINT
$end
--------------------------------------------------------------

   16   -2291.1894289432      6.61E-09 Convergence criterion met
 Total energy in the final basis set = -2291.1894289432
   13   -2291.1888955099      8.72E-09 Convergence criterion met
 Total energy in the final basis set = -2291.1888955099
   13   -2291.1910817517      5.32E-09 Convergence criterion met
 Total energy in the final basis set = -2291.1910817517
   12   -2291.1911028049      7.87E-09 Convergence criterion met
 Total energy in the final basis set = -2291.1911028049
   12   -2291.1912829721      5.01E-09 Convergence criterion met
 Total energy in the final basis set = -2291.1912829721
   11   -2291.1913143307      6.38E-09 Convergence criterion met
 Total energy in the final basis set = -2291.1913143307
   11   -2291.1913359258      6.46E-09 Convergence criterion met
 Total energy in the final basis set = -2291.1913359258
   10   -2291.1913413793      9.55E-09 Convergence criterion met
 Total energy in the final basis set = -2291.1913413793
    9   -2291.1913426821      3.47E-09 Convergence criterion met
 Total energy in the final basis set = -2291.1913426821

             Standard Nuclear Orientation (Angstroms)
    I     Atom           X                Y                Z
 ----------------------------------------------------------------
    1      C       7.6842151189    -0.5262634579     0.0534741814
    2      C       7.1372309706     0.7376693736    -0.0445294701
    3      C       6.8145444797    -1.5980673444     0.2045459673
    4      C       5.7605720724     0.8817292949     0.0011406982
    5      N       5.4999207941    -1.4761546766     0.2529517283
    6      C       4.9689392908    -0.2551952245     0.1551573451
    7      C       3.4755709000    -0.2032434550     0.1742720811
    8      N       2.8374747648    -1.3282681963     0.3241943085
    9      C       2.7016505921     0.9955973273    -0.0072648188
   10      C       1.4870318051    -1.4076754360     0.3054508300
   11      N       3.1381892706     2.2471633221    -0.1596161349
   12      C       1.2711008846     0.9052520316    -0.0422384968
   13      C       0.6217831804    -0.3568382339     0.1053782282
   14      S       1.8449323174     3.1836981199    -0.3301384011
   15      N       0.6762587407     2.0831399488    -0.2212165013
   16      C      -0.8224495864    -0.5216651367     0.0449230858
   17      S      -1.9146969775     0.8064344657     0.0824527644
   18      C      -1.5619274313    -1.7006554720    -0.0494901733
   19      C      -3.3274683051    -0.1447548241    -0.0059668818
   20      N      -1.0510035873    -2.9630843911    -0.1041326043
   21      C      -2.9759196199    -1.4869666103    -0.0821716902
   22      C      -4.6513764712     0.4368639818    -0.0118872642
   23      C      -1.9188401895    -3.9241728277    -0.1778545035
   24      N      -3.8572486553    -2.5201714628    -0.1635675730
   25      C      -5.8095421121    -0.1158371542    -0.4864214167
   26      S      -4.9535249247     2.0189811646     0.6311633906
   27      C      -3.3305406354    -3.7047680303    -0.2069235277
   28      C      -6.9294874447     0.7368121516    -0.3426011560
   29      C      -6.6177911525     1.9255615003     0.2376887032
   30      H       8.7528357466    -0.6832280749     0.0177348676
   31      H       7.7700251703     1.6063824871    -0.1663756575
   32      H       7.2021764990    -2.6082971773     0.2756421500
   33      H       5.3141032176     1.8584679245    -0.0703777754
   34      H       1.0885795943    -2.4022769898     0.4281583621
   35      H      -1.5359188116    -4.9379560668    -0.2138039589
   36      H      -5.8409178033    -1.1047156332    -0.9122313421
   37      H      -4.0047349958    -4.5515860765    -0.2710155078
   38      H      -7.9247645566     0.4720417846    -0.6659018471
   39      H      -7.2768353505     2.7465603186     0.4624436427
 ----------------------------------------------------------------

    8   -2291.1913431545      8.25E-09 Convergence criterion met
 Total energy in the final basis set = -2291.1913431545
 Final energy is   -2291.19134315447
 **  OPTIMIZATION CONVERGED  **

                    Orbital Energies (a.u.)
 --------------------------------------------------------------

 Alpha MOs
 -- Occupied --
-89.160 -89.107 -89.088 -14.490 -14.486 -14.463 -14.462 -14.440
-14.430 -10.359 -10.357 -10.352 -10.345 -10.345 -10.344 -10.343
-10.342 -10.339 -10.336 -10.335 -10.331 -10.325 -10.322 -10.320
-10.308 -10.299 -10.296 -10.296 -10.294  -8.165  -8.116  -8.098
 -6.114  -6.109  -6.108  -6.065  -6.061  -6.060  -6.046  -6.043
 -6.040  -1.150  -1.102  -1.067  -1.043  -1.030  -1.017  -1.007
 -0.987  -0.926  -0.908  -0.899  -0.878  -0.869  -0.854  -0.839
 -0.812  -0.778  -0.772  -0.748  -0.740  -0.731  -0.717  -0.712
 -0.674  -0.656  -0.649  -0.630  -0.628  -0.621  -0.607  -0.604
 -0.589  -0.573  -0.570  -0.565  -0.558  -0.548  -0.541  -0.527
 -0.510  -0.510  -0.502  -0.501  -0.493  -0.487  -0.485  -0.484
 -0.478  -0.467  -0.467  -0.462  -0.453  -0.443  -0.431  -0.430
 -0.418  -0.411  -0.396  -0.381  -0.368  -0.362  -0.352  -0.350
 -0.344  -0.339  -0.334  -0.328  -0.321  -0.264

          Ground-State Mulliken Net Atomic Charges

     Atom                 Charge (a.u.)
  ----------------------------------------
      1 C                    -0.093470
      2 C                    -0.141067
      3 C                    -0.082954
      4 C                    -0.137813
      5 N                    -0.123954
      6 C                     0.087819
      7 C                     0.073610
      8 N                    -0.124749
      9 C                     0.023987
     10 C                    -0.087148
     11 N                    -0.282514
     12 C                     0.053669
     13 C                     0.054620
     14 S                     0.400261
     15 N                    -0.299900
     16 C                    -0.071670
     17 S                     0.172476
     18 C                     0.062226
     19 C                    -0.054596
     20 N                    -0.168276
     21 C                     0.064133
     22 C                    -0.011655
     23 C                    -0.040937
     24 N                    -0.161742
     25 C                    -0.136019
     26 S                     0.102469
     27 C                    -0.045927
     28 C                    -0.157774
     29 C                    -0.181894
     30 H                     0.133023
     31 H                     0.120132
     32 H                     0.116878
     33 H                     0.144019
     34 H                     0.139410
     35 H                     0.125695
     36 H                     0.133221
     37 H                     0.129423
     38 H                     0.131033
     39 H                     0.135955
  ----------------------------------------
  Sum of atomic charges =     0.000000

                    Cartesian Multipole Moments
 -----------------------------------------------------------------
    Charge (ESU x 10^10)
                 0.0000
    Dipole Moment (Debye)
         X      -0.5047      Y       1.3050      Z      -0.6641
       Tot       1.5488
    Quadrupole Moments (Debye-Ang)
        XX    -151.4349     XY      11.4476     YY    -166.2303
        XZ      -0.0188     YZ       2.1363     ZZ    -186.8905

 Total job time:  38191.38s(wall), 151330.88s(cpu)
        *  Thank you very much for using Q-Chem.  Have a nice day.  *
