 Q-Chem 4.4, Q-Chem, Inc., Pleasanton, CA (2016)
 Q-Chem 4.4.0 for Intel X86 Linux

User input:
--------------------------------------------------------------
$comment
OPTIMIZATION
$end

$rem
JOBTYPE OPT
EXCHANGE omegaB97X-D
BASIS cc-pVTZ
$end

$molecule
0 1
C          0.00000        0.00000        0.00000
C         -0.65442       -1.22189        0.00029
C          1.38558        0.00000        0.00000
C          0.09563       -2.38039        0.00926
N          2.11898       -1.10529        0.01182
C          1.48579       -2.27657        0.02342
C          2.30845       -3.51149        0.04024
N          3.48177       -3.45437       -0.52796
C          1.87713       -4.75015        0.61938
C          4.30949       -4.52606       -0.57673
N          0.70573       -5.02996        1.19210
C          2.76133       -5.87699        0.57463
C          4.03878       -5.76990       -0.05625
S          0.76672       -6.56954        1.63625
N          2.24444       -6.97034        1.13200
C          4.96166       -6.88929       -0.17350
S          4.76600       -8.35094        0.71024
C          6.09510       -7.00442       -0.97777
C          6.15561       -9.10853        0.07545
N          6.57052       -6.05318       -1.82943
C          6.76753       -8.26018       -0.84008
C          6.55932      -10.44070        0.46965
C          7.64787       -6.36411       -2.48334
N          7.89426       -8.55154       -1.54335
C          7.35215      -11.31599       -0.22001
S          6.05324      -11.13602        1.97573
C          8.31572       -7.61820       -2.34103
C          7.53981      -12.54423        0.45711
C          6.89144      -12.59365        1.65175
H         -0.54818        0.93041       -0.00000
H         -1.73449       -1.27032       -0.00344
H          1.93674        0.93371       -0.01430
H         -0.36223       -3.35775        0.00507
H          5.24120       -4.36087       -1.09293
H          8.04867       -5.61825       -3.16074
H          7.78673      -11.06708       -1.17303
H          9.21040       -7.81918       -2.91830
H          8.12942      -13.35813        0.06417
H          6.86902      -13.40429        2.36052
$end

$opt
CONSTRAINT
tors 4 6 7 8 150.00000
tors 10 13 16 17 168.54979
tors 17 19 22 25 157.50653
ENDCONSTRAINT
$end
--------------------------------------------------------------

   16   -2291.1916596601      5.84E-09 Convergence criterion met
 Total energy in the final basis set = -2291.1916596601
   12   -2291.1924355737      8.01E-09 Convergence criterion met
 Total energy in the final basis set = -2291.1924355737
   12   -2291.1926792991      5.85E-09 Convergence criterion met
 Total energy in the final basis set = -2291.1926792991
   11   -2291.1927484854      6.53E-09 Convergence criterion met
 Total energy in the final basis set = -2291.1927484854
   11   -2291.1927686163      6.43E-09 Convergence criterion met
 Total energy in the final basis set = -2291.1927686163
   10   -2291.1927753681      7.27E-09 Convergence criterion met
 Total energy in the final basis set = -2291.1927753681
    9   -2291.1927776015      6.65E-09 Convergence criterion met
 Total energy in the final basis set = -2291.1927776015

             Standard Nuclear Orientation (Angstroms)
    I     Atom           X                Y                Z
 ----------------------------------------------------------------
    1      C       7.6739223183    -0.4879366810     0.0726345768
    2      C       7.0725417892     0.5284666025    -0.6456659247
    3      C       6.8592866271    -1.3389088329     0.8061526880
    4      C       5.6947109867     0.6441430430    -0.6150465748
    5      N       5.5387131157    -1.2480920622     0.8344045760
    6      C       4.9600366113    -0.2757239878     0.1284643202
    7      C       3.4724768310    -0.2463421560     0.1510665169
    8      N       2.8406708381    -1.3710830529     0.3221938458
    9      C       2.7098777908     0.9579648803    -0.0028454605
   10      C       1.4863739514    -1.4365608629     0.3131922314
   11      N       3.1696331560     2.2047316327    -0.1213925574
   12      C       1.2809638859     0.8865700300    -0.0006608196
   13      C       0.6277693365    -0.3755810174     0.1356583901
   14      S       1.8850498624     3.1640485413    -0.2290346199
   15      N       0.7000239292     2.0786079016    -0.1264698302
   16      C      -0.8176394718    -0.5326161233     0.0715447480
   17      S      -1.9034413950     0.7993701194     0.1377144017
   18      C      -1.5608607961    -1.7033426498    -0.0762759770
   19      C      -3.3196201196    -0.1416106283     0.0030048296
   20      N      -1.0532119592    -2.9643955727    -0.1739234851
   21      C      -2.9733967092    -1.4817437484    -0.1204249635
   22      C      -4.6414215077     0.4451772160     0.0079973587
   23      C      -1.9228468417    -3.9178196087    -0.3030710707
   24      N      -3.8565589482    -2.5073596163    -0.2594067191
   25      C      -5.7969715664    -0.0858050270    -0.4960673941
   26      S      -4.9442148298     2.0027541636     0.7088096567
   27      C      -3.3330673661    -3.6909359582    -0.3463790456
   28      C      -6.9158371750     0.7634519540    -0.3278511308
   29      C      -6.6061924388     1.9283312291     0.3000283125
   30      H       8.7473687348    -0.6121038007     0.0787512227
   31      H       7.6667071067     1.2128481252    -1.2350203320
   32      H       7.2937448841    -2.1393535067     1.3948408768
   33      H       5.1964547545     1.4259647692    -1.1652721986
   34      H       1.0803881146    -2.4290968932     0.4258418828
   35      H      -1.5428928922    -4.9310654340    -0.3719831080
   36      H      -5.8284977827    -1.0601937676    -0.9539230793
   37      H      -4.0090977556    -4.5309111812    -0.4607593867
   38      H      -7.9099092717     0.5140432972    -0.6665959731
   39      H      -7.2653169070     2.7419871532     0.5499909821
 ----------------------------------------------------------------

    9   -2291.1927784209      5.61E-09 Convergence criterion met
 Total energy in the final basis set = -2291.1927784209
 Final energy is   -2291.19277842088
 **  OPTIMIZATION CONVERGED  **

                    Orbital Energies (a.u.)
 --------------------------------------------------------------

 Alpha MOs
 -- Occupied --
-89.160 -89.107 -89.087 -14.490 -14.486 -14.463 -14.462 -14.442
-14.432 -10.359 -10.356 -10.351 -10.345 -10.344 -10.344 -10.343
-10.342 -10.339 -10.337 -10.335 -10.331 -10.326 -10.323 -10.320
-10.309 -10.300 -10.300 -10.296 -10.294  -8.164  -8.116  -8.097
 -6.114  -6.108  -6.108  -6.065  -6.061  -6.059  -6.046  -6.042
 -6.040  -1.149  -1.102  -1.068  -1.045  -1.030  -1.017  -1.006
 -0.987  -0.926  -0.910  -0.900  -0.879  -0.869  -0.854  -0.839
 -0.812  -0.778  -0.772  -0.749  -0.740  -0.732  -0.718  -0.712
 -0.674  -0.656  -0.649  -0.631  -0.629  -0.621  -0.607  -0.605
 -0.589  -0.577  -0.568  -0.566  -0.559  -0.548  -0.542  -0.528
 -0.511  -0.507  -0.503  -0.501  -0.493  -0.488  -0.486  -0.484
 -0.477  -0.467  -0.466  -0.462  -0.453  -0.443  -0.431  -0.429
 -0.421  -0.411  -0.398  -0.379  -0.370  -0.362  -0.351  -0.348
 -0.344  -0.340  -0.336  -0.334  -0.322  -0.264

          Ground-State Mulliken Net Atomic Charges

     Atom                 Charge (a.u.)
  ----------------------------------------
      1 C                    -0.091192
      2 C                    -0.132682
      3 C                    -0.082004
      4 C                    -0.115837
      5 N                    -0.130380
      6 C                     0.083349
      7 C                     0.061441
      8 N                    -0.126870
      9 C                     0.014855
     10 C                    -0.076109
     11 N                    -0.279673
     12 C                     0.054193
     13 C                     0.054939
     14 S                     0.406768
     15 N                    -0.301665
     16 C                    -0.074636
     17 S                     0.174310
     18 C                     0.061753
     19 C                    -0.055300
     20 N                    -0.169102
     21 C                     0.064514
     22 C                    -0.011867
     23 C                    -0.042277
     24 N                    -0.162464
     25 C                    -0.137668
     26 S                     0.103020
     27 C                    -0.045411
     28 C                    -0.157830
     29 C                    -0.182253
     30 H                     0.131565
     31 H                     0.115837
     32 H                     0.122674
     33 H                     0.130150
     34 H                     0.139423
     35 H                     0.126542
     36 H                     0.134281
     37 H                     0.128431
     38 H                     0.131158
     39 H                     0.136021
  ----------------------------------------
  Sum of atomic charges =     0.000000

                    Cartesian Multipole Moments
 -----------------------------------------------------------------
    Charge (ESU x 10^10)
                 0.0000
    Dipole Moment (Debye)
         X      -0.4305      Y       1.0778      Z      -1.5252
       Tot       1.9165
    Quadrupole Moments (Debye-Ang)
        XX    -151.3518     XY      10.0755     YY    -167.8774
        XZ      -3.9888     YZ       1.5921     ZZ    -185.6046

 Total job time:  30328.67s(wall), 120177.91s(cpu)
        *  Thank you very much for using Q-Chem.  Have a nice day.  *
