 Q-Chem 4.4, Q-Chem, Inc., Pleasanton, CA (2016)
 Q-Chem 4.4.0 for Intel X86 Linux

User input:
--------------------------------------------------------------
$comment
OPTIMIZATION
$end

$rem
JOBTYPE OPT
EXCHANGE omegaB97X-D
BASIS cc-pVTZ
$end

$molecule
0 1
C          0.00000        0.00000        0.00000
C         -0.65442       -1.22189        0.00029
C          1.38558        0.00000        0.00000
C          0.09563       -2.38039        0.00926
N          2.11898       -1.10529        0.01182
C          1.48579       -2.27657        0.02342
C          2.30845       -3.51149        0.04024
N          3.56886       -3.38435        0.35328
C          1.80222       -4.81240       -0.28696
C          4.41067       -4.44549        0.39024
N          0.57255       -5.14421       -0.68234
C          2.69457       -5.93250       -0.23527
C          4.06760       -5.74837        0.11435
S          0.58100       -6.72824       -0.93152
N          2.11209       -7.08171       -0.57183
C          5.03226       -6.83798        0.14049
S          4.56711       -8.49200        0.08100
C          6.42402       -6.76931        0.19601
C          6.15561       -9.10741        0.15750
N          7.16643       -5.62797        0.24465
C          7.05901       -8.05182        0.20151
C          6.43686      -10.52655        0.15604
C          8.45329       -5.78969        0.29717
N          8.41140       -8.18254        0.25589
C          7.59870      -11.15154       -0.20435
S          5.24951      -11.68947        0.65167
C          9.08169       -7.07192        0.30388
C          7.52690      -12.56033       -0.09283
C          6.31634      -12.99448        0.34999
H         -0.54818        0.93041       -0.00000
H         -1.73449       -1.27032       -0.00344
H          1.93674        0.93371       -0.01430
H         -0.36223       -3.35775        0.00507
H          5.43251       -4.20982        0.63948
H          9.06339       -4.89453        0.34505
H          8.46853      -10.60407       -0.52486
H         10.16225       -7.14063        0.34556
H          8.34389      -13.22076       -0.33945
H          5.99874      -14.00907        0.52243
$end

$opt
CONSTRAINT
tors 4 6 7 8 -165.00000
tors 10 13 16 17 168.54979
tors 17 19 22 25 157.50653
ENDCONSTRAINT
$end
--------------------------------------------------------------

   16   -2291.1906787932      6.10E-09 Convergence criterion met
 Total energy in the final basis set = -2291.1906787932
   13   -2291.1909732307      6.33E-09 Convergence criterion met
 Total energy in the final basis set = -2291.1909732307
   12   -2291.1918386438      8.36E-09 Convergence criterion met
 Total energy in the final basis set = -2291.1918386438
   11   -2291.1918752229      8.57E-09 Convergence criterion met
 Total energy in the final basis set = -2291.1918752229
   11   -2291.1918860800      5.40E-09 Convergence criterion met
 Total energy in the final basis set = -2291.1918860800
   10   -2291.1918944458      5.65E-09 Convergence criterion met
 Total energy in the final basis set = -2291.1918944458
    9   -2291.1918956838      4.20E-09 Convergence criterion met
 Total energy in the final basis set = -2291.1918956838

             Standard Nuclear Orientation (Angstroms)
    I     Atom           X                Y                Z
 ----------------------------------------------------------------
    1      C       7.6848834874    -0.4905011709     0.2297038084
    2      C       7.1201528747     0.7668730467     0.3152941610
    3      C       6.8324652350    -1.5767414037     0.0851312210
    4      C       5.7421319326     0.8905452005     0.2611920942
    5      N       5.5155598626    -1.4747280867     0.0326955308
    6      C       4.9689917003    -0.2602829320     0.1217514492
    7      C       3.4778885139    -0.2226336241     0.0793195474
    8      N       2.8414899593    -1.3460100379     0.2471980089
    9      C       2.7079012727     0.9697562715    -0.1451180853
   10      C       1.4902973181    -1.4237111766     0.2211323924
   11      N       3.1516225504     2.2090880848    -0.3627084456
   12      C       1.2777549328     0.8845322372    -0.1653045669
   13      C       0.6263827144    -0.3713513925     0.0223398586
   14      S       1.8608646458     3.1446183409    -0.5588250579
   15      N       0.6867318042     2.0571911558    -0.3871235214
   16      C      -0.8193728535    -0.5308964875    -0.0081522035
   17      S      -1.9040606944     0.8030915187     0.0310740793
   18      C      -1.5656431135    -1.7071429168    -0.0750203587
   19      C      -3.3227976801    -0.1428080351    -0.0050155830
   20      N      -1.0611155595    -2.9720099301    -0.1329580999
   21      C      -2.9790148398    -1.4873753713    -0.0766772399
   22      C      -4.6445319652     0.4431474059     0.0233247316
   23      C      -1.9344183953    -3.9296533734    -0.1834083751
   24      N      -3.8663460417    -2.5173200218    -0.1304225231
   25      C      -5.8178588348    -0.1104384582    -0.4104009930
   26      S      -4.9247313892     2.0271596225     0.6721677424
   27      C      -3.3455240839    -3.7043014250    -0.1805829515
   28      C      -6.9324859549     0.7424212346    -0.2320277532
   29      C      -6.6011956479     1.9327423698     0.3342073196
   30      H       8.7558674373    -0.6302203204     0.2658872447
   31      H       7.7399867387     1.6457401917     0.4307804515
   32      H       7.2343993206    -2.5814263947     0.0172123804
   33      H       5.2813827187     1.8619099096     0.3177290391
   34      H       1.0896104323    -2.4160228161     0.3548263157
   35      H      -1.5563118448    -4.9451079380    -0.2232941690
   36      H      -5.8620693160    -1.1006061288    -0.8320698630
   37      H      -4.0246468731    -4.5484902424    -0.2245249274
   38      H      -7.9378676941     0.4778672082    -0.5224998247
   39      H      -7.2521763810     2.7553447508     0.5762879531
 ----------------------------------------------------------------

    8   -2291.1918960464      8.73E-09 Convergence criterion met
 Total energy in the final basis set = -2291.1918960464
 Final energy is   -2291.19189604637
 **  OPTIMIZATION CONVERGED  **

                    Orbital Energies (a.u.)
 --------------------------------------------------------------

 Alpha MOs
 -- Occupied --
-89.160 -89.107 -89.088 -14.490 -14.486 -14.463 -14.462 -14.440
-14.430 -10.359 -10.357 -10.352 -10.345 -10.345 -10.344 -10.343
-10.342 -10.339 -10.336 -10.335 -10.331 -10.325 -10.322 -10.320
-10.308 -10.300 -10.297 -10.296 -10.294  -8.165  -8.116  -8.098
 -6.114  -6.109  -6.108  -6.065  -6.061  -6.060  -6.046  -6.043
 -6.040  -1.149  -1.101  -1.067  -1.044  -1.030  -1.017  -1.007
 -0.987  -0.926  -0.909  -0.899  -0.879  -0.869  -0.854  -0.839
 -0.812  -0.778  -0.772  -0.748  -0.740  -0.732  -0.717  -0.712
 -0.674  -0.656  -0.649  -0.630  -0.628  -0.621  -0.607  -0.605
 -0.589  -0.574  -0.570  -0.565  -0.558  -0.548  -0.541  -0.528
 -0.510  -0.509  -0.502  -0.501  -0.493  -0.487  -0.486  -0.484
 -0.477  -0.467  -0.467  -0.462  -0.453  -0.443  -0.431  -0.429
 -0.418  -0.411  -0.397  -0.381  -0.368  -0.362  -0.351  -0.350
 -0.344  -0.340  -0.335  -0.330  -0.321  -0.264

          Ground-State Mulliken Net Atomic Charges

     Atom                 Charge (a.u.)
  ----------------------------------------
      1 C                    -0.092804
      2 C                    -0.140142
      3 C                    -0.080678
      4 C                    -0.126677
      5 N                    -0.124815
      6 C                     0.083710
      7 C                     0.063385
      8 N                    -0.124608
      9 C                     0.023579
     10 C                    -0.083708
     11 N                    -0.283828
     12 C                     0.054476
     13 C                     0.056679
     14 S                     0.403317
     15 N                    -0.300438
     16 C                    -0.071884
     17 S                     0.172640
     18 C                     0.061742
     19 C                    -0.054163
     20 N                    -0.168068
     21 C                     0.063931
     22 C                    -0.012024
     23 C                    -0.041306
     24 N                    -0.161707
     25 C                    -0.137304
     26 S                     0.102553
     27 C                    -0.045967
     28 C                    -0.157965
     29 C                    -0.182249
     30 H                     0.132520
     31 H                     0.120483
     32 H                     0.117230
     33 H                     0.137060
     34 H                     0.140260
     35 H                     0.125859
     36 H                     0.133611
     37 H                     0.129478
     38 H                     0.131569
     39 H                     0.136255
  ----------------------------------------
  Sum of atomic charges =     0.000000

                    Cartesian Multipole Moments
 -----------------------------------------------------------------
    Charge (ESU x 10^10)
                 0.0000
    Dipole Moment (Debye)
         X      -0.4966      Y       1.3402      Z      -0.1732
       Tot       1.4397
    Quadrupole Moments (Debye-Ang)
        XX    -151.2327     XY      11.8880     YY    -166.3492
        XZ       2.7920     YZ       2.3880     ZZ    -186.8018

 Total job time:  30244.29s(wall), 119844.78s(cpu)
        *  Thank you very much for using Q-Chem.  Have a nice day.  *
