 Q-Chem 4.4, Q-Chem, Inc., Pleasanton, CA (2016)
 Q-Chem 4.4.0 for Intel X86 Linux

User input:
--------------------------------------------------------------
$comment
OPTIMIZATION
$end

$rem
JOBTYPE OPT
EXCHANGE omegaB97X-D
BASIS cc-pVTZ
$end

$molecule
0 1
C          0.00000        0.00000        0.00000
C         -0.65442       -1.22189        0.00029
C          1.38558        0.00000        0.00000
C          0.09563       -2.38039        0.00926
N          2.11898       -1.10529        0.01182
C          1.48579       -2.27657        0.02342
C          2.30845       -3.51149        0.04024
N          2.40110       -4.18173       -1.07555
C          2.97678       -4.00961        1.20683
C          3.11916       -5.32707       -1.16831
N          2.96243       -3.50960        2.44306
C          3.74383       -5.21534        1.09989
C          3.81993       -5.91686       -0.14245
S          3.86078       -4.48513        3.34450
N          4.30481       -5.58256        2.25041
C          4.54472       -7.16881       -0.30312
S          5.64780       -7.76128        0.87497
C          4.48412       -8.08272       -1.35472
C          6.06152       -9.17209        0.01104
N          3.71205       -7.96613       -2.47119
C          5.33829       -9.21684       -1.17524
C          7.01762      -10.13481        0.51314
C          3.81052       -8.93196       -3.33282
N          5.41441      -10.21110       -2.09973
C          7.13554      -11.45490        0.17579
S          8.21915       -9.69714        1.68472
C          4.66565      -10.06074       -3.14940
C          8.18083      -12.11163        0.86741
C          8.84755      -11.28961        1.72170
H         -0.54818        0.93041       -0.00000
H         -1.73449       -1.27032       -0.00344
H          1.93674        0.93371       -0.01430
H         -0.36223       -3.35775        0.00507
H          3.10051       -5.80112       -2.13617
H          3.21101       -8.85551       -4.23313
H          6.49410      -11.91973       -0.55330
H          4.70080      -10.83672       -3.90484
H          8.41944      -13.15578        0.73599
H          9.67799      -11.53304        2.36288
$end

$opt
CONSTRAINT
tors 4 6 7 8 75.00000
tors 10 13 16 17 168.54979
tors 17 19 22 25 157.50653
ENDCONSTRAINT
$end
--------------------------------------------------------------

   16   -2291.1904600722      7.19E-09 Convergence criterion met
 Total energy in the final basis set = -2291.1904600722
   13   -2291.1915629735      5.19E-09 Convergence criterion met
 Total energy in the final basis set = -2291.1915629735
   12   -2291.1917052693      6.70E-09 Convergence criterion met
 Total energy in the final basis set = -2291.1917052693
   11   -2291.1917267799      6.53E-09 Convergence criterion met
 Total energy in the final basis set = -2291.1917267799
   11   -2291.1917399328      5.39E-09 Convergence criterion met
 Total energy in the final basis set = -2291.1917399328
   11   -2291.1917455709      4.07E-09 Convergence criterion met
 Total energy in the final basis set = -2291.1917455709
   11   -2291.1917527598      7.78E-09 Convergence criterion met
 Total energy in the final basis set = -2291.1917527598
   12   -2291.1917595619      4.04E-09 Convergence criterion met
 Total energy in the final basis set = -2291.1917595619
   11   -2291.1917628017      6.24E-09 Convergence criterion met
 Total energy in the final basis set = -2291.1917628017

             Standard Nuclear Orientation (Angstroms)
    I     Atom           X                Y                Z
 ----------------------------------------------------------------
    1      C      -7.6526636788     0.1905656593     0.3310852205
    2      C      -7.1109942041     0.7424961362    -0.8168237027
    3      C      -6.7862265867    -0.2684310115     1.3104735944
    4      C      -5.7347874809     0.8173519601    -0.9344884983
    5      N      -5.4634315394    -0.2157561386     1.2062971108
    6      C      -4.9553560477     0.3310548929     0.1054238639
    7      C      -3.4683409368     0.3625959681     0.0204517519
    8      N      -2.8459680036     1.4914918068     0.1789084639
    9      C      -2.7251577323    -0.8345873033    -0.1951854768
   10      C      -1.4835458884     1.5438396923     0.1519758666
   11      N      -3.2176349790    -2.0562058375    -0.3967694955
   12      C      -1.3006039056    -0.7781378047    -0.2245189501
   13      C      -0.6383603594     0.4761086506    -0.0416264651
   14      S      -1.9503287825    -3.0240603561    -0.5922865702
   15      N      -0.7404788790    -1.9674755415    -0.4397107455
   16      C       0.8121577557     0.6100056081    -0.0510780730
   17      S       1.8635456573    -0.7496935347    -0.0050075565
   18      C       1.5867453815     1.7686049846    -0.0660261262
   19      C       3.3044236485     0.1622714967     0.0156241962
   20      N       1.1123698910     3.0460459147    -0.1058523803
   21      C       2.9946630903     1.5160313329    -0.0315043942
   22      C       4.6092751017    -0.4608351548     0.0463771232
   23      C       2.0079446024     3.9844961016    -0.1030318497
   24      N       3.9056712269     2.5266245886    -0.0311912201
   25      C       5.8065702303     0.0715198877    -0.3470971460
   26      S       4.8236664257    -2.0860941546     0.6126010889
   27      C       3.4127938259     3.7263903238    -0.0625146316
   28      C       6.8869811009    -0.8307182127    -0.2042545037
   29      C       6.5057800971    -2.0359270177     0.2949217201
   30      H      -8.7224665982     0.1163120189     0.4642568010
   31      H      -7.7522041679     1.1049602227    -1.6089105797
   32      H      -7.1744797627    -0.7022460476     2.2244591324
   33      H      -5.2687703782     1.2475578258    -1.8093003787
   34      H      -1.0658228607     2.5293017992     0.2812949099
   35      H       1.6523480410     5.0085561549    -0.1286867903
   36      H       5.8864241173     1.0761369208    -0.7279352111
   37      H       4.1118685871     4.5553260626    -0.0559121213
   38      H       7.9049983339    -0.5910892820    -0.4714410096
   39      H       7.1222416011    -2.8941913343     0.5017958900
 ----------------------------------------------------------------

    9   -2291.1917640160      7.01E-09 Convergence criterion met
 Total energy in the final basis set = -2291.1917640160
 Final energy is   -2291.19176401605
 **  OPTIMIZATION CONVERGED  **

                    Orbital Energies (a.u.)
 --------------------------------------------------------------

 Alpha MOs
 -- Occupied --
-89.156 -89.107 -89.087 -14.487 -14.483 -14.463 -14.462 -14.446
-14.437 -10.357 -10.351 -10.350 -10.346 -10.344 -10.344 -10.342
-10.341 -10.338 -10.337 -10.335 -10.332 -10.326 -10.326 -10.320
-10.312 -10.302 -10.301 -10.296 -10.293  -8.161  -8.116  -8.097
 -6.111  -6.105  -6.104  -6.064  -6.061  -6.059  -6.046  -6.042
 -6.039  -1.146  -1.101  -1.069  -1.049  -1.030  -1.015  -1.005
 -0.986  -0.925  -0.913  -0.899  -0.879  -0.869  -0.854  -0.838
 -0.812  -0.777  -0.772  -0.746  -0.740  -0.733  -0.723  -0.711
 -0.673  -0.656  -0.649  -0.631  -0.629  -0.621  -0.607  -0.604
 -0.587  -0.585  -0.568  -0.564  -0.559  -0.548  -0.543  -0.527
 -0.513  -0.504  -0.501  -0.498  -0.494  -0.492  -0.486  -0.484
 -0.476  -0.466  -0.463  -0.461  -0.451  -0.443  -0.429  -0.427
 -0.421  -0.411  -0.395  -0.377  -0.370  -0.360  -0.358  -0.346
 -0.344  -0.341  -0.338  -0.334  -0.330  -0.266

          Ground-State Mulliken Net Atomic Charges

     Atom                 Charge (a.u.)
  ----------------------------------------
      1 C                    -0.093711
      2 C                    -0.126076
      3 C                    -0.078026
      4 C                    -0.124234
      5 N                    -0.173976
      6 C                     0.142486
      7 C                     0.086446
      8 N                    -0.165155
      9 C                    -0.002224
     10 C                    -0.084717
     11 N                    -0.246601
     12 C                     0.046322
     13 C                     0.055040
     14 S                     0.406855
     15 N                    -0.304738
     16 C                    -0.074116
     17 S                     0.173875
     18 C                     0.061812
     19 C                    -0.056355
     20 N                    -0.169547
     21 C                     0.063032
     22 C                    -0.009883
     23 C                    -0.042042
     24 N                    -0.161329
     25 C                    -0.138043
     26 S                     0.102683
     27 C                    -0.045467
     28 C                    -0.160413
     29 C                    -0.182298
     30 H                     0.132405
     31 H                     0.120819
     32 H                     0.117956
     33 H                     0.130640
     34 H                     0.139484
     35 H                     0.125246
     36 H                     0.135384
     37 H                     0.129044
     38 H                     0.132249
     39 H                     0.137171
  ----------------------------------------
  Sum of atomic charges =     0.000000

                    Cartesian Multipole Moments
 -----------------------------------------------------------------
    Charge (ESU x 10^10)
                 0.0000
    Dipole Moment (Debye)
         X       0.2267      Y       0.5191      Z      -1.7594
       Tot       1.8483
    Quadrupole Moments (Debye-Ang)
        XX    -149.5668     XY       2.3340     YY    -168.3682
        XZ       5.5383     YZ      -3.3695     ZZ    -184.2990

 Total job time:  35115.91s(wall), 139091.94s(cpu)
        *  Thank you very much for using Q-Chem.  Have a nice day.  *
