 Q-Chem 4.4, Q-Chem, Inc., Pleasanton, CA (2016)
 Q-Chem 4.4.0 for Intel X86 Linux

User input:
--------------------------------------------------------------
$comment
OPTIMIZATION
$end

$rem
JOBTYPE OPT
EXCHANGE omegaB97X-D
BASIS cc-pVTZ
$end

$molecule
0 1
C          0.00000        0.00000        0.00000
C         -0.65442       -1.22189        0.00029
C          1.38558        0.00000        0.00000
C          0.09563       -2.38039        0.00926
N          2.11898       -1.10529        0.01182
C          1.48579       -2.27657        0.02342
C          2.30845       -3.51149        0.04024
N          1.70296       -4.62749        0.34146
C          3.71615       -3.53665       -0.23074
C          2.36128       -5.81065        0.39415
N          4.52329       -2.50991       -0.50063
C          4.40482       -4.79251       -0.18447
C          3.70222       -5.99132        0.14804
S          5.99421       -3.11892       -0.69246
N          5.70715       -4.68504       -0.44060
C          4.35364       -7.28849        0.25526
S          5.94706       -7.57822       -0.32159
C          3.86454       -8.46583        0.82045
C          5.98470       -9.22161        0.13203
N          2.63865       -8.62855        1.39222
C          4.78790       -9.55721        0.75443
C          7.13277      -10.06665       -0.11477
C          2.38110       -9.81352        1.85532
N          4.48355      -10.78554        1.25200
C          7.48020      -11.22045        0.53207
S          8.28742       -9.69305       -1.35373
C          3.30565      -10.89949        1.78551
C          8.67689      -11.79246        0.03911
C          9.22818      -11.07278       -0.97488
H         -0.54818        0.93041       -0.00000
H         -1.73449       -1.27032       -0.00344
H          1.93674        0.93371       -0.01430
H         -0.36223       -3.35775        0.00507
H          1.75735       -6.65756        0.67670
H          1.40755       -9.96781        2.30724
H          6.88092      -11.63648        1.32382
H          3.03224      -11.86518        2.19387
H          9.10990      -12.69998        0.43072
H         10.13055      -11.28450       -1.52342
$end

$opt
CONSTRAINT
tors 4 6 7 8 -15.00000
tors 10 13 16 17 168.54979
tors 17 19 22 25 157.50653
ENDCONSTRAINT
$end
--------------------------------------------------------------

   16   -2291.1948264638      5.65E-09 Convergence criterion met
 Total energy in the final basis set = -2291.1948264638
   12   -2291.1951535705      6.46E-09 Convergence criterion met
 Total energy in the final basis set = -2291.1951535705
   12   -2291.1953656943      5.75E-09 Convergence criterion met
 Total energy in the final basis set = -2291.1953656943
   12   -2291.1954345294      4.05E-09 Convergence criterion met
 Total energy in the final basis set = -2291.1954345294
   11   -2291.1954500033      7.74E-09 Convergence criterion met
 Total energy in the final basis set = -2291.1954500033
   10   -2291.1954645561      8.82E-09 Convergence criterion met
 Total energy in the final basis set = -2291.1954645561
    9   -2291.1954671220      8.76E-09 Convergence criterion met
 Total energy in the final basis set = -2291.1954671220
    9   -2291.1954685158      9.01E-09 Convergence criterion met
 Total energy in the final basis set = -2291.1954685158

             Standard Nuclear Orientation (Angstroms)
    I     Atom           X                Y                Z
 ----------------------------------------------------------------
    1      C       7.6771998990     0.3768735686    -0.0577421998
    2      C       6.9903924984     1.4587823172    -0.5845517389
    3      C       6.9434608011    -0.6984928295     0.4153543327
    4      C       5.6104447060     1.4215032899    -0.6170122649
    5      N       5.6184569985    -0.7494716537     0.3859500375
    6      C       4.9624650493     0.2874922652    -0.1294687499
    7      C       3.4780927925     0.2367886571    -0.1263379439
    8      N       2.8419274875     1.3625000002    -0.2990542310
    9      C       2.7185449058    -0.9704918464     0.0284720663
   10      C       1.4896467394     1.4361843552    -0.2786049447
   11      N       3.1669217433    -2.2235259924     0.1250397829
   12      C       1.2878081050    -0.8875516698     0.0407199222
   13      C       0.6344115239     0.3753068465    -0.0927534986
   14      S       1.8767745887    -3.1672931674     0.2390689121
   15      N       0.6950319439    -2.0735201214     0.1649989833
   16      C      -0.8111181782     0.5325627039    -0.0338524448
   17      S      -1.8960585092    -0.8007820830    -0.0896252141
   18      C      -1.5559906669     1.7052632568     0.0915215271
   19      C      -3.3133075977     0.1419336317     0.0142642821
   20      N      -1.0505514221     2.9681510120     0.1776827480
   21      C      -2.9690092707     1.4839043417     0.1236093370
   22      C      -4.6353212919    -0.4441663619    -0.0037655395
   23      C      -1.9224379268     3.9225359809     0.2858093450
   24      N      -3.8541914793     2.5104097095     0.2383796369
   25      C      -5.7979784279     0.0923019884     0.4774557559
   26      S      -4.9299619955    -2.0055220346    -0.6997519147
   27      C      -3.3325577586     3.6956048608     0.3163251146
   28      C      -6.9159140190    -0.7554284928     0.2961654654
   29      C      -6.5982646953    -1.9249027507    -0.3191917817
   30      H       8.7568040740     0.3642188901    -0.0153984305
   31      H       7.5189020423     2.3230777340    -0.9633615923
   32      H       7.4386106281    -1.5625176542     0.8436647091
   33      H       5.0288888243     2.2424002173    -1.0066056244
   34      H       1.0845118912     2.4285512080    -0.3940553546
   35      H      -1.5438992368     4.9368274340     0.3471604080
   36      H      -5.8345043291     1.0693696586     0.9291747609
   37      H      -4.0103403837     4.5364837992     0.4122794613
   38      H      -7.9146545828    -0.5019600960     0.6177631787
   39      H      -7.2547912022    -2.7391893348    -0.5740209689
 ----------------------------------------------------------------

    8   -2291.1954687254      8.76E-09 Convergence criterion met
 Total energy in the final basis set = -2291.1954687254
 Final energy is   -2291.19546872542
 **  OPTIMIZATION CONVERGED  **

                    Orbital Energies (a.u.)
 --------------------------------------------------------------

 Alpha MOs
 -- Occupied --
-89.152 -89.107 -89.087 -14.482 -14.479 -14.463 -14.463 -14.445
-14.434 -10.355 -10.352 -10.351 -10.346 -10.344 -10.344 -10.342
-10.341 -10.338 -10.336 -10.335 -10.330 -10.326 -10.324 -10.320
-10.309 -10.301 -10.298 -10.295 -10.293  -8.157  -8.116  -8.097
 -6.107  -6.101  -6.101  -6.064  -6.060  -6.059  -6.046  -6.042
 -6.039  -1.142  -1.102  -1.068  -1.048  -1.030  -1.013  -1.003
 -0.986  -0.925  -0.911  -0.895  -0.879  -0.869  -0.853  -0.838
 -0.811  -0.777  -0.772  -0.748  -0.738  -0.731  -0.716  -0.711
 -0.672  -0.655  -0.648  -0.629  -0.628  -0.620  -0.607  -0.603
 -0.586  -0.575  -0.567  -0.561  -0.557  -0.548  -0.543  -0.526
 -0.511  -0.508  -0.501  -0.498  -0.493  -0.492  -0.485  -0.484
 -0.473  -0.466  -0.462  -0.461  -0.451  -0.443  -0.428  -0.426
 -0.418  -0.411  -0.392  -0.377  -0.372  -0.359  -0.356  -0.351
 -0.343  -0.339  -0.334  -0.333  -0.320  -0.263

          Ground-State Mulliken Net Atomic Charges

     Atom                 Charge (a.u.)
  ----------------------------------------
      1 C                    -0.086796
      2 C                    -0.131039
      3 C                    -0.081624
      4 C                    -0.119341
      5 N                    -0.142424
      6 C                     0.075290
      7 C                     0.100680
      8 N                    -0.176154
      9 C                    -0.014215
     10 C                    -0.083797
     11 N                    -0.217121
     12 C                     0.052712
     13 C                     0.058897
     14 S                     0.406214
     15 N                    -0.307151
     16 C                    -0.072228
     17 S                     0.177442
     18 C                     0.060538
     19 C                    -0.054817
     20 N                    -0.170472
     21 C                     0.064027
     22 C                    -0.012228
     23 C                    -0.042775
     24 N                    -0.161719
     25 C                    -0.138092
     26 S                     0.103701
     27 C                    -0.046334
     28 C                    -0.157897
     29 C                    -0.182357
     30 H                     0.129421
     31 H                     0.120332
     32 H                     0.118701
     33 H                     0.140943
     34 H                     0.134807
     35 H                     0.125026
     36 H                     0.133993
     37 H                     0.128583
     38 H                     0.131179
     39 H                     0.136094
  ----------------------------------------
  Sum of atomic charges =     0.000000

                    Cartesian Multipole Moments
 -----------------------------------------------------------------
    Charge (ESU x 10^10)
                 0.0000
    Dipole Moment (Debye)
         X      -0.3243      Y       1.4720      Z      -0.2071
       Tot       1.5214
    Quadrupole Moments (Debye-Ang)
        XX    -151.9039     XY       3.0957     YY    -165.4433
        XZ      -4.5387     YZ       0.8391     ZZ    -185.9235

 Total job time:  33536.65s(wall), 132901.44s(cpu)
        *  Thank you very much for using Q-Chem.  Have a nice day.  *
