 Q-Chem 4.4, Q-Chem, Inc., Pleasanton, CA (2016)
 Q-Chem 4.4.0 for Intel X86 Linux

User input:
--------------------------------------------------------------
$comment
OPTIMIZATION
$end

$rem
JOBTYPE OPT
EXCHANGE omegaB97X-D
BASIS cc-pVTZ
$end

$molecule
0 1
C          7.67777        0.34642       -0.33993
C          6.98892        1.51270       -0.04885
C          6.94370       -0.80400       -0.58243
C          5.60978        1.47954       -0.00352
N          5.61883       -0.85095       -0.53894
C          4.96205        0.26974       -0.24819
C          3.47962        0.21444       -0.19685
N          2.83481        1.33798       -0.34991
C          2.73362       -0.98872        0.03061
C          1.48160        1.40094       -0.31172
N          3.19870       -2.21714        0.26374
C          1.30325       -0.91788        0.05914
C          0.63707        0.33357       -0.11468
S          1.92034       -3.16172        0.46998
N          0.72482       -2.09492        0.29058
C         -0.80985        0.47767       -0.05204
S         -1.88040       -0.86682       -0.09381
C         -1.56638        1.64356        0.06446
C         -3.30736        0.06120        0.00792
N         -1.07341        2.91209        0.13774
C         -2.97696        1.40790        0.10327
C         -4.62265       -0.54017        0.00653
C         -1.95462        3.85869        0.23857
N         -3.87207        2.42642        0.21102
C         -5.78850       -0.01133        0.48882
S         -4.90180       -2.11612       -0.66218
C         -3.36222        3.61771        0.27514
C         -6.89590       -0.87751        0.33181
C         -6.56731       -2.05254       -0.26686
H          8.75733        0.32596       -0.37845
H          7.52022        2.43532        0.14280
H          7.44267       -1.73482       -0.82711
H          5.02391        2.35976        0.21256
H          1.06741        2.38942       -0.42819
H         -1.58537        4.87694        0.29040
H         -5.83313        0.97106        0.92819
H         -4.04850        4.45242        0.36420
H         -7.89525       -0.63350        0.65875
H         -7.21448       -2.87971       -0.50357
$end

$opt
CONSTRAINT
tors 4 6 7 8 60.00000
tors 10 13 16 17 168.54979
tors 17 19 22 25 157.50653
ENDCONSTRAINT
$end
--------------------------------------------------------------

   16   -2291.1956868708      5.28E-09 Convergence criterion met
 Total energy in the final basis set = -2291.1956868708
   14   -2291.1942195591      6.95E-09 Convergence criterion met
 Total energy in the final basis set = -2291.1942195591
   14   -2291.1917483177      9.27E-09 Convergence criterion met
 Total energy in the final basis set = -2291.1917483177
   13   -2291.1915816741      8.15E-09 Convergence criterion met
 Total energy in the final basis set = -2291.1915816741
   13   -2291.1932821869      7.26E-09 Convergence criterion met
 Total energy in the final basis set = -2291.1932821869
   13   -2291.1936263320      5.22E-09 Convergence criterion met
 Total energy in the final basis set = -2291.1936263320
   12   -2291.1937001077      3.89E-09 Convergence criterion met
 Total energy in the final basis set = -2291.1937001077
   10   -2291.1937088953      5.98E-09 Convergence criterion met
 Total energy in the final basis set = -2291.1937088953
   10   -2291.1937134135      6.44E-09 Convergence criterion met
 Total energy in the final basis set = -2291.1937134135
    9   -2291.1937128867      5.30E-09 Convergence criterion met
 Total energy in the final basis set = -2291.1937128867
    9   -2291.1937134649      3.46E-09 Convergence criterion met
 Total energy in the final basis set = -2291.1937134649

             Standard Nuclear Orientation (Angstroms)
    I     Atom           X                Y                Z
 ----------------------------------------------------------------
    1      C       7.6560687957     0.2444076863    -0.2864834185
    2      C       7.0659546405     1.1315016229     0.5976119972
    3      C       6.8368375305    -0.5516859978    -1.0709098931
    4      C       5.6866948161     1.1865609313     0.6557762215
    5      N       5.5101571769    -0.5174587296    -1.0161335522
    6      C       4.9526066382     0.3494391955    -0.1743340272
    7      C       3.4683408484     0.3582292535    -0.1110977441
    8      N       2.8376868259     1.4663369661    -0.3669854056
    9      C       2.7284771331    -0.8243119066     0.1903020958
   10      C       1.4767196393     1.5170126423    -0.3471119165
   11      N       3.2191484571    -2.0234361492     0.5025398058
   12      C       1.3027105976    -0.7669326542     0.2150386144
   13      C       0.6354755128     0.4669933215    -0.0625766328
   14      S       1.9526329602    -2.9716525384     0.7749310080
   15      N       0.7424563731    -1.9333134050     0.5314468672
   16      C      -0.8140537004     0.6035532401    -0.0394017900
   17      S      -1.8681863493    -0.7525312267     0.0305824428
   18      C      -1.5856463881     1.7640289113    -0.0666245834
   19      C      -3.3075733703     0.1618126494    -0.0006245202
   20      N      -1.1074273263     3.0402861416    -0.0946437429
   21      C      -2.9945428618     1.5148138833    -0.0431643916
   22      C      -4.6121115923    -0.4612415567     0.0402194456
   23      C      -2.0010828588     3.9804145994    -0.1148070308
   24      N      -3.9033255591     2.5269517678    -0.0715267077
   25      C      -5.8006802482     0.0892549896     0.4361066775
   26      S      -4.8350159671    -2.1160327334    -0.4282499390
   27      C      -3.4071130159     3.7251787338    -0.1098839265
   28      C      -6.8800198183    -0.8243910413     0.3753175590
   29      C      -6.5075558493    -2.0541798301    -0.0670395771
   30      H       8.7311773737     0.1682996723    -0.3644097508
   31      H       7.6717933144     1.7651338764     1.2300076121
   32      H       7.2644859943    -1.2561037290    -1.7750157082
   33      H       5.1679215835     1.8649220207     1.3172299605
   34      H       1.0565630409     2.4846153662    -0.5707861562
   35      H      -1.6430889229     5.0038211207    -0.1317670300
   36      H      -5.8753584348     1.1111326762     0.7695806753
   37      H      -4.1041794409     4.5551904985    -0.1420440253
   38      H      -7.8907656814    -0.5726149479     0.6586336598
   39      H      -7.1247801693    -2.9244429167    -0.2121300409
 ----------------------------------------------------------------

    9   -2291.1937138947      4.30E-09 Convergence criterion met
 Total energy in the final basis set = -2291.1937138947
 Final energy is   -2291.19371389469
 **  OPTIMIZATION CONVERGED  **

                    Orbital Energies (a.u.)
 --------------------------------------------------------------

 Alpha MOs
 -- Occupied --
-89.155 -89.107 -89.087 -14.486 -14.482 -14.463 -14.462 -14.446
-14.437 -10.356 -10.351 -10.350 -10.346 -10.344 -10.344 -10.342
-10.341 -10.338 -10.337 -10.335 -10.331 -10.327 -10.325 -10.320
-10.312 -10.301 -10.301 -10.296 -10.294  -8.160  -8.116  -8.097
 -6.110  -6.104  -6.103  -6.064  -6.060  -6.059  -6.046  -6.042
 -6.039  -1.145  -1.101  -1.069  -1.049  -1.030  -1.014  -1.005
 -0.986  -0.925  -0.913  -0.898  -0.879  -0.869  -0.854  -0.838
 -0.812  -0.777  -0.772  -0.747  -0.739  -0.732  -0.721  -0.711
 -0.673  -0.656  -0.648  -0.631  -0.629  -0.621  -0.607  -0.604
 -0.587  -0.583  -0.568  -0.563  -0.558  -0.548  -0.543  -0.527
 -0.513  -0.504  -0.501  -0.498  -0.495  -0.492  -0.486  -0.484
 -0.475  -0.466  -0.462  -0.461  -0.451  -0.443  -0.429  -0.427
 -0.421  -0.411  -0.394  -0.377  -0.371  -0.359  -0.359  -0.348
 -0.343  -0.340  -0.338  -0.334  -0.326  -0.265

          Ground-State Mulliken Net Atomic Charges

     Atom                 Charge (a.u.)
  ----------------------------------------
      1 C                    -0.091646
      2 C                    -0.120136
      3 C                    -0.080912
      4 C                    -0.137644
      5 N                    -0.167097
      6 C                     0.140343
      7 C                     0.105287
      8 N                    -0.173060
      9 C                    -0.016434
     10 C                    -0.087921
     11 N                    -0.238415
     12 C                     0.047869
     13 C                     0.056607
     14 S                     0.407865
     15 N                    -0.305072
     16 C                    -0.073600
     17 S                     0.174680
     18 C                     0.061742
     19 C                    -0.056951
     20 N                    -0.170415
     21 C                     0.063249
     22 C                    -0.009403
     23 C                    -0.042319
     24 N                    -0.161229
     25 C                    -0.139301
     26 S                     0.102744
     27 C                    -0.045734
     28 C                    -0.159899
     29 C                    -0.182676
     30 H                     0.131040
     31 H                     0.114586
     32 H                     0.121955
     33 H                     0.132776
     34 H                     0.139710
     35 H                     0.125336
     36 H                     0.135785
     37 H                     0.129107
     38 H                     0.131851
     39 H                     0.137334
  ----------------------------------------
  Sum of atomic charges =     0.000000

                    Cartesian Multipole Moments
 -----------------------------------------------------------------
    Charge (ESU x 10^10)
                 0.0000
    Dipole Moment (Debye)
         X      -0.2324      Y       1.0036      Z       1.5797
       Tot       1.8860
    Quadrupole Moments (Debye-Ang)
        XX    -150.1894     XY       0.3586     YY    -166.6556
        XZ       4.2624     YZ       2.7347     ZZ    -185.6978

 Total job time:  112045.11s(wall), 385627.35s(cpu)
        *  Thank you very much for using Q-Chem.  Have a nice day.  *
