 Q-Chem 4.4, Q-Chem, Inc., Pleasanton, CA (2016)
 Q-Chem 4.4.0 for Intel X86 Linux

User input:
--------------------------------------------------------------
$comment
OPTIMIZATION
$end

$rem
JOBTYPE OPT
EXCHANGE omegaB97X-D
BASIS cc-pVTZ
$end

$molecule
0 1
C          0.00000        0.00000        0.00000
C         -0.65442       -1.22189        0.00029
C          1.38558        0.00000        0.00000
C          0.09563       -2.38039        0.00926
N          2.11898       -1.10529        0.01182
C          1.48579       -2.27657        0.02342
C          2.30845       -3.51149        0.04024
N          3.31333       -3.54751        0.87194
C          2.07285       -4.63929       -0.81314
C          4.13327       -4.62249        0.96214
N          1.14387       -4.77830       -1.75981
C          2.93651       -5.77773       -0.70538
C          4.02452       -5.77562        0.22067
S          1.36190       -6.22817       -2.40916
N          2.62539       -6.75319       -1.55681
C          4.96233       -6.88179        0.34487
S          4.67665       -8.42500       -0.35697
C          6.19724       -6.90954        0.99217
C          6.12749       -9.12554        0.20178
N          6.77353       -5.87043        1.65876
C          6.85755       -8.17640        0.90782
C          6.47901      -10.50160       -0.07379
C          7.93008       -6.11236        2.19616
N          8.07068       -8.39280        1.48271
C          7.72485      -11.06573       -0.07394
S          5.27450      -11.68797       -0.46048
C          8.58389       -7.37892        2.11019
C          7.70847      -12.44351       -0.39601
C          6.45566      -12.91512       -0.63703
H         -0.54818        0.93041       -0.00000
H         -1.73449       -1.27032       -0.00344
H          1.93674        0.93371       -0.01430
H         -0.36223       -3.35775        0.00507
H          4.94088       -4.52330        1.66907
H          8.40328       -5.30166        2.73900
H          8.61011      -10.50039        0.16221
H          9.55151       -7.51708        2.57785
H          8.59661      -13.05393       -0.45119
H          6.16439      -13.91810       -0.90006
$end

$opt
CONSTRAINT
tors 4 6 7 8 -135.00000
tors 10 13 16 17 168.54979
tors 17 19 22 25 157.50653
ENDCONSTRAINT
$end
--------------------------------------------------------------

   16   -2291.1919487924      5.41E-09 Convergence criterion met
 Total energy in the final basis set = -2291.1919487924
   12   -2291.1926900395      8.83E-09 Convergence criterion met
 Total energy in the final basis set = -2291.1926900395
   11   -2291.1928037461      9.66E-09 Convergence criterion met
 Total energy in the final basis set = -2291.1928037461
   11   -2291.1928279577      7.23E-09 Convergence criterion met
 Total energy in the final basis set = -2291.1928279577
   11   -2291.1928352933      4.20E-09 Convergence criterion met
 Total energy in the final basis set = -2291.1928352933
    9   -2291.1928377180      9.42E-09 Convergence criterion met
 Total energy in the final basis set = -2291.1928377180
    9   -2291.1928387395      3.71E-09 Convergence criterion met
 Total energy in the final basis set = -2291.1928387395

             Standard Nuclear Orientation (Angstroms)
    I     Atom           X                Y                Z
 ----------------------------------------------------------------
    1      C       7.6689541272    -0.4286021964     0.2118898154
    2      C       7.0425151458     0.6230768381     0.8567417593
    3      C       6.8804107953    -1.3435088426    -0.4690648312
    4      C       5.6633261260     0.7125926234     0.8013689720
    5      N       5.5573350699    -1.2798826779    -0.5175737167
    6      C       4.9598760840    -0.2673164977     0.1084151688
    7      C       3.4734546310    -0.2651109265     0.0752022330
    8      N       2.8486726074    -1.3893113784     0.2675201395
    9      C       2.7154532945     0.9263068855    -0.1507982219
   10      C       1.4921144331    -1.4538314804     0.2487798815
   11      N       3.1863246603     2.1542254084    -0.3731214276
   12      C       1.2886775472     0.8543082628    -0.1759255396
   13      C       0.6352659231    -0.3994074448     0.0279930405
   14      S       1.9062501382     3.1033877509    -0.5829246921
   15      N       0.7137584595     2.0330127492    -0.4105758947
   16      C      -0.8121010214    -0.5528312859     0.0024708876
   17      S      -1.8876207681     0.7887210554     0.0142838056
   18      C      -1.5659443980    -1.7251196245    -0.0315566990
   19      C      -3.3128724522    -0.1483927667     0.0024064676
   20      N      -1.0695458820    -2.9943422774    -0.0610958416
   21      C      -2.9780997965    -1.4964194157    -0.0342345778
   22      C      -4.6300715691     0.4483914596     0.0135999025
   23      C      -1.9489457572    -3.9474052322    -0.0828203123
   24      N      -3.8720412477    -2.5219716990    -0.0557651761
   25      C      -5.8082574570    -0.1062544763    -0.4057459964
   26      S      -4.8946136121     2.0550714107     0.6107194016
   27      C      -3.3587252491    -3.7131315874    -0.0769265405
   28      C      -6.9138839316     0.7643055106    -0.2581784829
   29      C      -6.5708370689     1.9683844192     0.2705678114
   30      H       8.7444671418    -0.5321476296     0.2245132035
   31      H       7.6185660577     1.3547162064     1.4061595864
   32      H       7.3353427385    -2.1785801393    -0.9900450589
   33      H       5.1417703384     1.5229017521     1.2879642394
   34      H       1.0833276523    -2.4388475683     0.4081303334
   35      H      -1.5768186426    -4.9656432671    -0.1031974582
   36      H      -5.8603969194    -1.1062614456    -0.8028207870
   37      H      -4.0434381270    -4.5538761125    -0.0908769362
   38      H      -7.9212276145     0.5021790345    -0.5440569261
   39      H      -7.2129677734     2.8052562339     0.4860470645
 ----------------------------------------------------------------

    8   -2291.1928391056      9.98E-09 Convergence criterion met
 Total energy in the final basis set = -2291.1928391056
 Final energy is   -2291.19283910556
 **  OPTIMIZATION CONVERGED  **

                    Orbital Energies (a.u.)
 --------------------------------------------------------------

 Alpha MOs
 -- Occupied --
-89.159 -89.107 -89.087 -14.490 -14.486 -14.463 -14.462 -14.443
-14.434 -10.359 -10.355 -10.350 -10.345 -10.344 -10.344 -10.343
-10.341 -10.338 -10.337 -10.335 -10.331 -10.326 -10.324 -10.320
-10.311 -10.302 -10.301 -10.296 -10.294  -8.164  -8.116  -8.097
 -6.114  -6.108  -6.107  -6.065  -6.061  -6.059  -6.046  -6.042
 -6.040  -1.149  -1.101  -1.069  -1.046  -1.029  -1.017  -1.006
 -0.987  -0.926  -0.911  -0.900  -0.879  -0.869  -0.854  -0.839
 -0.812  -0.778  -0.772  -0.748  -0.741  -0.732  -0.720  -0.712
 -0.674  -0.656  -0.649  -0.631  -0.629  -0.621  -0.607  -0.605
 -0.588  -0.579  -0.569  -0.567  -0.558  -0.548  -0.542  -0.528
 -0.512  -0.505  -0.502  -0.501  -0.493  -0.489  -0.486  -0.484
 -0.477  -0.467  -0.464  -0.462  -0.452  -0.443  -0.430  -0.429
 -0.422  -0.411  -0.398  -0.377  -0.372  -0.361  -0.350  -0.348
 -0.344  -0.342  -0.338  -0.334  -0.324  -0.265

          Ground-State Mulliken Net Atomic Charges

     Atom                 Charge (a.u.)
  ----------------------------------------
      1 C                    -0.089421
      2 C                    -0.133417
      3 C                    -0.079967
      4 C                    -0.115172
      5 N                    -0.137767
      6 C                     0.094741
      7 C                     0.062158
      8 N                    -0.132115
      9 C                     0.007288
     10 C                    -0.076590
     11 N                    -0.271055
     12 C                     0.049476
     13 C                     0.056088
     14 S                     0.407495
     15 N                    -0.302461
     16 C                    -0.073872
     17 S                     0.172226
     18 C                     0.061689
     19 C                    -0.054941
     20 N                    -0.168381
     21 C                     0.063467
     22 C                    -0.011227
     23 C                    -0.041259
     24 N                    -0.161447
     25 C                    -0.137091
     26 S                     0.102077
     27 C                    -0.045929
     28 C                    -0.158574
     29 C                    -0.182261
     30 H                     0.131088
     31 H                     0.118346
     32 H                     0.120739
     33 H                     0.128202
     34 H                     0.140755
     35 H                     0.125718
     36 H                     0.133729
     37 H                     0.129582
     38 H                     0.131652
     39 H                     0.136430
  ----------------------------------------
  Sum of atomic charges =     0.000000

                    Cartesian Multipole Moments
 -----------------------------------------------------------------
    Charge (ESU x 10^10)
                 0.0000
    Dipole Moment (Debye)
         X      -0.4405      Y       1.2092      Z       0.6174
       Tot       1.4274
    Quadrupole Moments (Debye-Ang)
        XX    -151.2566     XY      11.1744     YY    -167.4766
        XZ       6.7369     YZ       3.0993     ZZ    -185.6180

 Total job time:  29043.59s(wall), 115145.07s(cpu)
        *  Thank you very much for using Q-Chem.  Have a nice day.  *
