 Q-Chem 4.4, Q-Chem, Inc., Pleasanton, CA (2016)
 Q-Chem 4.4.0 for Intel X86 Linux

User input:
--------------------------------------------------------------
$comment
OPTIMIZATION
$end

$rem
JOBTYPE OPT
EXCHANGE omegaB97X-D
BASIS cc-pVTZ
$end

$molecule
0 1
C          0.00000        0.00000        0.00000
C         -0.65442       -1.22189        0.00029
C          1.38558        0.00000        0.00000
C          0.09563       -2.38039        0.00926
N          2.11898       -1.10529        0.01182
C          1.48579       -2.27657        0.02342
C          2.30845       -3.51149        0.04024
N          3.33084       -3.55820       -0.76928
C          2.02801       -4.64622        0.87058
C          4.14221       -4.64109       -0.84038
N          1.01131       -4.81925        1.71608
C          2.89610       -5.78415        0.79915
C          4.00601       -5.79233       -0.10051
S          1.18631       -6.28026        2.35337
N          2.52555       -6.77661        1.60597
C          4.89614       -6.93400       -0.25138
S          4.91433       -8.25017        0.85454
C          5.83090       -7.18420       -1.25558
C          6.14396       -9.11662        0.05132
N          6.09932       -6.37373       -2.31731
C          6.53321       -8.41963       -1.08668
C          6.64017      -10.38593        0.53680
C          7.01423       -6.79510       -3.13604
N          7.48544       -8.82965       -1.96654
C          7.27679      -11.36557       -0.17409
S          6.47963      -10.84891        2.20044
C          7.71304       -8.02814       -2.96195
C          7.62171      -12.48751        0.61619
C          7.24683      -12.35328        1.91676
H         -0.54818        0.93041       -0.00000
H         -1.73449       -1.27032       -0.00344
H          1.93674        0.93371       -0.01430
H         -0.36223       -3.35775        0.00507
H          4.93852       -4.56890       -1.56323
H          7.24999       -6.16151       -3.98387
H          7.49245      -11.26381       -1.22395
H          8.46471       -8.32634       -3.68316
H          8.12309      -13.36013        0.22682
H          7.38813      -13.05355        2.72278
$end

$opt
CONSTRAINT
tors 4 6 7 8 135.00000
tors 10 13 16 17 168.54979
tors 17 19 22 25 157.50653
ENDCONSTRAINT
$end
--------------------------------------------------------------

   16   -2291.1918852170      6.85E-09 Convergence criterion met
 Total energy in the final basis set = -2291.1918852170
   12   -2291.1926294479      9.42E-09 Convergence criterion met
 Total energy in the final basis set = -2291.1926294479
   12   -2291.1927868444      7.57E-09 Convergence criterion met
 Total energy in the final basis set = -2291.1927868444
   12   -2291.1928354317      4.52E-09 Convergence criterion met
 Total energy in the final basis set = -2291.1928354317
   11   -2291.1928631794      7.50E-09 Convergence criterion met
 Total energy in the final basis set = -2291.1928631794
   10   -2291.1928691837      5.23E-09 Convergence criterion met
 Total energy in the final basis set = -2291.1928691837
    9   -2291.1928708751      6.52E-09 Convergence criterion met
 Total energy in the final basis set = -2291.1928708751

             Standard Nuclear Orientation (Angstroms)
    I     Atom           X                Y                Z
 ----------------------------------------------------------------
    1      C      -7.6736481770     0.3998503223     0.1438052945
    2      C      -7.0494242241    -0.4259103456    -0.7734258068
    3      C      -6.8791427420     1.1403280151     1.0065132308
    4      C      -5.6688986923    -0.4847269722    -0.7830356888
    5      N      -5.5540864247     1.0932817041     1.0090834761
    6      C      -4.9591198899     0.2870637633     0.1314010624
    7      C      -3.4725967283     0.2904349084     0.1282864930
    8      N      -2.8490135576     1.4272692175     0.2251200102
    9      C      -2.7145425157    -0.9130975281    -0.0234284850
   10      C      -1.4919306366     1.4897981990     0.1962620870
   11      N      -3.1857204409    -2.1576986441    -0.1148905455
   12      C      -1.2884532044    -0.8434174071    -0.0645068228
   13      C      -0.6359602722     0.4231127858     0.0379285857
   14      S      -1.9066337507    -3.1213548465    -0.2500217296
   15      N      -0.7146362926    -2.0389168730    -0.1935200585
   16      C       0.8117968313     0.5700568341    -0.0118006724
   17      S       1.8819957271    -0.7736092725     0.0790695365
   18      C       1.5712116247     1.7346387628    -0.1157885586
   19      C       3.3108445493     0.1533477845    -0.0051069942
   20      N       1.0800808925     3.0033866611    -0.1992046865
   21      C       2.9824682208     1.4990342888    -0.1160951341
   22      C       4.6244669387    -0.4513863928     0.0137343570
   23      C       1.9635053742     3.9502404691    -0.2721187246
   24      N       3.8803699573     2.5177221648    -0.2010835746
   25      C       5.7975615113     0.0744193840    -0.4540017792
   26      S       4.8878635851    -2.0357418830     0.6689121033
   27      C       3.3720086450     3.7090389348    -0.2734206520
   28      C       6.8980270774    -0.8006544978    -0.2971360513
   29      C       6.5568145550    -1.9794170120     0.2867559171
   30      H      -8.7507474992     0.4715793113     0.1902551203
   31      H      -7.6308528638    -1.0220394894    -1.4628299518
   32      H      -7.3334891412     1.8010334598     1.7362064474
   33      H      -5.1410105904    -1.1243198914    -1.4735576945
   34      H      -1.0830610765     2.4844908365     0.2735748541
   35      H       1.5957842042     4.9688628575    -0.3264468282
   36      H       5.8503629444     1.0598365203    -0.8857876992
   37      H       4.0602562177     4.5442074728    -0.3406347986
   38      H       7.9013050917    -0.5607609021    -0.6149344220
   39      H       7.1961305510    -2.8136993861     0.5200211429
 ----------------------------------------------------------------

    9   -2291.1928715192      6.05E-09 Convergence criterion met
 Total energy in the final basis set = -2291.1928715192
 Final energy is   -2291.19287151920
 **  OPTIMIZATION CONVERGED  **

                    Orbital Energies (a.u.)
 --------------------------------------------------------------

 Alpha MOs
 -- Occupied --
-89.160 -89.107 -89.087 -14.491 -14.486 -14.463 -14.462 -14.443
-14.434 -10.359 -10.355 -10.351 -10.346 -10.344 -10.344 -10.343
-10.342 -10.339 -10.337 -10.335 -10.332 -10.326 -10.324 -10.320
-10.310 -10.301 -10.301 -10.296 -10.294  -8.164  -8.116  -8.097
 -6.114  -6.108  -6.108  -6.065  -6.061  -6.059  -6.046  -6.042
 -6.040  -1.149  -1.102  -1.069  -1.046  -1.030  -1.017  -1.006
 -0.987  -0.926  -0.912  -0.901  -0.879  -0.870  -0.854  -0.839
 -0.812  -0.778  -0.772  -0.748  -0.741  -0.732  -0.720  -0.712
 -0.674  -0.656  -0.649  -0.631  -0.629  -0.621  -0.607  -0.605
 -0.588  -0.580  -0.568  -0.566  -0.559  -0.548  -0.542  -0.528
 -0.512  -0.505  -0.503  -0.501  -0.493  -0.490  -0.486  -0.484
 -0.477  -0.467  -0.465  -0.463  -0.453  -0.443  -0.430  -0.429
 -0.422  -0.411  -0.398  -0.378  -0.372  -0.361  -0.350  -0.348
 -0.344  -0.342  -0.338  -0.334  -0.324  -0.264

          Ground-State Mulliken Net Atomic Charges

     Atom                 Charge (a.u.)
  ----------------------------------------
      1 C                    -0.090904
      2 C                    -0.130453
      3 C                    -0.080128
      4 C                    -0.114012
      5 N                    -0.138847
      6 C                     0.093636
      7 C                     0.067811
      8 N                    -0.133253
      9 C                     0.003801
     10 C                    -0.072778
     11 N                    -0.271016
     12 C                     0.050223
     13 C                     0.054928
     14 S                     0.407514
     15 N                    -0.302571
     16 C                    -0.075684
     17 S                     0.172613
     18 C                     0.062320
     19 C                    -0.055262
     20 N                    -0.168679
     21 C                     0.062942
     22 C                    -0.010396
     23 C                    -0.041856
     24 N                    -0.161924
     25 C                    -0.136889
     26 S                     0.102238
     27 C                    -0.045193
     28 C                    -0.159094
     29 C                    -0.182185
     30 H                     0.130641
     31 H                     0.116201
     32 H                     0.122565
     33 H                     0.127178
     34 H                     0.138733
     35 H                     0.126044
     36 H                     0.134526
     37 H                     0.128929
     38 H                     0.131645
     39 H                     0.136636
  ----------------------------------------
  Sum of atomic charges =     0.000000

                    Cartesian Multipole Moments
 -----------------------------------------------------------------
    Charge (ESU x 10^10)
                 0.0000
    Dipole Moment (Debye)
         X       0.4407      Y      -1.0188      Z      -1.6341
       Tot       1.9755
    Quadrupole Moments (Debye-Ang)
        XX    -151.2608     XY       9.9736     YY    -168.4507
        XZ       4.6976     YZ      -1.1315     ZZ    -185.1612

 Total job time:  30226.21s(wall), 119744.22s(cpu)
        *  Thank you very much for using Q-Chem.  Have a nice day.  *
