 Q-Chem 4.4, Q-Chem, Inc., Pleasanton, CA (2016)
 Q-Chem 4.4.0 for Intel X86 Linux

User input:
--------------------------------------------------------------
$comment
OPTIMIZATION
$end

$rem
JOBTYPE OPT
EXCHANGE omegaB97X-D
BASIS cc-pVTZ
$end

$molecule
0 1
C          0.00000        0.00000        0.00000
C         -0.65442       -1.22189        0.00029
C          1.38558        0.00000        0.00000
C          0.09563       -2.38039        0.00926
N          2.11898       -1.10529        0.01182
C          1.48579       -2.27657        0.02342
C          2.30845       -3.51149        0.04024
N          1.94739       -4.45756        0.86329
C          3.47395       -3.70537       -0.77199
C          2.63301       -5.62186        0.96500
N          4.03601       -2.84986       -1.62679
C          4.18849       -4.94320       -0.66820
C          3.75704       -5.95347        0.24533
S          5.32464       -3.58596       -2.23415
N          5.25715       -4.99870       -1.46074
C          4.46554       -7.21159        0.42889
S          5.68684       -7.75606       -0.65168
C          4.32357       -8.15148        1.44930
C          6.00238       -9.20914        0.18314
N          3.45897       -8.06701        2.49884
C          5.19498       -9.27842        1.31258
C          6.98845      -10.16494       -0.27203
C          3.48493       -9.05801        3.33681
N          5.19530      -10.29833        2.21191
C          7.63810      -11.11617        0.46516
S          7.49841      -10.22649       -1.92853
C          4.35554      -10.18090        3.19481
C          8.55032      -11.88138       -0.29942
C          8.58728      -11.50834       -1.60690
H         -0.54818        0.93041       -0.00000
H         -1.73449       -1.27032       -0.00344
H          1.93674        0.93371       -0.01430
H         -0.36223       -3.35775        0.00507
H          2.25047       -6.31517        1.69631
H          2.79881       -9.01556        4.17542
H          7.44791      -11.25617        1.51554
H          4.33198      -10.97568        3.93091
H          9.15738      -12.67269        0.11262
H          9.18909      -11.92357       -2.39772
$end

$opt
CONSTRAINT
tors 4 6 7 8 -45.00000
tors 10 13 16 17 168.54979
tors 17 19 22 25 157.50653
ENDCONSTRAINT
$end
--------------------------------------------------------------

   16   -2291.1944489443      6.77E-09 Convergence criterion met
 Total energy in the final basis set = -2291.1944489443
   13   -2291.1950549360      4.16E-09 Convergence criterion met
 Total energy in the final basis set = -2291.1950549360
   12   -2291.1953100656      8.93E-09 Convergence criterion met
 Total energy in the final basis set = -2291.1953100656
   12   -2291.1953838507      6.27E-09 Convergence criterion met
 Total energy in the final basis set = -2291.1953838507
   11   -2291.1953954959      7.38E-09 Convergence criterion met
 Total energy in the final basis set = -2291.1953954959
   11   -2291.1954078745      3.63E-09 Convergence criterion met
 Total energy in the final basis set = -2291.1954078745
    9   -2291.1954090512      6.04E-09 Convergence criterion met
 Total energy in the final basis set = -2291.1954090512

             Standard Nuclear Orientation (Angstroms)
    I     Atom           X                Y                Z
 ----------------------------------------------------------------
    1      C      -7.6616262504    -0.3249487898    -0.0221441927
    2      C      -7.0300583228    -1.1042365988    -0.9771213590
    3      C      -6.8769861181     0.4373178259     0.8287223256
    4      C      -5.6502968052    -1.0961848366    -1.0345071588
    5      N      -5.5507971840     0.4583684363     0.7827448321
    6      C      -4.9520566616    -0.3061371126    -0.1279231058
    7      C      -3.4698046723    -0.2800404428    -0.1617723239
    8      N      -2.8428715119    -1.4158164550    -0.2734194837
    9      C      -2.7199855942     0.9286135718    -0.0251470540
   10      C      -1.4852694501    -1.4762645507    -0.2469169210
   11      N      -3.1918985680     2.1739477433     0.0305280565
   12      C      -1.2933208693     0.8590518600     0.0213007325
   13      C      -0.6370075682    -0.4073487404    -0.0734354163
   14      S      -1.9146463988     3.1371851908     0.1548733593
   15      N      -0.7184606629     2.0555018477     0.1325105221
   16      C       0.8101994569    -0.5556788322    -0.0081791313
   17      S       1.8844867267     0.7855512339    -0.0798570572
   18      C       1.5652398947    -1.7226600351     0.1050746056
   19      C       3.3098572044    -0.1455805031     0.0189635553
   20      N       1.0707742432    -2.9906055001     0.1822472128
   21      C       2.9768808665    -1.4905399895     0.1247705977
   22      C       4.6265043827     0.4528097211     0.0088542056
   23      C       1.9509920675    -3.9393557679     0.2688516465
   24      N       3.8711740880    -2.5112325538     0.2211042446
   25      C       5.7929715173    -0.0774300292     0.4880577551
   26      S       4.9054491424     2.0294220582    -0.6582898901
   27      C       3.3596264047    -3.7014578980     0.2886832233
   28      C       6.9009189582     0.7877583740     0.3292095298
   29      C       6.5719837787     1.9637715523    -0.2672307245
   30      H      -8.7389563558    -0.3011161945     0.0563362154
   31      H      -7.6086524786    -1.7136569010    -1.6573467163
   32      H      -7.3375716014     1.0602629377     1.5868383597
   33      H      -5.1014911767    -1.7022065685    -1.7397013980
   34      H      -1.0733228929    -2.4687005921    -0.3324164534
   35      H       1.5803546872    -4.9570923737     0.3205806899
   36      H       5.8375237997    -1.0600769532     0.9268627794
   37      H       4.0451007590    -4.5379983146     0.3662738470
   38      H       7.9006674149     0.5422468327     0.6538187488
   39      H       7.2192123772     2.7907838094    -0.5043168703
 ----------------------------------------------------------------

    9   -2291.1954093773      3.26E-09 Convergence criterion met
 Total energy in the final basis set = -2291.1954093773
 Final energy is   -2291.19540937729
 **  OPTIMIZATION CONVERGED  **

                    Orbital Energies (a.u.)
 --------------------------------------------------------------

 Alpha MOs
 -- Occupied --
-89.154 -89.107 -89.087 -14.485 -14.481 -14.463 -14.462 -14.446
-14.436 -10.356 -10.351 -10.350 -10.346 -10.344 -10.344 -10.342
-10.341 -10.338 -10.336 -10.335 -10.331 -10.326 -10.325 -10.320
-10.311 -10.301 -10.300 -10.295 -10.293  -8.159  -8.116  -8.097
 -6.109  -6.103  -6.102  -6.064  -6.060  -6.059  -6.046  -6.042
 -6.039  -1.144  -1.101  -1.069  -1.049  -1.030  -1.014  -1.004
 -0.986  -0.925  -0.913  -0.897  -0.879  -0.869  -0.854  -0.838
 -0.811  -0.777  -0.772  -0.747  -0.739  -0.732  -0.719  -0.711
 -0.673  -0.655  -0.648  -0.630  -0.629  -0.621  -0.607  -0.603
 -0.586  -0.580  -0.566  -0.563  -0.558  -0.548  -0.543  -0.527
 -0.512  -0.505  -0.501  -0.498  -0.494  -0.492  -0.485  -0.484
 -0.474  -0.466  -0.462  -0.461  -0.451  -0.443  -0.429  -0.427
 -0.420  -0.411  -0.394  -0.376  -0.372  -0.359  -0.358  -0.349
 -0.343  -0.339  -0.338  -0.334  -0.324  -0.264

          Ground-State Mulliken Net Atomic Charges

     Atom                 Charge (a.u.)
  ----------------------------------------
      1 C                    -0.090879
      2 C                    -0.122713
      3 C                    -0.080446
      4 C                    -0.131090
      5 N                    -0.158691
      6 C                     0.123973
      7 C                     0.103948
      8 N                    -0.178358
      9 C                    -0.020099
     10 C                    -0.081085
     11 N                    -0.229817
     12 C                     0.052674
     13 C                     0.055535
     14 S                     0.407921
     15 N                    -0.306363
     16 C                    -0.075394
     17 S                     0.175819
     18 C                     0.061214
     19 C                    -0.055518
     20 N                    -0.169370
     21 C                     0.063251
     22 C                    -0.011016
     23 C                    -0.042547
     24 N                    -0.161587
     25 C                    -0.136980
     26 S                     0.102811
     27 C                    -0.045773
     28 C                    -0.158587
     29 C                    -0.182315
     30 H                     0.130471
     31 H                     0.116364
     32 H                     0.121371
     33 H                     0.131253
     34 H                     0.136677
     35 H                     0.125098
     36 H                     0.133947
     37 H                     0.128697
     38 H                     0.131305
     39 H                     0.136298
  ----------------------------------------
  Sum of atomic charges =     0.000000

                    Cartesian Multipole Moments
 -----------------------------------------------------------------
    Charge (ESU x 10^10)
                 0.0000
    Dipole Moment (Debye)
         X       0.2485      Y      -0.9974      Z      -0.8070
       Tot       1.3068
    Quadrupole Moments (Debye-Ang)
        XX    -150.8285     XY       0.5660     YY    -167.3056
        XZ       7.5062     YZ      -0.0436     ZZ    -184.3312

 Total job time:  28826.54s(wall), 114119.50s(cpu)
        *  Thank you very much for using Q-Chem.  Have a nice day.  *
