 Q-Chem 4.4, Q-Chem, Inc., Pleasanton, CA (2016)
 Q-Chem 4.4.0 for Intel X86 Linux

User input:
--------------------------------------------------------------
$comment
OPTIMIZATION
$end

$rem
JOBTYPE OPT
EXCHANGE omegaB97X-D
BASIS cc-pVTZ
$end

$molecule
0 1
C          0.00000        0.00000        0.00000
C         -0.65442       -1.22189        0.00029
C          1.38558        0.00000        0.00000
C          0.09563       -2.38039        0.00926
N          2.11898       -1.10529        0.01182
C          1.48579       -2.27657        0.02342
C          2.30845       -3.51149        0.04024
N          3.13278       -3.69267       -0.95498
C          2.22816       -4.51023        1.06581
C          3.92351       -4.78953       -1.04252
N          1.41996       -4.54144        2.12616
C          3.07491       -5.66266        0.97366
C          3.96476       -5.82025       -0.13299
S          1.74691       -5.89917        2.91418
N          2.89975       -6.52230        1.97544
C          4.81595       -6.98816       -0.30608
S          5.08897       -8.13255        0.94752
C          5.51534       -7.39694       -1.44122
C          6.12749       -9.12786        0.03168
N          5.53815       -6.75196       -2.64109
C          6.25328       -8.60835       -1.25153
C          6.73288      -10.32363        0.57638
C          6.26034       -7.30320       -3.56819
N          6.99859       -9.15780       -2.24735
C          7.21373      -11.40666       -0.10640
S          6.94074      -10.54059        2.28446
C          6.99595       -8.51143       -3.37308
C          7.73525      -12.41013        0.74408
C          7.64791      -12.08413        2.06170
H         -0.54818        0.93041       -0.00000
H         -1.73449       -1.27032       -0.00344
H          1.93674        0.93371       -0.01430
H         -0.36223       -3.35775        0.00507
H          4.54425       -4.83644       -1.92246
H          6.29964       -6.80202       -4.52897
H          7.19665      -11.46028       -1.18153
H          7.57820       -8.92379       -4.18857
H          8.15201      -13.33871        0.38558
H          7.96860      -12.66431        2.91056
$end

$opt
CONSTRAINT
tors 4 6 7 8 120.00000
tors 10 13 16 17 168.54979
tors 17 19 22 25 157.50653
ENDCONSTRAINT
$end
--------------------------------------------------------------

   16   -2291.1907033092      7.05E-09 Convergence criterion met
 Total energy in the final basis set = -2291.1907033092
   12   -2291.1916444771      9.37E-09 Convergence criterion met
 Total energy in the final basis set = -2291.1916444771
   12   -2291.1917986930      4.71E-09 Convergence criterion met
 Total energy in the final basis set = -2291.1917986930
   12   -2291.1918310779      4.42E-09 Convergence criterion met
 Total energy in the final basis set = -2291.1918310779
   10   -2291.1918537455      8.34E-09 Convergence criterion met
 Total energy in the final basis set = -2291.1918537455
   10   -2291.1918574162      6.06E-09 Convergence criterion met
 Total energy in the final basis set = -2291.1918574162
    9   -2291.1918585065      5.58E-09 Convergence criterion met
 Total energy in the final basis set = -2291.1918585065

             Standard Nuclear Orientation (Angstroms)
    I     Atom           X                Y                Z
 ----------------------------------------------------------------
    1      C      -7.6664228967     0.4009284683     0.1850178989
    2      C      -7.0477078373    -0.1465473958    -0.9256248822
    3      C      -6.8692999203     0.8523585159     1.2252670666
    4      C      -5.6666095272    -0.2160145516    -0.9504894662
    5      N      -5.5432339682     0.8023399257     1.2112122038
    6      C      -4.9580550912     0.2726049184     0.1406242654
    7      C      -3.4698479284     0.2844989642     0.1257511624
    8      N      -2.8505001351     1.4204436464     0.2435713203
    9      C      -2.7170916423    -0.9134124821    -0.0625798596
   10      C      -1.4914589194     1.4807020424     0.2100956793
   11      N      -3.1986394283    -2.1493185720    -0.2007747968
   12      C      -1.2917512457    -0.8487737047    -0.0973402662
   13      C      -0.6380020424     0.4146890679     0.0376581181
   14      S      -1.9237186784    -3.1149550301    -0.3626024632
   15      N      -0.7238708837    -2.0426785579    -0.2631270985
   16      C       0.8100807483     0.5635748867    -0.0086139017
   17      S       1.8813692631    -0.7796533692     0.0645750170
   18      C       1.5674982384     1.7297295429    -0.1067468505
   19      C       3.3093075716     0.1500384719    -0.0083278076
   20      N       1.0746810457     2.9982439266    -0.1858122008
   21      C       2.9789970372     1.4959159749    -0.1102239552
   22      C       4.6248088033    -0.4504803207     0.0159817298
   23      C       1.9567581410     3.9463358203    -0.2577840461
   24      N       3.8754966141     2.5162213626    -0.1911029017
   25      C       5.7984504022     0.0811246182    -0.4434914247
   26      S       4.8929100485    -2.0302850166     0.6800709944
   27      C       3.3656161398     3.7070243257    -0.2601180246
   28      C       6.9034762368    -0.7855252227    -0.2727890855
   29      C       6.5649291758    -1.9641128049     0.3131355170
   30      H      -8.7428831006     0.4702370938     0.2472371445
   31      H      -7.6286135970    -0.5102070130    -1.7622086860
   32      H      -7.3162047315     1.2782495090     2.1160998615
   33      H      -5.1471208724    -0.6418851993    -1.7968248810
   34      H      -1.0806190177     2.4732299493     0.3015902907
   35      H       1.5877313092     4.9645730296    -0.3107060065
   36      H       5.8491821596     1.0657593438    -0.8772325001
   37      H       4.0526904196     4.5433226341    -0.3253929509
   38      H       7.9079044882    -0.5396012874    -0.5822716272
   39      H       7.2078834008    -2.7931235758     0.5549635029
 ----------------------------------------------------------------

    9   -2291.1918588410      4.24E-09 Convergence criterion met
 Total energy in the final basis set = -2291.1918588410
 Final energy is   -2291.19185884098
 **  OPTIMIZATION CONVERGED  **

                    Orbital Energies (a.u.)
 --------------------------------------------------------------

 Alpha MOs
 -- Occupied --
-89.159 -89.107 -89.087 -14.490 -14.486 -14.463 -14.462 -14.444
-14.435 -10.359 -10.353 -10.350 -10.346 -10.344 -10.344 -10.343
-10.342 -10.339 -10.337 -10.335 -10.332 -10.327 -10.324 -10.320
-10.311 -10.303 -10.301 -10.296 -10.293  -8.164  -8.116  -8.097
 -6.113  -6.108  -6.107  -6.065  -6.061  -6.059  -6.046  -6.042
 -6.040  -1.148  -1.102  -1.069  -1.047  -1.030  -1.016  -1.006
 -0.987  -0.926  -0.912  -0.901  -0.879  -0.870  -0.855  -0.839
 -0.812  -0.778  -0.772  -0.747  -0.741  -0.733  -0.722  -0.712
 -0.674  -0.656  -0.649  -0.632  -0.629  -0.621  -0.607  -0.605
 -0.588  -0.582  -0.568  -0.566  -0.560  -0.548  -0.543  -0.528
 -0.512  -0.504  -0.502  -0.501  -0.493  -0.490  -0.486  -0.485
 -0.477  -0.467  -0.463  -0.462  -0.452  -0.443  -0.430  -0.429
 -0.423  -0.411  -0.398  -0.376  -0.373  -0.360  -0.351  -0.348
 -0.344  -0.342  -0.338  -0.334  -0.327  -0.265

          Ground-State Mulliken Net Atomic Charges

     Atom                 Charge (a.u.)
  ----------------------------------------
      1 C                    -0.089322
      2 C                    -0.134751
      3 C                    -0.077861
      4 C                    -0.114144
      5 N                    -0.149639
      6 C                     0.102438
      7 C                     0.077323
      8 N                    -0.141798
      9 C                    -0.002026
     10 C                    -0.076719
     11 N                    -0.259427
     12 C                     0.047177
     13 C                     0.053985
     14 S                     0.407467
     15 N                    -0.303379
     16 C                    -0.074762
     17 S                     0.173503
     18 C                     0.062031
     19 C                    -0.055149
     20 N                    -0.169006
     21 C                     0.063355
     22 C                    -0.011252
     23 C                    -0.041995
     24 N                    -0.161795
     25 C                    -0.137476
     26 S                     0.102828
     27 C                    -0.045481
     28 C                    -0.158669
     29 C                    -0.182420
     30 H                     0.130913
     31 H                     0.121090
     32 H                     0.118553
     33 H                     0.130577
     34 H                     0.138652
     35 H                     0.125882
     36 H                     0.134200
     37 H                     0.128955
     38 H                     0.131611
     39 H                     0.136532
  ----------------------------------------
  Sum of atomic charges =     0.000000

                    Cartesian Multipole Moments
 -----------------------------------------------------------------
    Charge (ESU x 10^10)
                 0.0000
    Dipole Moment (Debye)
         X       0.4034      Y      -0.6385      Z      -1.9215
       Tot       2.0645
    Quadrupole Moments (Debye-Ang)
        XX    -151.0526     XY       8.0206     YY    -169.2839
        XZ       6.1883     YZ      -1.4960     ZZ    -184.2137

 Total job time:  31242.56s(wall), 123803.99s(cpu)
        *  Thank you very much for using Q-Chem.  Have a nice day.  *
