 Q-Chem 4.4, Q-Chem, Inc., Pleasanton, CA (2016)
 Q-Chem 4.4.0 for Intel X86 Linux

User input:
--------------------------------------------------------------
$comment
OPTIMIZATION
$end

$rem
JOBTYPE OPT
EXCHANGE omegaB97X-D
BASIS cc-pVTZ
$end

$molecule
0 1
C          0.00000        0.00000        0.00000
C         -0.65442       -1.22189        0.00029
C          1.38558        0.00000        0.00000
C          0.09563       -2.38039        0.00926
N          2.11898       -1.10529        0.01182
C          1.48579       -2.27657        0.02342
C          2.30845       -3.51149        0.04024
N          2.14546       -4.32308        1.04899
C          3.27380       -3.84136       -0.96722
C          2.85171       -5.47342        1.16714
N          3.62737       -3.12767       -2.03687
C          4.00969       -5.06470       -0.84271
C          3.79829       -5.92555        0.27782
S          4.76404       -3.96705       -2.79496
N          4.88296       -5.25301       -1.83022
C          4.54573       -7.15742        0.48359
S          5.51220       -7.87367       -0.74467
C          4.63913       -7.93874        1.63494
C          6.01885       -9.19790        0.20278
N          4.02014       -7.68877        2.82262
C          5.47491       -9.08970        1.47743
C          6.89573      -10.22724       -0.31161
C          4.23882       -8.54991        3.76896
N          5.68215       -9.97018        2.49273
C          7.70115      -11.07509        0.39747
S          7.03730      -10.53480       -2.01256
C          5.07263       -9.69760        3.60594
C          8.43678      -11.95876       -0.42731
C          8.18620      -11.77749       -1.75184
H         -0.54818        0.93041       -0.00000
H         -1.73449       -1.27032       -0.00344
H          1.93674        0.93371       -0.01430
H         -0.36223       -3.35775        0.00507
H          2.64474       -6.04763        2.05554
H          3.74917       -8.37505        4.72053
H          7.74370      -11.05970        1.47311
H          5.21849      -10.37824        4.43632
H          9.12847      -12.69411       -0.04614
H          8.60862      -12.31282       -2.58550
$end

$opt
CONSTRAINT
tors 4 6 7 8 -60.00000
tors 10 13 16 17 168.54979
tors 17 19 22 25 157.50653
ENDCONSTRAINT
$end
--------------------------------------------------------------

   16   -2291.1923420258      7.00E-09 Convergence criterion met
 Total energy in the final basis set = -2291.1923420258
   13   -2291.1932360855      5.03E-09 Convergence criterion met
 Total energy in the final basis set = -2291.1932360855
   13   -2291.1935147361      4.93E-09 Convergence criterion met
 Total energy in the final basis set = -2291.1935147361
   12   -2291.1935923762      4.72E-09 Convergence criterion met
 Total energy in the final basis set = -2291.1935923762
   11   -2291.1936345802      5.10E-09 Convergence criterion met
 Total energy in the final basis set = -2291.1936345802
   10   -2291.1936426327      9.60E-09 Convergence criterion met
 Total energy in the final basis set = -2291.1936426327
   10   -2291.1936454876      6.06E-09 Convergence criterion met
 Total energy in the final basis set = -2291.1936454876
    9   -2291.1936468637      9.86E-09 Convergence criterion met
 Total energy in the final basis set = -2291.1936468637

             Standard Nuclear Orientation (Angstroms)
    I     Atom           X                Y                Z
 ----------------------------------------------------------------
    1      C      -7.6525065740    -0.2654895878     0.0193324444
    2      C      -7.0732329237    -0.7915111639    -1.1230539952
    3      C      -6.8193236623     0.2019640939     1.0232825223
    4      C      -5.6936241573    -0.8286732855    -1.2137929492
    5      N      -5.4944596902     0.1843040467     0.9461619451
    6      C      -4.9488544800    -0.3363505687    -0.1502717499
    7      C      -3.4642050195    -0.3280354195    -0.2067204862
    8      N      -2.8357858175    -1.4576218281    -0.3475101761
    9      C      -2.7229357708     0.8803027077    -0.0422785357
   10      C      -1.4749085137    -1.5067952621    -0.3231456934
   11      N      -3.2115068202     2.1160959125     0.0560709708
   12      C      -1.2975095927     0.8245826891    -0.0059975154
   13      C      -0.6337005100    -0.4356030155    -0.1307913593
   14      S      -1.9438924536     3.0910703177     0.2005273940
   15      N      -0.7356914604     2.0241751718     0.1351496199
   16      C       0.8141378181    -0.5759218822    -0.0566291488
   17      S       1.8795870756     0.7728366152    -0.1045399358
   18      C       1.5748396739    -1.7376087613     0.0678731228
   19      C       3.3097177412    -0.1487724771     0.0125557863
   20      N       1.0865152920    -3.0081201888     0.1409372216
   21      C       2.9844062456    -1.4960070055     0.1120739602
   22      C       4.6218838236     0.4595496243     0.0188529991
   23      C       1.9709009909    -3.9508822380     0.2472086670
   24      N       3.8832471442    -2.5109183029     0.2262821683
   25      C       5.7866451766    -0.0609518995     0.5125840810
   26      S       4.8958029577     2.0378042500    -0.6465745778
   27      C       3.3776611074    -3.7039308200     0.2901396659
   28      C       6.8889292008     0.8138463489     0.3671905011
   29      C       6.5576560159     1.9865970125    -0.2342713049
   30      H      -8.7263519469    -0.2180862655     0.1294450246
   31      H      -7.6871969225    -1.1619191390    -1.9327462221
   32      H      -7.2355675696     0.6162010602     1.9340267236
   33      H      -5.1966496120    -1.2400495805    -2.0803061674
   34      H      -1.0559155505    -2.4944860278    -0.4276897502
   35      H       1.6053128602    -4.9704675675     0.2984431376
   36      H       5.8334212239    -1.0427531060     0.9531387927
   37      H       4.0668151174    -4.5357935607     0.3834304974
   38      H       7.8868904852     0.5776614636     0.7039136129
   39      H       7.2008753477     2.8185303873    -0.4650644776
 ----------------------------------------------------------------

    9   -2291.1936472524      5.75E-09 Convergence criterion met
 Total energy in the final basis set = -2291.1936472524
 Final energy is   -2291.19364725243
 **  OPTIMIZATION CONVERGED  **

                    Orbital Energies (a.u.)
 --------------------------------------------------------------

 Alpha MOs
 -- Occupied --
-89.155 -89.107 -89.087 -14.486 -14.482 -14.463 -14.462 -14.446
-14.437 -10.356 -10.350 -10.350 -10.345 -10.344 -10.344 -10.342
-10.341 -10.338 -10.337 -10.335 -10.331 -10.326 -10.325 -10.320
-10.312 -10.302 -10.301 -10.295 -10.293  -8.160  -8.116  -8.097
 -6.109  -6.104  -6.103  -6.064  -6.060  -6.059  -6.045  -6.042
 -6.039  -1.145  -1.101  -1.069  -1.049  -1.029  -1.014  -1.004
 -0.986  -0.925  -0.913  -0.898  -0.879  -0.869  -0.854  -0.838
 -0.811  -0.777  -0.772  -0.746  -0.740  -0.732  -0.721  -0.711
 -0.673  -0.656  -0.648  -0.630  -0.629  -0.621  -0.607  -0.604
 -0.586  -0.583  -0.567  -0.564  -0.558  -0.548  -0.542  -0.527
 -0.513  -0.504  -0.501  -0.498  -0.495  -0.492  -0.485  -0.484
 -0.475  -0.466  -0.462  -0.461  -0.451  -0.442  -0.429  -0.427
 -0.421  -0.411  -0.394  -0.377  -0.371  -0.359  -0.358  -0.349
 -0.343  -0.340  -0.338  -0.334  -0.326  -0.265

          Ground-State Mulliken Net Atomic Charges

     Atom                 Charge (a.u.)
  ----------------------------------------
      1 C                    -0.091306
      2 C                    -0.126641
      3 C                    -0.077078
      4 C                    -0.138980
      5 N                    -0.165585
      6 C                     0.142407
      7 C                     0.102575
      8 N                    -0.172956
      9 C                    -0.016205
     10 C                    -0.084027
     11 N                    -0.238104
     12 C                     0.050797
     13 C                     0.053605
     14 S                     0.406970
     15 N                    -0.305448
     16 C                    -0.074935
     17 S                     0.175732
     18 C                     0.061814
     19 C                    -0.055761
     20 N                    -0.169609
     21 C                     0.063701
     22 C                    -0.011408
     23 C                    -0.042669
     24 N                    -0.161935
     25 C                    -0.137378
     26 S                     0.102724
     27 C                    -0.045552
     28 C                    -0.158623
     29 C                    -0.182573
     30 H                     0.131711
     31 H                     0.121253
     32 H                     0.117185
     33 H                     0.133043
     34 H                     0.137314
     35 H                     0.125610
     36 H                     0.134338
     37 H                     0.128292
     38 H                     0.131342
     39 H                     0.136363
  ----------------------------------------
  Sum of atomic charges =     0.000000

                    Cartesian Multipole Moments
 -----------------------------------------------------------------
    Charge (ESU x 10^10)
                 0.0000
    Dipole Moment (Debye)
         X       0.1645      Y      -0.5545      Z      -0.9722
       Tot       1.1312
    Quadrupole Moments (Debye-Ang)
        XX    -150.0658     XY      -1.8767     YY    -168.6891
        XZ       8.6925     YZ      -0.4217     ZZ    -183.1421

 Total job time:  35310.03s(wall), 139992.13s(cpu)
        *  Thank you very much for using Q-Chem.  Have a nice day.  *
