 Q-Chem 4.4, Q-Chem, Inc., Pleasanton, CA (2016)
 Q-Chem 4.4.0 for Intel X86 Linux

User input:
--------------------------------------------------------------
$comment
OPTIMIZATION
$end

$rem
JOBTYPE OPT
EXCHANGE omegaB97X-D
BASIS cc-pVTZ
$end

$molecule
0 1
C          0.00000        0.00000        0.00000
C         -0.65442       -1.22189        0.00029
C          1.38558        0.00000        0.00000
C          0.09563       -2.38039        0.00926
N          2.11898       -1.10529        0.01182
C          1.48579       -2.27657        0.02342
C          2.30845       -3.51149        0.04024
N          2.87714       -3.83403        1.16957
C          2.52518       -4.34198       -1.10824
C          3.65607       -4.93587        1.29293
N          2.08490       -4.15951       -2.35378
C          3.34077       -5.51202       -0.96894
C          3.94312       -5.82894        0.28727
S          2.65017       -5.38109       -3.22528
N          3.47789       -6.19275       -2.10518
C          4.81696       -6.97677        0.48063
S          4.95337       -8.24495       -0.67211
C          5.67035       -7.25295        1.54844
C          6.08482       -9.15367        0.22341
N          5.84625       -6.47461        2.65273
C          6.38990       -8.48121        1.40115
C          6.61100      -10.41605       -0.24838
C          6.68864       -6.92115        3.53359
N          7.26633       -8.91688        2.34511
C          7.77935      -11.02684        0.11528
S          5.75889      -11.37826       -1.41282
C          7.40294       -8.14830        3.38226
C          7.99120      -12.25727       -0.55064
C          6.98656      -12.57201       -1.41184
H         -0.54818        0.93041       -0.00000
H         -1.73449       -1.27032       -0.00344
H          1.93674        0.93371       -0.01430
H         -0.36223       -3.35775        0.00507
H          4.08849       -5.08295        2.26926
H          6.83780       -6.32156        4.42470
H          8.44626      -10.60024        0.84488
H          8.09588       -8.46530        4.15259
H          8.86103      -12.87704       -0.39656
H          6.89922      -13.44409       -2.03782
$end

$opt
CONSTRAINT
tors 4 6 7 8 -105.00000
tors 10 13 16 17 168.54979
tors 17 19 22 25 157.50653
ENDCONSTRAINT
$end
--------------------------------------------------------------

   16   -2291.1894058171      7.24E-09 Convergence criterion met
 Total energy in the final basis set = -2291.1894058171
   13   -2291.1905247112      4.33E-09 Convergence criterion met
 Total energy in the final basis set = -2291.1905247112
   12   -2291.1906817360      5.90E-09 Convergence criterion met
 Total energy in the final basis set = -2291.1906817360
   11   -2291.1907037134      5.45E-09 Convergence criterion met
 Total energy in the final basis set = -2291.1907037134
   10   -2291.1907118735      8.30E-09 Convergence criterion met
 Total energy in the final basis set = -2291.1907118735
    9   -2291.1907137330      5.90E-09 Convergence criterion met
 Total energy in the final basis set = -2291.1907137330

             Standard Nuclear Orientation (Angstroms)
    I     Atom           X                Y                Z
 ----------------------------------------------------------------
    1      C      -7.6663608982    -0.3426227039    -0.1183741715
    2      C      -7.0208754398     0.2199162276    -1.2063343371
    3      C      -6.8960071211    -0.8503844703     0.9147816727
    4      C      -5.6381839698     0.2488400754    -1.2154126713
    5      N      -5.5675107300    -0.8336779460     0.9179014571
    6      C      -4.9587130641    -0.2914033347    -0.1318827420
    7      C      -3.4677162564    -0.3136534942    -0.1134386271
    8      N      -2.8465581256    -1.4336380680    -0.3264259710
    9      C      -2.7202364456     0.8799004122     0.1079482497
   10      C      -1.4849220026    -1.4875608525    -0.3067513913
   11      N      -3.2102081344     2.1027120911     0.3137196311
   12      C      -1.2952944871     0.8235518808     0.1234700939
   13      C      -0.6364835825    -0.4281785792    -0.0813364768
   14      S      -1.9402467873     3.0689523591     0.5070644116
   15      N      -0.7333342163     2.0116521800     0.3419868288
   16      C       0.8122608661    -0.5738430349    -0.0443984586
   17      S       1.8788386413     0.7745004594    -0.0504292929
   18      C       1.5722661461    -1.7404126557     0.0170921195
   19      C       3.3094240786    -0.1531049264    -0.0047611020
   20      N       1.0822725595    -3.0119998465     0.0535529132
   21      C       2.9828309592    -1.5027374177     0.0429339257
   22      C       4.6226024675     0.4528991247    -0.0048707950
   23      C       1.9666365898    -3.9592525736     0.1054294135
   24      N       3.8820002973    -2.5226291409     0.0954817232
   25      C       5.7983054359    -0.0873080192     0.4391852367
   26      S       4.8839542568     2.0531456879    -0.6205246948
   27      C       3.3749624158    -3.7163559333     0.1243378649
   28      C       6.8993036251     0.7898588422     0.2966016855
   29      C       6.5555485214     1.9840426627    -0.2535788899
   30      H      -8.7448622194    -0.3834079244    -0.0688787776
   31      H      -7.5811129067     0.6288576545    -2.0361551630
   32      H      -7.3640040582    -1.2917463581     1.7870870219
   33      H      -5.0940757450     0.6814587377    -2.0430912300
   34      H      -1.0693531329    -2.4690572434    -0.4694699210
   35      H       1.5998372927    -4.9792977804     0.1318433597
   36      H       5.8518587219    -1.0823515179     0.8483492728
   37      H       4.0640715619    -4.5525121417     0.1666042709
   38      H       7.9043753499     0.5396167305     0.6005290502
   39      H       7.1944886682     2.8228976459    -0.4709293986
 ----------------------------------------------------------------

    8   -2291.1907142210      6.98E-09 Convergence criterion met
 Total energy in the final basis set = -2291.1907142210
 Final energy is   -2291.19071422101
 **  OPTIMIZATION CONVERGED  **

                    Orbital Energies (a.u.)
 --------------------------------------------------------------

 Alpha MOs
 -- Occupied --
-89.158 -89.107 -89.087 -14.490 -14.485 -14.463 -14.462 -14.445
-14.436 -10.358 -10.353 -10.350 -10.345 -10.344 -10.344 -10.343
-10.341 -10.338 -10.337 -10.335 -10.332 -10.327 -10.325 -10.320
-10.312 -10.303 -10.301 -10.296 -10.294  -8.163  -8.116  -8.097
 -6.113  -6.107  -6.106  -6.065  -6.061  -6.059  -6.046  -6.042
 -6.040  -1.148  -1.101  -1.069  -1.048  -1.030  -1.016  -1.006
 -0.987  -0.926  -0.913  -0.900  -0.879  -0.869  -0.855  -0.839
 -0.812  -0.778  -0.772  -0.746  -0.740  -0.734  -0.723  -0.712
 -0.674  -0.656  -0.649  -0.632  -0.629  -0.621  -0.607  -0.605
 -0.588  -0.584  -0.568  -0.567  -0.559  -0.548  -0.543  -0.528
 -0.513  -0.503  -0.501  -0.500  -0.493  -0.491  -0.486  -0.485
 -0.477  -0.467  -0.463  -0.461  -0.452  -0.443  -0.430  -0.429
 -0.423  -0.411  -0.397  -0.375  -0.373  -0.360  -0.355  -0.346
 -0.344  -0.341  -0.339  -0.334  -0.330  -0.266

          Ground-State Mulliken Net Atomic Charges

     Atom                 Charge (a.u.)
  ----------------------------------------
      1 C                    -0.089101
      2 C                    -0.130514
      3 C                    -0.080881
      4 C                    -0.107669
      5 N                    -0.166600
      6 C                     0.119903
      7 C                     0.077825
      8 N                    -0.152333
      9 C                     0.005263
     10 C                    -0.081128
     11 N                    -0.255630
     12 C                     0.043895
     13 C                     0.053478
     14 S                     0.407758
     15 N                    -0.303681
     16 C                    -0.074902
     17 S                     0.173292
     18 C                     0.062801
     19 C                    -0.054782
     20 N                    -0.169296
     21 C                     0.063363
     22 C                    -0.011573
     23 C                    -0.041612
     24 N                    -0.161535
     25 C                    -0.137353
     26 S                     0.102216
     27 C                    -0.045963
     28 C                    -0.158619
     29 C                    -0.182427
     30 H                     0.129796
     31 H                     0.120602
     32 H                     0.119490
     33 H                     0.128803
     34 H                     0.139935
     35 H                     0.125849
     36 H                     0.133979
     37 H                     0.129217
     38 H                     0.131640
     39 H                     0.136494
  ----------------------------------------
  Sum of atomic charges =     0.000000

                    Cartesian Multipole Moments
 -----------------------------------------------------------------
    Charge (ESU x 10^10)
                 0.0000
    Dipole Moment (Debye)
         X       0.4284      Y       0.7694      Z      -1.0877
       Tot       1.3995
    Quadrupole Moments (Debye-Ang)
        XX    -151.4389     XY      -8.9520     YY    -169.2324
        XZ       9.0790     YZ      -2.9734     ZZ    -183.5036

 Total job time:  26355.65s(wall), 104449.87s(cpu)
        *  Thank you very much for using Q-Chem.  Have a nice day.  *
