 Q-Chem 4.4, Q-Chem, Inc., Pleasanton, CA (2016)
 Q-Chem 4.4.0 for Intel X86 Linux

User input:
--------------------------------------------------------------
$comment
OPTIMIZATION
$end

$rem
JOBTYPE OPT
EXCHANGE omegaB97X-D
BASIS cc-pVTZ
$end

$molecule
0 1
C          7.67777        0.34642       -0.33993
C          6.98892        1.51270       -0.04885
C          6.94370       -0.80400       -0.58243
C          5.60978        1.47954       -0.00352
N          5.61883       -0.85095       -0.53894
C          4.96205        0.26974       -0.24819
C          3.47962        0.21444       -0.19685
N          2.83481        1.33798       -0.34991
C          2.73362       -0.98872        0.03061
C          1.48160        1.40094       -0.31172
N          3.19870       -2.21714        0.26374
C          1.30325       -0.91788        0.05914
C          0.63707        0.33357       -0.11468
S          1.92034       -3.16172        0.46998
N          0.72482       -2.09492        0.29058
C         -0.80985        0.47767       -0.05204
S         -1.88040       -0.86682       -0.09381
C         -1.56638        1.64356        0.06446
C         -3.30736        0.06120        0.00792
N         -1.07341        2.91209        0.13774
C         -2.97696        1.40790        0.10327
C         -4.62265       -0.54017        0.00653
C         -1.95462        3.85869        0.23857
N         -3.87207        2.42642        0.21102
C         -5.78850       -0.01133        0.48882
S         -4.90180       -2.11612       -0.66218
C         -3.36222        3.61771        0.27514
C         -6.89590       -0.87751        0.33181
C         -6.56731       -2.05254       -0.26686
H          8.75733        0.32596       -0.37845
H          7.52022        2.43532        0.14280
H          7.44267       -1.73482       -0.82711
H          5.02391        2.35976        0.21256
H          1.06741        2.38942       -0.42819
H         -1.58537        4.87694        0.29040
H         -5.83313        0.97106        0.92819
H         -4.04850        4.45242        0.36420
H         -7.89525       -0.63350        0.65875
H         -7.21448       -2.87971       -0.50357
$end

$opt
CONSTRAINT
tors 4 6 7 8 45.00000
tors 10 13 16 17 168.54979
tors 17 19 22 25 157.50653
ENDCONSTRAINT
$end
--------------------------------------------------------------

   16   -2291.1956868708      5.28E-09 Convergence criterion met
 Total energy in the final basis set = -2291.1956868708
   14   -2291.1942195591      6.95E-09 Convergence criterion met
 Total energy in the final basis set = -2291.1942195591
   13   -2291.1939815289      7.85E-09 Convergence criterion met
 Total energy in the final basis set = -2291.1939815289
   13   -2291.1948168616      4.86E-09 Convergence criterion met
 Total energy in the final basis set = -2291.1948168616
   12   -2291.1949581268      5.53E-09 Convergence criterion met
 Total energy in the final basis set = -2291.1949581268
   12   -2291.1949796934      5.73E-09 Convergence criterion met
 Total energy in the final basis set = -2291.1949796934
   11   -2291.1950062217      4.97E-09 Convergence criterion met
 Total energy in the final basis set = -2291.1950062217
    9   -2291.1950085927      6.70E-09 Convergence criterion met
 Total energy in the final basis set = -2291.1950085927

             Standard Nuclear Orientation (Angstroms)
    I     Atom           X                Y                Z
 ----------------------------------------------------------------
    1      C       7.6624370371     0.2727781942    -0.2026639641
    2      C       7.0232367933     1.3215169376     0.4377604119
    3      C       6.8861477892    -0.7000339230    -0.8118372134
    4      C       5.6418387239     1.3497200273     0.4483981803
    5      N       5.5588122494    -0.6929051794    -0.8006616933
    6      C       4.9538953272     0.3203485631    -0.1853698521
    7      C       3.4712428848     0.3077325312    -0.1490711050
    8      N       2.8406835543     1.4227385434    -0.3834581749
    9      C       2.7246304991    -0.8792327688     0.1276793692
   10      C       1.4823787315     1.4812333904    -0.3663072011
   11      N       3.2016780852    -2.0868793181     0.4296376425
   12      C       1.2975683017    -0.8130419204     0.1446491187
   13      C       0.6358608693     0.4286476479    -0.1075829857
   14      S       1.9270726868    -3.0290932220     0.6785884007
   15      N       0.7260249458    -1.9797281029     0.4386174204
   16      C      -0.8121281428     0.5750882559    -0.0699389944
   17      S      -1.8785713505    -0.7725216679    -0.0334537035
   18      C      -1.5724309381     1.7432482290    -0.0414882994
   19      C      -3.3092671025     0.1556656079    -0.0093554667
   20      N      -1.0828048101     3.0154391685    -0.0360279249
   21      C      -2.9831225004     1.5064065539    -0.0049617799
   22      C      -4.6204691259    -0.4537304504     0.0218930740
   23      C      -1.9676140060     3.9637004796    -0.0092999686
   24      N      -3.8823263841     2.5270317691     0.0190781526
   25      C      -5.7964713660     0.0955283865     0.4551625846
   26      S      -4.8740047392    -2.0817420593    -0.5194071775
   27      C      -3.3756270107     3.7214535750     0.0141312019
   28      C      -6.8907311004    -0.7972245023     0.3633016520
   29      C      -6.5418061848    -2.0111684707    -0.1381197642
   30      H       8.7407470061     0.2103682422    -0.2313214823
   31      H       7.5913395346     2.0996825839     0.9290200486
   32      H       7.3518883379    -1.5355318411    -1.3218806756
   33      H       5.0928402318     2.1472590351     0.9267329164
   34      H       1.0673967884     2.4568049097    -0.5630184945
   35      H      -1.6009122309     4.9841414502    -0.0038878573
   36      H      -5.8534827716     1.1039525672     0.8299595233
   37      H      -4.0650271871     4.5583315440     0.0294191370
   38      H      -7.8945937056    -0.5425565404     0.6676615113
   39      H      -7.1749280230    -2.8638658220    -0.3150034346
 ----------------------------------------------------------------

    9   -2291.1950097910      7.19E-09 Convergence criterion met
 Total energy in the final basis set = -2291.1950097910
 Final energy is   -2291.19500979102
 **  OPTIMIZATION CONVERGED  **

                    Orbital Energies (a.u.)
 --------------------------------------------------------------

 Alpha MOs
 -- Occupied --
-89.154 -89.107 -89.087 -14.485 -14.481 -14.463 -14.463 -14.446
-14.436 -10.356 -10.351 -10.350 -10.346 -10.344 -10.344 -10.342
-10.341 -10.338 -10.336 -10.335 -10.331 -10.326 -10.325 -10.320
-10.311 -10.301 -10.301 -10.295 -10.294  -8.159  -8.116  -8.097
 -6.109  -6.103  -6.102  -6.064  -6.060  -6.059  -6.046  -6.042
 -6.039  -1.144  -1.101  -1.069  -1.049  -1.030  -1.014  -1.004
 -0.986  -0.925  -0.913  -0.897  -0.879  -0.869  -0.854  -0.838
 -0.811  -0.777  -0.772  -0.747  -0.739  -0.732  -0.719  -0.711
 -0.673  -0.656  -0.648  -0.630  -0.629  -0.621  -0.607  -0.603
 -0.587  -0.580  -0.568  -0.562  -0.558  -0.548  -0.543  -0.527
 -0.512  -0.505  -0.501  -0.498  -0.494  -0.492  -0.485  -0.484
 -0.474  -0.466  -0.462  -0.461  -0.451  -0.443  -0.429  -0.427
 -0.420  -0.411  -0.393  -0.377  -0.371  -0.360  -0.359  -0.349
 -0.343  -0.339  -0.338  -0.334  -0.323  -0.264

          Ground-State Mulliken Net Atomic Charges

     Atom                 Charge (a.u.)
  ----------------------------------------
      1 C                    -0.088689
      2 C                    -0.129514
      3 C                    -0.078906
      4 C                    -0.133139
      5 N                    -0.157646
      6 C                     0.118910
      7 C                     0.107382
      8 N                    -0.179349
      9 C                    -0.018286
     10 C                    -0.084641
     11 N                    -0.230754
     12 C                     0.049416
     13 C                     0.057227
     14 S                     0.408295
     15 N                    -0.305863
     16 C                    -0.073092
     17 S                     0.176006
     18 C                     0.060926
     19 C                    -0.056114
     20 N                    -0.170528
     21 C                     0.063331
     22 C                    -0.010600
     23 C                    -0.042126
     24 N                    -0.161110
     25 C                    -0.137583
     26 S                     0.103142
     27 C                    -0.046589
     28 C                    -0.159351
     29 C                    -0.182350
     30 H                     0.130258
     31 H                     0.120598
     32 H                     0.119727
     33 H                     0.135579
     34 H                     0.138940
     35 H                     0.124711
     36 H                     0.134150
     37 H                     0.129367
     38 H                     0.131451
     39 H                     0.136813
  ----------------------------------------
  Sum of atomic charges =     0.000000

                    Cartesian Multipole Moments
 -----------------------------------------------------------------
    Charge (ESU x 10^10)
                 0.0000
    Dipole Moment (Debye)
         X      -0.2519      Y       1.2718      Z       1.3672
       Tot       1.8842
    Quadrupole Moments (Debye-Ang)
        XX    -150.8392     XY       1.8509     YY    -165.6964
        XZ       3.1346     YZ       3.0172     ZZ    -186.4023

 Total job time:  38821.02s(wall), 153839.11s(cpu)
        *  Thank you very much for using Q-Chem.  Have a nice day.  *
