 Q-Chem 4.4, Q-Chem, Inc., Pleasanton, CA (2016)
 Q-Chem 4.4.0 for Intel X86 Linux

User input:
--------------------------------------------------------------
$comment
OPTIMIZATION
$end

$rem
JOBTYPE OPT
EXCHANGE omegaB97X-D
BASIS cc-pVTZ
$end

$molecule
0 1
C          7.67777        0.34642       -0.33993
C          6.98892        1.51270       -0.04885
C          6.94370       -0.80400       -0.58243
C          5.60978        1.47954       -0.00352
N          5.61883       -0.85095       -0.53894
C          4.96205        0.26974       -0.24819
C          3.47962        0.21444       -0.19685
N          2.83481        1.33798       -0.34991
C          2.73362       -0.98872        0.03061
C          1.48160        1.40094       -0.31172
N          3.19870       -2.21714        0.26374
C          1.30325       -0.91788        0.05914
C          0.63707        0.33357       -0.11468
S          1.92034       -3.16172        0.46998
N          0.72482       -2.09492        0.29058
C         -0.80985        0.47767       -0.05204
S         -1.88040       -0.86682       -0.09381
C         -1.56638        1.64356        0.06446
C         -3.30736        0.06120        0.00792
N         -1.07341        2.91209        0.13774
C         -2.97696        1.40790        0.10327
C         -4.62265       -0.54017        0.00653
C         -1.95462        3.85869        0.23857
N         -3.87207        2.42642        0.21102
C         -5.78850       -0.01133        0.48882
S         -4.90180       -2.11612       -0.66218
C         -3.36222        3.61771        0.27514
C         -6.89590       -0.87751        0.33181
C         -6.56731       -2.05254       -0.26686
H          8.75733        0.32596       -0.37845
H          7.52022        2.43532        0.14280
H          7.44267       -1.73482       -0.82711
H          5.02391        2.35976        0.21256
H          1.06741        2.38942       -0.42819
H         -1.58537        4.87694        0.29040
H         -5.83313        0.97106        0.92819
H         -4.04850        4.45242        0.36420
H         -7.89525       -0.63350        0.65875
H         -7.21448       -2.87971       -0.50357
$end

$opt
CONSTRAINT
tors 4 6 7 8 30.00000
tors 10 13 16 17 168.54979
tors 17 19 22 25 157.50653
ENDCONSTRAINT
$end
--------------------------------------------------------------

   16   -2291.1956868708      5.28E-09 Convergence criterion met
 Total energy in the final basis set = -2291.1956868708
   13   -2291.1952572671      6.18E-09 Convergence criterion met
 Total energy in the final basis set = -2291.1952572671
   11   -2291.1954020063      7.54E-09 Convergence criterion met
 Total energy in the final basis set = -2291.1954020063
   12   -2291.1955620317      8.19E-09 Convergence criterion met
 Total energy in the final basis set = -2291.1955620317
   12   -2291.1955789989      4.01E-09 Convergence criterion met
 Total energy in the final basis set = -2291.1955789989
   11   -2291.1956112515      4.59E-09 Convergence criterion met
 Total energy in the final basis set = -2291.1956112515
   11   -2291.1956309645      7.66E-09 Convergence criterion met
 Total energy in the final basis set = -2291.1956309645
   11   -2291.1956400073      7.85E-09 Convergence criterion met
 Total energy in the final basis set = -2291.1956400073
   11   -2291.1956447971      4.23E-09 Convergence criterion met
 Total energy in the final basis set = -2291.1956447971
   10   -2291.1956465545      5.68E-09 Convergence criterion met
 Total energy in the final basis set = -2291.1956465545

             Standard Nuclear Orientation (Angstroms)
    I     Atom           X                Y                Z
 ----------------------------------------------------------------
    1      C       7.6600026512     0.2774565600    -0.3639551257
    2      C       7.0437685284     1.4158418977     0.1293522652
    3      C       6.8634193755    -0.8006357185    -0.7152641621
    4      C       5.6670770738     1.4316698716     0.2443187568
    5      N       5.5420426736    -0.8038538909    -0.6007960013
    6      C       4.9563300495     0.2927531358    -0.1244943658
    7      C       3.4768647323     0.2828117153    -0.0247022733
    8      N       2.8499915323     1.4149660581    -0.1805260528
    9      C       2.7213140814    -0.9054101916     0.2342437376
   10      C       1.4950854086     1.4887740090    -0.1435301956
   11      N       3.1825077272    -2.1272881869     0.5041443995
   12      C       1.2937424647    -0.8230299374     0.2668687649
   13      C       0.6398356745     0.4305191516     0.0593619102
   14      S       1.8987618792    -3.0579169040     0.7428341296
   15      N       0.7090317837    -1.9893406827     0.5350473740
   16      C      -0.8083579871     0.5771187443     0.0667314901
   17      S      -1.8740086396    -0.7719207389     0.0325935640
   18      C      -1.5713655468     1.7441450818     0.0718078763
   19      C      -3.3052073542     0.1545999268    -0.0016575802
   20      N      -1.0848046075     3.0170034578     0.1058843501
   21      C      -2.9817326434     1.5056088607     0.0366580844
   22      C      -4.6161610164    -0.4549681608    -0.0362455163
   23      C      -1.9714102454     3.9640669237     0.0981548726
   24      N      -3.8827913021     2.5247202414     0.0293634947
   25      C      -5.8101768870     0.0919134975     0.3471481086
   26      S      -4.8460210498    -2.0772932749    -0.6049187217
   27      C      -3.3784634306     3.7199050560     0.0564980071
   28      C      -6.9006008028    -0.7965971476     0.1943401940
   29      C      -6.5299136473    -2.0063044985    -0.3021346020
   30      H       8.7344202907     0.2226944990    -0.4658307736
   31      H       7.6278699690     2.2802503942     0.4147726946
   32      H       7.3052991096    -1.7064130692    -1.1138071568
   33      H       5.1378709097     2.2981905098     0.6108418084
   34      H       1.0878660889     2.4781587544    -0.2773216342
   35      H      -1.6066844476     4.9849788990     0.1206839673
   36      H      -5.8815018192     1.0975415420     0.7269345920
   37      H      -4.0693475533     4.5556101909     0.0451179490
   38      H      -7.9177037233    -0.5440289566     0.4529351479
   39      H      -7.1554476032    -2.8567352159    -0.5138802452
 ----------------------------------------------------------------

    9   -2291.1956469088      3.86E-09 Convergence criterion met
 Total energy in the final basis set = -2291.1956469088
 Final energy is   -2291.19564690880
 **  OPTIMIZATION CONVERGED  **

                    Orbital Energies (a.u.)
 --------------------------------------------------------------

 Alpha MOs
 -- Occupied --
-89.153 -89.107 -89.087 -14.483 -14.480 -14.463 -14.463 -14.445
-14.435 -10.355 -10.351 -10.350 -10.346 -10.344 -10.344 -10.342
-10.341 -10.338 -10.336 -10.335 -10.330 -10.326 -10.324 -10.320
-10.310 -10.301 -10.299 -10.295 -10.293  -8.158  -8.116  -8.097
 -6.107  -6.102  -6.101  -6.064  -6.060  -6.059  -6.046  -6.042
 -6.039  -1.143  -1.101  -1.068  -1.048  -1.030  -1.013  -1.003
 -0.986  -0.925  -0.912  -0.896  -0.879  -0.869  -0.853  -0.838
 -0.811  -0.777  -0.772  -0.748  -0.738  -0.731  -0.717  -0.711
 -0.672  -0.656  -0.648  -0.629  -0.629  -0.620  -0.607  -0.603
 -0.586  -0.577  -0.567  -0.561  -0.557  -0.548  -0.543  -0.527
 -0.512  -0.507  -0.501  -0.498  -0.493  -0.492  -0.486  -0.484
 -0.474  -0.466  -0.462  -0.461  -0.451  -0.443  -0.429  -0.426
 -0.419  -0.411  -0.392  -0.377  -0.372  -0.359  -0.358  -0.350
 -0.343  -0.339  -0.336  -0.334  -0.321  -0.264

          Ground-State Mulliken Net Atomic Charges

     Atom                 Charge (a.u.)
  ----------------------------------------
      1 C                    -0.090399
      2 C                    -0.131013
      3 C                    -0.078181
      4 C                    -0.124589
      5 N                    -0.151043
      6 C                     0.098565
      7 C                     0.100075
      8 N                    -0.178373
      9 C                    -0.018048
     10 C                    -0.082381
     11 N                    -0.223086
     12 C                     0.050460
     13 C                     0.059826
     14 S                     0.407865
     15 N                    -0.306397
     16 C                    -0.071920
     17 S                     0.175747
     18 C                     0.060024
     19 C                    -0.056154
     20 N                    -0.169667
     21 C                     0.063231
     22 C                    -0.010383
     23 C                    -0.042116
     24 N                    -0.161088
     25 C                    -0.138182
     26 S                     0.103165
     27 C                    -0.046025
     28 C                    -0.159956
     29 C                    -0.182267
     30 H                     0.131343
     31 H                     0.122026
     32 H                     0.117478
     33 H                     0.136445
     34 H                     0.137576
     35 H                     0.124308
     36 H                     0.134771
     37 H                     0.129284
     38 H                     0.132094
     39 H                     0.136981
  ----------------------------------------
  Sum of atomic charges =     0.000000

                    Cartesian Multipole Moments
 -----------------------------------------------------------------
    Charge (ESU x 10^10)
                 0.0000
    Dipole Moment (Debye)
         X      -0.2470      Y       1.4262      Z       0.8072
       Tot       1.6573
    Quadrupole Moments (Debye-Ang)
        XX    -150.5894     XY       2.7365     YY    -165.0380
        XZ       0.5673     YZ       2.5345     ZZ    -186.7230

 Total job time:  44479.93s(wall), 176274.21s(cpu)
        *  Thank you very much for using Q-Chem.  Have a nice day.  *
