 Q-Chem 4.4, Q-Chem, Inc., Pleasanton, CA (2016)
 Q-Chem 4.4.0 for Intel X86 Linux

User input:
--------------------------------------------------------------
$comment
OPTIMIZATION
$end

$rem
JOBTYPE OPT
EXCHANGE omegaB97X-D
BASIS cc-pVTZ
$end

$molecule
0 1
C          0.00000        0.00000        0.00000
C         -0.65442       -1.22189        0.00029
C          1.38558        0.00000        0.00000
C          0.09563       -2.38039        0.00926
N          2.11898       -1.10529        0.01182
C          1.48579       -2.27657        0.02342
C          2.30845       -3.51149        0.04024
N          2.90107       -3.84863       -1.07239
C          2.46394       -4.35145        1.19176
C          3.66829       -4.96127       -1.16936
N          1.90383       -4.21546        2.39438
C          3.28557       -5.52079        1.08628
C          3.91783       -5.85176       -0.15148
S          2.41032       -5.45225        3.28045
N          3.34152       -6.22475        2.21524
C          4.72656       -7.04810       -0.33387
S          5.27804       -8.00613        0.98284
C          5.16993       -7.62814       -1.52204
C          6.10731       -9.14149        0.01787
N          4.92526       -7.16212       -2.77869
C          5.94683       -8.81348       -1.32340
C          6.83115      -10.25804        0.58570
C          5.43756       -7.85378       -3.75033
N          6.46688       -9.51362       -2.36664
C          7.16729      -11.43644       -0.02154
S          7.40514      -10.23208        2.22207
C          6.21333       -9.03515       -3.54640
C          7.87269      -12.31738        0.83206
C          8.06732      -11.80453        2.07670
H         -0.54818        0.93041       -0.00000
H         -1.73449       -1.27032       -0.00344
H          1.93674        0.93371       -0.01430
H         -0.36223       -3.35775        0.00507
H          4.08526       -5.14525       -2.14614
H          5.26238       -7.49613       -4.75891
H          6.91950      -11.64310       -1.04865
H          6.61128       -9.57079       -4.40010
H          8.21419      -13.29532        0.52963
H          8.57088      -12.26309        2.91106
$end

$opt
CONSTRAINT
tors 4 6 7 8 105.00000
tors 10 13 16 17 168.54979
tors 17 19 22 25 157.50653
ENDCONSTRAINT
$end
--------------------------------------------------------------

   16   -2291.1895187760      7.20E-09 Convergence criterion met
 Total energy in the final basis set = -2291.1895187760
   12   -2291.1905678428      9.98E-09 Convergence criterion met
 Total energy in the final basis set = -2291.1905678428
   11   -2291.1906961516      9.83E-09 Convergence criterion met
 Total energy in the final basis set = -2291.1906961516
   11   -2291.1907176790      5.97E-09 Convergence criterion met
 Total energy in the final basis set = -2291.1907176790
   11   -2291.1907287957      4.84E-09 Convergence criterion met
 Total energy in the final basis set = -2291.1907287957
   10   -2291.1907319288      4.98E-09 Convergence criterion met
 Total energy in the final basis set = -2291.1907319288
    9   -2291.1907331910      7.04E-09 Convergence criterion met
 Total energy in the final basis set = -2291.1907331910

             Standard Nuclear Orientation (Angstroms)
    I     Atom           X                Y                Z
 ----------------------------------------------------------------
    1      C      -7.6686176135     0.3189951397     0.1611331958
    2      C      -7.0169104542     0.1418263074    -1.0470901390
    3      C      -6.9030028997     0.4799603582     1.3050256489
    4      C      -5.6351006238     0.1286603569    -1.0590796927
    5      N      -5.5738894981     0.4741925988     1.3075636141
    6      C      -4.9590609332     0.3003345363     0.1421130744
    7      C      -3.4682356402     0.3200520240     0.1567756234
    8      N      -2.8474102194     1.4505325787     0.3056434176
    9      C      -2.7213754562    -0.8784266613    -0.0390580999
   10      C      -1.4856212854     1.5028897983     0.2861831593
   11      N      -3.2122467237    -2.1067387218    -0.2060091608
   12      C      -1.2964840588    -0.8222622447    -0.0635283307
   13      C      -0.6376753225     0.4362404909     0.0946684412
   14      S      -1.9429845970    -3.0782609129    -0.3752967029
   15      N      -0.7354121385    -2.0166113981    -0.2476566090
   16      C       0.8109992622     0.5796540723     0.0424331697
   17      S       1.8765599490    -0.7687608335     0.0914860040
   18      C       1.5722140232     1.7429476669    -0.0571525755
   19      C       3.3076823355     0.1547480685     0.0051568886
   20      N       1.0836849292     3.0138726794    -0.1235064085
   21      C       2.9825133030     1.5028530029    -0.0822550969
   22      C       4.6198898317    -0.4535110402     0.0066092254
   23      C       1.9689187978     3.9584777477    -0.2025219371
   24      N       3.8822912463     2.5197586285    -0.1691493406
   25      C       5.7907317184     0.0736966897    -0.4651851127
   26      S       4.8852642332    -2.0415150064     0.6517126377
   27      C       3.3766280723     3.7131268742    -0.2247843400
   28      C       6.8909086517    -0.8038717921    -0.3201202719
   29      C       6.5517510451    -1.9853549188     0.2594743330
   30      H      -8.7474433005     0.3324015186     0.2176403693
   31      H      -7.5742544816     0.0140109417    -1.9651942517
   32      H      -7.3767735048     0.6110549328     2.2707437946
   33      H      -5.0839831877    -0.0130242326    -1.9781692226
   34      H      -1.0701351093     2.4909221555     0.4018806462
   35      H       1.6033552348     4.9783533725    -0.2473497108
   36      H       5.8422245827     1.0611175028    -0.8925403278
   37      H       4.0664297691     4.5468033363    -0.2945199078
   38      H       7.8925870392    -0.5633741630    -0.6424932395
   39      H       7.1914496676    -2.8214583140     0.4850166422
 ----------------------------------------------------------------

    9   -2291.1907338610      7.57E-09 Convergence criterion met
 Total energy in the final basis set = -2291.1907338610
 Final energy is   -2291.19073386099
 **  OPTIMIZATION CONVERGED  **

                    Orbital Energies (a.u.)
 --------------------------------------------------------------

 Alpha MOs
 -- Occupied --
-89.159 -89.107 -89.087 -14.490 -14.485 -14.463 -14.463 -14.446
-14.436 -10.358 -10.353 -10.350 -10.346 -10.344 -10.344 -10.343
-10.342 -10.339 -10.337 -10.335 -10.332 -10.327 -10.325 -10.320
-10.312 -10.303 -10.301 -10.296 -10.294  -8.163  -8.116  -8.097
 -6.113  -6.107  -6.107  -6.065  -6.061  -6.060  -6.046  -6.042
 -6.040  -1.148  -1.102  -1.069  -1.048  -1.030  -1.016  -1.006
 -0.987  -0.926  -0.913  -0.900  -0.879  -0.870  -0.855  -0.839
 -0.812  -0.778  -0.772  -0.746  -0.740  -0.733  -0.723  -0.712
 -0.674  -0.656  -0.649  -0.632  -0.629  -0.621  -0.607  -0.605
 -0.588  -0.584  -0.568  -0.566  -0.560  -0.548  -0.543  -0.528
 -0.513  -0.504  -0.501  -0.500  -0.493  -0.491  -0.486  -0.485
 -0.477  -0.467  -0.463  -0.462  -0.452  -0.443  -0.430  -0.429
 -0.423  -0.411  -0.397  -0.375  -0.373  -0.360  -0.355  -0.346
 -0.344  -0.341  -0.339  -0.334  -0.330  -0.266

          Ground-State Mulliken Net Atomic Charges

     Atom                 Charge (a.u.)
  ----------------------------------------
      1 C                    -0.089907
      2 C                    -0.130447
      3 C                    -0.079835
      4 C                    -0.108143
      5 N                    -0.167828
      6 C                     0.119366
      7 C                     0.080544
      8 N                    -0.152550
      9 C                     0.002143
     10 C                    -0.079952
     11 N                    -0.254278
     12 C                     0.044090
     13 C                     0.052664
     14 S                     0.407897
     15 N                    -0.303733
     16 C                    -0.074754
     17 S                     0.174231
     18 C                     0.062254
     19 C                    -0.055535
     20 N                    -0.169670
     21 C                     0.063441
     22 C                    -0.011205
     23 C                    -0.042001
     24 N                    -0.161690
     25 C                    -0.137272
     26 S                     0.103009
     27 C                    -0.045581
     28 C                    -0.158855
     29 C                    -0.182404
     30 H                     0.129441
     31 H                     0.120330
     32 H                     0.121025
     33 H                     0.129042
     34 H                     0.139210
     35 H                     0.125841
     36 H                     0.134137
     37 H                     0.128839
     38 H                     0.131547
     39 H                     0.136591
  ----------------------------------------
  Sum of atomic charges =     0.000000

                    Cartesian Multipole Moments
 -----------------------------------------------------------------
    Charge (ESU x 10^10)
                 0.0000
    Dipole Moment (Debye)
         X       0.4505      Y      -0.2979      Z      -2.1450
       Tot       2.2119
    Quadrupole Moments (Debye-Ang)
        XX    -151.5387     XY       6.3644     YY    -169.6935
        XZ       7.0133     YZ      -2.3483     ZZ    -183.6879

 Total job time:  35874.17s(wall), 142125.77s(cpu)
        *  Thank you very much for using Q-Chem.  Have a nice day.  *
