 Q-Chem 4.4, Q-Chem, Inc., Pleasanton, CA (2016)
 Q-Chem 4.4.2 for Intel X86 Linux

User input:
--------------------------------------------------------------
$comment
OPTIMIZATION
$end

$rem
JOBTYPE OPT
EXCHANGE omegaB97X-D
BASIS cc-pVTZ
$end

$molecule
0 1
C          0.00000        0.00000        0.00000
C          1.38599        0.00000        0.00000
C         -0.68515       -1.20581        0.00000
C          2.08055       -1.19709        0.02226
C          0.00742       -2.40411        0.01179
C          1.40063       -2.41271        0.04151
C          2.15950       -3.67324        0.15696
C          3.15000       -3.81753        1.08952
C          1.92849       -4.81544       -0.65861
N          3.90172       -4.92812        1.27968
N          1.02636       -4.93526       -1.63501
C          2.72047       -5.99481       -0.47371
C          3.72589       -5.99344        0.54686
S          1.20518       -6.42345       -2.22449
N          2.39935       -6.98227       -1.31015
C          4.58521       -7.13898        0.84639
N          5.21218       -7.87643       -0.01556
S          4.82494       -7.59722        2.50723
C          5.91474       -8.85808        0.60442
C          5.83625       -8.88772        1.97020
C          6.51257       -9.79308        2.87336
S          5.83841      -10.26240        4.39813
C          7.72158      -10.41233        2.71377
C          7.17327      -11.24913        4.80495
S          8.94770      -10.38069        1.47433
C          8.10948      -11.24000        3.80856
C          9.94768      -11.45594        2.43042
C          9.40748      -11.82913        3.60098
H         -0.54342        0.93472        0.00000
H          1.93260        0.93382       -0.01501
H         -1.76734       -1.21268        0.00047
H          3.16263       -1.19509        0.00785
H         -0.53593       -3.33924        0.01382
H          3.36185       -2.99842        1.76492
H          6.47698       -9.56686        0.01446
H          7.20419      -11.76873        5.74638
H         10.91211      -11.73439        2.03769
H          9.90451      -12.47860        4.30429
$end

$opt
CONSTRAINT
tors 4 6 7 8 47.06187
tors 10 13 16 18 45.00000
tors 18 20 21 22 32.71647
ENDCONSTRAINT
$end
--------------------------------------------------------------

   16   -2579.8579189296      4.47E-09 Convergence criterion met
 Total energy in the final basis set = -2579.8579189296
   13   -2579.8588436386      5.13E-09 Convergence criterion met
 Total energy in the final basis set = -2579.8588436386
   12   -2579.8590374386      8.02E-09 Convergence criterion met
 Total energy in the final basis set = -2579.8590374386
   11   -2579.8590746087      5.79E-09 Convergence criterion met
 Total energy in the final basis set = -2579.8590746087
   10   -2579.8590866137      9.07E-09 Convergence criterion met
 Total energy in the final basis set = -2579.8590866137
    9   -2579.8590893193      8.99E-09 Convergence criterion met
 Total energy in the final basis set = -2579.8590893193

             Standard Nuclear Orientation (Angstroms)
    I     Atom           X                Y                Z
 ----------------------------------------------------------------
    1      C      -8.0583958934     1.5358803327    -0.3794488395
    2      C      -7.2002080352     1.9305200547    -1.3932826689
    3      C      -7.5691500088     0.7965992272     0.6870995098
    4      C      -5.8583716579     1.5912977545    -1.3377576268
    5      C      -6.2295508081     0.4536555938     0.7426329064
    6      C      -5.3562648355     0.8573571619    -0.2653996530
    7      C      -3.9199185578     0.5226453235    -0.2088632589
    8      C      -2.9525738122     1.4599081279    -0.4440860233
    9      C      -3.4351974340    -0.7767588264     0.1179783237
   10      N      -1.6100037278     1.2409913196    -0.4359035497
   11      N      -4.1555431251    -1.8603477917     0.4174647072
   12      C      -2.0266489675    -1.0168882523     0.1492637419
   13      C      -1.1377223965     0.0610042838    -0.1524882087
   14      S      -3.0951724432    -3.0346147631     0.7170685410
   15      N      -1.7052369006    -2.2656422814     0.4878431440
   16      C       0.3196941508    -0.1251788536    -0.1886427684
   17      N       0.9246912774    -1.1618547394    -0.6769126853
   18      S       1.3650202062     1.0495480582     0.5376041161
   19      C       2.2696930784    -1.0630505104    -0.5069741103
   20      C       2.7175656173     0.0531489296     0.1435255444
   21      C       4.0867083513     0.4181400848     0.4393105307
   22      S       4.5167880773     1.3492626486     1.8323969753
   23      C       5.2262752178     0.0976811053    -0.2477431895
   24      C       6.1860605190     1.3193342165     1.4720874245
   25      S       5.5539465713    -0.7832210257    -1.7143651391
   26      C       6.4272992391     0.6085190464     0.3299036889
   27      C       7.2642603450    -0.4571601398    -1.5376280541
   28      C       7.5872351714     0.2623277588    -0.4511628729
   29      H      -9.1067486266     1.7979912224    -0.4229424307
   30      H      -7.5765835249     2.4947464570    -2.2354659339
   31      H      -8.2356244214     0.4854431021     1.4797215568
   32      H      -5.1929493192     1.8824982206    -2.1396479630
   33      H      -5.8561796647    -0.1254566440     1.5747260130
   34      H      -3.2414432784     2.4798475044    -0.6643552980
   35      H       2.9091901455    -1.8574233983    -0.8618017951
   36      H       6.8870815390     1.8273928377     2.1115344543
   37      H       7.9404649158    -0.8397208569    -2.2847958766
   38      H       8.5979970764     0.5444323927    -0.2008969213
 ----------------------------------------------------------------

    9   -2579.8590902825      6.80E-09 Convergence criterion met
 Total energy in the final basis set = -2579.8590902825
 Final energy is   -2579.85909028254
 **  OPTIMIZATION CONVERGED  **

                    Orbital Energies (a.u.)
 --------------------------------------------------------------

 Alpha MOs
 -- Occupied --
-89.151 -89.090 -89.089 -89.078 -14.487 -14.483 -14.454 -14.444
-10.364 -10.363 -10.358 -10.355 -10.343 -10.342 -10.335 -10.332
-10.330 -10.327 -10.326 -10.323 -10.313 -10.312 -10.305 -10.298
-10.296 -10.296 -10.295 -10.295  -8.161  -8.105  -8.104  -8.093
 -6.111  -6.105  -6.105  -6.054  -6.053  -6.050  -6.050  -6.048
 -6.047  -6.043  -6.039  -6.035  -1.147  -1.086  -1.064  -1.023
 -1.011  -0.975  -0.959  -0.925  -0.920  -0.900  -0.877  -0.860
 -0.856  -0.834  -0.828  -0.802  -0.775  -0.744  -0.735  -0.712
 -0.706  -0.694  -0.691  -0.661  -0.651  -0.637  -0.629  -0.615
 -0.607  -0.598  -0.574  -0.564  -0.558  -0.549  -0.543  -0.530
 -0.528  -0.525  -0.514  -0.512  -0.510  -0.501  -0.499  -0.485
 -0.478  -0.477  -0.469  -0.455  -0.449  -0.439  -0.436  -0.433
 -0.430  -0.423  -0.422  -0.401  -0.392  -0.376  -0.368  -0.363
 -0.357  -0.354  -0.340  -0.338  -0.324  -0.309  -0.275

          Ground-State Mulliken Net Atomic Charges

     Atom                 Charge (a.u.)
  ----------------------------------------
      1 C                    -0.123974
      2 C                    -0.109507
      3 C                    -0.109738
      4 C                    -0.150825
      5 C                    -0.121160
      6 C                     0.119692
      7 C                     0.013839
      8 C                    -0.108347
      9 C                     0.033947
     10 N                    -0.165489
     11 N                    -0.281712
     12 C                    -0.007309
     13 C                     0.088005
     14 S                     0.414451
     15 N                    -0.231351
     16 C                     0.024659
     17 N                    -0.147364
     18 S                     0.116770
     19 C                    -0.148147
     20 C                    -0.020862
     21 C                     0.007447
     22 S                     0.131507
     23 C                    -0.053084
     24 C                    -0.222363
     25 S                     0.057011
     26 C                     0.045132
     27 C                    -0.145877
     28 C                    -0.173215
     29 H                     0.118294
     30 H                     0.116081
     31 H                     0.115634
     32 H                     0.129654
     33 H                     0.114152
     34 H                     0.136641
     35 H                     0.146214
     36 H                     0.130452
     37 H                     0.132858
     38 H                     0.127885
  ----------------------------------------
  Sum of atomic charges =     0.000000

                    Cartesian Multipole Moments
 -----------------------------------------------------------------
    Charge (ESU x 10^10)
                 0.0000
    Dipole Moment (Debye)
         X       0.6894      Y       0.6609      Z       0.8478
       Tot       1.2771
    Quadrupole Moments (Debye-Ang)
        XX    -138.9174     XY      -0.7030     YY    -184.4334
        XZ      -0.3951     YZ      -0.5552     ZZ    -180.5301

 Total job time:  5197.58s(wall), 77729.05s(cpu)
        *  Thank you very much for using Q-Chem.  Have a nice day.  *
