 Q-Chem 4.4, Q-Chem, Inc., Pleasanton, CA (2016)
 Q-Chem 4.4.2 for Intel X86 Linux

User input:
--------------------------------------------------------------
$comment
OPTIMIZATION
$end

$rem
JOBTYPE OPT
EXCHANGE omegaB97X-D
BASIS cc-pVTZ
$end

$molecule
0 1
C          0.00000        0.00000        0.00000
C          1.38599        0.00000        0.00000
C         -0.68515       -1.20581        0.00000
C          2.08055       -1.19709        0.02226
C          0.00742       -2.40411        0.01179
C          1.40063       -2.41271        0.04151
C          2.15950       -3.67324        0.15696
C          3.15000       -3.81753        1.08952
C          1.92849       -4.81544       -0.65861
N          3.90172       -4.92812        1.27968
N          1.02636       -4.93526       -1.63501
C          2.72047       -5.99481       -0.47371
C          3.72589       -5.99344        0.54686
S          1.20518       -6.42345       -2.22449
N          2.39935       -6.98227       -1.31015
C          4.58521       -7.13898        0.84639
N          5.66467       -7.12408        1.56363
S          4.16014       -8.69834        0.20330
C          6.21964       -8.36056        1.63246
C          5.56419       -9.35592        0.96012
C          5.91159      -10.75907        0.90311
S          5.54788      -11.75273       -0.46804
C          6.54916      -11.51905        1.84468
C          6.22439      -13.15574        0.23543
S          7.16006      -11.20572        3.44756
C          6.72877      -12.88534        1.47715
C          7.63410      -12.88571        3.59971
C          7.36566      -13.64234        2.52418
H         -0.54342        0.93472        0.00000
H          1.93260        0.93382       -0.01501
H         -1.76734       -1.21268        0.00047
H          3.16263       -1.19509        0.00785
H         -0.53593       -3.33924        0.01382
H          3.36185       -2.99842        1.76492
H          7.13772       -8.50421        2.18293
H          6.20694      -14.09488       -0.28891
H          8.08790      -13.20267        4.52463
H          7.58750      -14.69650        2.46924
$end

$opt
CONSTRAINT
tors 4 6 7 8 47.06187
tors 10 13 16 18 165.00000
tors 18 20 21 22 32.71647
ENDCONSTRAINT
$end
--------------------------------------------------------------

   16   -2579.8565168188      4.23E-09 Convergence criterion met
 Total energy in the final basis set = -2579.8565168188
   12   -2579.8579194665      6.95E-09 Convergence criterion met
 Total energy in the final basis set = -2579.8579194665
   12   -2579.8581961287      3.97E-09 Convergence criterion met
 Total energy in the final basis set = -2579.8581961287
   11   -2579.8582450448      4.88E-09 Convergence criterion met
 Total energy in the final basis set = -2579.8582450448
   10   -2579.8582578842      7.31E-09 Convergence criterion met
 Total energy in the final basis set = -2579.8582578842
    9   -2579.8582601362      7.28E-09 Convergence criterion met
 Total energy in the final basis set = -2579.8582601362

             Standard Nuclear Orientation (Angstroms)
    I     Atom           X                Y                Z
 ----------------------------------------------------------------
    1      C      -8.2483995669     0.9599487773     0.3267276773
    2      C      -7.5667891580     1.6356754693    -0.6729389251
    3      C      -7.5515009290     0.1362635923     1.1980485375
    4      C      -6.1944695175     1.4929215103    -0.7970896997
    5      C      -6.1813586166    -0.0103423559     1.0734852069
    6      C      -5.4851830811     0.6749617174     0.0794435238
    7      C      -4.0200079033     0.5506649512    -0.0403252006
    8      C      -3.2061200818     1.6419369024    -0.1812753380
    9      C      -3.3388035381    -0.6976282287     0.0104434343
   10      N      -1.8526867154     1.6271972954    -0.2817795596
   11      N      -3.8763551506    -1.9131570839     0.1410618217
   12      C      -1.9148181440    -0.7273609979    -0.1000982825
   13      C      -1.1965253554     0.5024466469    -0.2520505567
   14      S      -2.6526595761    -2.9573959334     0.1249975260
   15      N      -1.4056094911    -1.9576818664    -0.0485812536
   16      C       0.2706112661     0.5566216796    -0.3553003253
   17      N       0.9131010824     1.6321086199    -0.7033032387
   18      S       1.3032586680    -0.7847281745     0.0413592162
   19      C       2.2519350324     1.4365477908    -0.6843509902
   20      C       2.6775230650     0.1918000626    -0.3069671559
   21      C       4.0378726281    -0.2846869951    -0.1809112614
   22      S       4.4730869286    -1.9317161020    -0.4844784677
   23      C       5.1670172398     0.4198372252     0.1405189578
   24      C       6.1290435981    -1.6673087237    -0.1625011273
   25      S       5.4848946283     2.0762986371     0.5756686653
   26      C       6.3626837465    -0.3590193188     0.1559198590
   27      C       7.1854434929     1.7080967529     0.7666739016
   28      C       7.5113908973     0.4288067390     0.5231512819
   29      H      -9.3195557600     1.0721224778     0.4252099022
   30      H      -8.1061439871     2.2708559798    -1.3620434729
   31      H      -8.0773660078    -0.3939624337     1.9801852534
   32      H      -5.6681406503     2.0072015608    -1.5903788541
   33      H      -5.6435353356    -0.6544053600     1.7540729154
   34      H      -3.6487884470     2.6303112421    -0.1997071666
   35      H       2.9107133381     2.2405415845    -0.9775868848
   36      H       6.8306784207    -2.4810013779    -0.2260671331
   37      H       7.8540101886     2.5029466211     1.0546490831
   38      H       8.5158070398     0.0421282610     0.5971301341
 ----------------------------------------------------------------

    8   -2579.8582606659      9.12E-09 Convergence criterion met
 Total energy in the final basis set = -2579.8582606659
 Final energy is   -2579.85826066586
 **  OPTIMIZATION CONVERGED  **

                    Orbital Energies (a.u.)
 --------------------------------------------------------------

 Alpha MOs
 -- Occupied --
-89.155 -89.091 -89.089 -89.078 -14.493 -14.487 -14.449 -14.441
-10.364 -10.363 -10.360 -10.358 -10.343 -10.341 -10.334 -10.333
-10.330 -10.327 -10.324 -10.322 -10.313 -10.312 -10.305 -10.298
-10.296 -10.296 -10.295 -10.295  -8.165  -8.105  -8.104  -8.093
 -6.115  -6.110  -6.109  -6.055  -6.053  -6.051  -6.050  -6.048
 -6.047  -6.043  -6.039  -6.035  -1.152  -1.085  -1.060  -1.023
 -1.016  -0.975  -0.959  -0.926  -0.917  -0.903  -0.875  -0.860
 -0.856  -0.834  -0.829  -0.802  -0.776  -0.745  -0.736  -0.713
 -0.707  -0.693  -0.691  -0.660  -0.653  -0.637  -0.626  -0.616
 -0.606  -0.598  -0.576  -0.565  -0.561  -0.546  -0.540  -0.531
 -0.530  -0.524  -0.515  -0.514  -0.513  -0.500  -0.498  -0.487
 -0.480  -0.476  -0.469  -0.459  -0.449  -0.440  -0.436  -0.436
 -0.433  -0.424  -0.420  -0.402  -0.393  -0.373  -0.363  -0.362
 -0.360  -0.353  -0.339  -0.338  -0.324  -0.308  -0.272

          Ground-State Mulliken Net Atomic Charges

     Atom                 Charge (a.u.)
  ----------------------------------------
      1 C                    -0.123982
      2 C                    -0.107863
      3 C                    -0.110052
      4 C                    -0.151279
      5 C                    -0.122581
      6 C                     0.122125
      7 C                     0.009807
      8 C                    -0.101460
      9 C                     0.031552
     10 N                    -0.121725
     11 N                    -0.276677
     12 C                     0.018270
     13 C                     0.072211
     14 S                     0.413135
     15 N                    -0.283545
     16 C                    -0.008470
     17 N                    -0.129890
     18 S                     0.119803
     19 C                    -0.141307
     20 C                    -0.018314
     21 C                     0.001536
     22 S                     0.132336
     23 C                    -0.053089
     24 C                    -0.222179
     25 S                     0.058898
     26 C                     0.043544
     27 C                    -0.145445
     28 C                    -0.172561
     29 H                     0.118023
     30 H                     0.115680
     31 H                     0.115312
     32 H                     0.129695
     33 H                     0.113820
     34 H                     0.137303
     35 H                     0.145844
     36 H                     0.130835
     37 H                     0.132611
     38 H                     0.128079
  ----------------------------------------
  Sum of atomic charges =     0.000000

                    Cartesian Multipole Moments
 -----------------------------------------------------------------
    Charge (ESU x 10^10)
                 0.0000
    Dipole Moment (Debye)
         X       0.7476      Y      -1.9708      Z       0.6930
       Tot       2.2189
    Quadrupole Moments (Debye-Ang)
        XX    -138.4781     XY      -3.2803     YY    -180.7831
        XZ       1.2421     YZ      -1.3944     ZZ    -186.4676

 Total job time:  5148.30s(wall), 77148.22s(cpu)
        *  Thank you very much for using Q-Chem.  Have a nice day.  *
