 Q-Chem 4.4, Q-Chem, Inc., Pleasanton, CA (2016)
 Q-Chem 4.4.2 for Intel X86 Linux

User input:
--------------------------------------------------------------
$comment
OPTIMIZATION
$end

$rem
JOBTYPE OPT
EXCHANGE omegaB97X-D
BASIS cc-pVTZ
$end

$molecule
0 1
C          0.00000        0.00000        0.00000
C          1.38599        0.00000        0.00000
C         -0.68515       -1.20581        0.00000
C          2.08055       -1.19709        0.02226
C          0.00742       -2.40411        0.01179
C          1.40063       -2.41271        0.04151
C          2.15950       -3.67324        0.15696
C          3.15000       -3.81753        1.08952
C          1.92849       -4.81544       -0.65861
N          3.90172       -4.92812        1.27968
N          1.02636       -4.93526       -1.63501
C          2.72047       -5.99481       -0.47371
C          3.72589       -5.99344        0.54686
S          1.20518       -6.42345       -2.22449
N          2.39935       -6.98227       -1.31015
C          4.58521       -7.13898        0.84639
N          5.29826       -7.30690        1.91562
S          4.69456       -8.43216       -0.31188
C          5.98144       -8.47837        1.86526
C          5.79913       -9.23695        0.74111
C          6.36754      -10.53524        0.45108
S          6.71340      -11.06008       -1.16281
C          6.72032      -11.52659        1.32480
C          7.29655      -12.58450       -0.65578
S          6.62453      -11.70977        3.05623
C          7.24620      -12.69890        0.70575
C          7.27535      -13.33131        2.92478
C          7.55829      -13.72068        1.67193
H         -0.54342        0.93472        0.00000
H          1.93260        0.93382       -0.01501
H         -1.76734       -1.21268        0.00047
H          3.16263       -1.19509        0.00785
H         -0.53593       -3.33924        0.01382
H          3.36185       -2.99842        1.76492
H          6.63588       -8.75064        2.68019
H          7.63146      -13.31043       -1.37556
H          7.39410      -13.90484        3.82968
H          7.95414      -14.69385        1.42752
$end

$opt
CONSTRAINT
tors 4 6 7 8 47.06187
tors 10 13 16 18 -165.00000
tors 18 20 21 22 32.71647
ENDCONSTRAINT
$end
--------------------------------------------------------------

   16   -2579.8565160827      4.15E-09 Convergence criterion met
 Total energy in the final basis set = -2579.8565160827
   12   -2579.8579200648      8.83E-09 Convergence criterion met
 Total energy in the final basis set = -2579.8579200648
   12   -2579.8581835671      4.47E-09 Convergence criterion met
 Total energy in the final basis set = -2579.8581835671
   11   -2579.8582270906      5.80E-09 Convergence criterion met
 Total energy in the final basis set = -2579.8582270906
   10   -2579.8582393563      8.31E-09 Convergence criterion met
 Total energy in the final basis set = -2579.8582393563

             Standard Nuclear Orientation (Angstroms)
    I     Atom           X                Y                Z
 ----------------------------------------------------------------
    1      C      -8.2889522249     0.8263407974    -0.0607999767
    2      C      -7.5514087290     1.3451400476    -1.1128917361
    3      C      -7.6388955334     0.1909147725     0.9868159834
    4      C      -6.1705866624     1.2346143989    -1.1136847720
    5      C      -6.2596611918     0.0762440437     0.9860286522
    6      C      -5.5086210801     0.6072184216    -0.0606886908
    7      C      -4.0360462696     0.5185815525    -0.0627585370
    8      C      -3.2441742430     1.5993196873    -0.3413577651
    9      C      -3.3270600400    -0.6788391930     0.2346505346
   10      N      -1.8872486950     1.6137478321    -0.3756487910
   11      N      -3.8390740710    -1.8741693786     0.5384187085
   12      C      -1.8987908855    -0.6757787160     0.2055125859
   13      C      -1.2048967594     0.5361501834    -0.1121003395
   14      S      -2.5894520772    -2.8628954087     0.7597322923
   15      N      -1.3611375044    -1.8616698239     0.4890259226
   16      C       0.2638970846     0.6231364329    -0.1516856242
   17      N       0.8996559184     1.7567335372    -0.1846004425
   18      S       1.3027597159    -0.7700384386    -0.2005251485
   19      C       2.2376884049     1.5714803948    -0.2646708911
   20      C       2.6692055334     0.2732022306    -0.3012395501
   21      C       4.0318829663    -0.2084248261    -0.3682951327
   22      S       4.4530998543    -1.6928746443    -1.1506667083
   23      C       5.1717633546     0.3766475159     0.1144519333
   24      C       6.1184623281    -1.5257919344    -0.8118249038
   25      S       5.5049483532     1.8296879169     1.0150627761
   26      C       6.3650039456    -0.3662504857    -0.1313506702
   27      C       7.2086149995     1.4287891478     1.0472919125
   28      C       7.5248384085     0.2817022976     0.4256521498
   29      H      -9.3670734244     0.9119448809    -0.0589043505
   30      H      -8.0502997300     1.8303269075    -1.9405665496
   31      H      -8.2079561918    -0.2184630769     1.8101533913
   32      H      -5.5991447193     1.6249110605    -1.9453945303
   33      H      -5.7605052108    -0.4224111288     1.8045075379
   34      H      -3.7093322624     2.5543773903    -0.5530072001
   35      H       2.8879130860     2.4325216060    -0.3133469091
   36      H       6.8161727624    -2.2836730674    -1.1235386401
   37      H       7.8835800647     2.1025745540     1.5495035804
   38      H       8.5292393579    -0.1064914619     0.3598147936
 ----------------------------------------------------------------

    9   -2579.8582413184      6.52E-09 Convergence criterion met
 Total energy in the final basis set = -2579.8582413184
 Final energy is   -2579.85824131836
 **  OPTIMIZATION CONVERGED  **

                    Orbital Energies (a.u.)
 --------------------------------------------------------------

 Alpha MOs
 -- Occupied --
-89.155 -89.091 -89.089 -89.078 -14.493 -14.487 -14.449 -14.441
-10.364 -10.362 -10.360 -10.358 -10.343 -10.341 -10.334 -10.333
-10.330 -10.327 -10.324 -10.322 -10.313 -10.312 -10.305 -10.297
-10.296 -10.296 -10.295 -10.295  -8.165  -8.105  -8.104  -8.093
 -6.115  -6.110  -6.109  -6.055  -6.053  -6.051  -6.050  -6.048
 -6.047  -6.043  -6.039  -6.035  -1.151  -1.085  -1.060  -1.023
 -1.016  -0.975  -0.959  -0.926  -0.917  -0.903  -0.875  -0.860
 -0.856  -0.834  -0.829  -0.802  -0.776  -0.745  -0.736  -0.713
 -0.707  -0.693  -0.691  -0.660  -0.653  -0.637  -0.626  -0.616
 -0.606  -0.598  -0.576  -0.565  -0.561  -0.547  -0.540  -0.531
 -0.529  -0.526  -0.515  -0.514  -0.511  -0.501  -0.499  -0.486
 -0.480  -0.476  -0.470  -0.458  -0.449  -0.441  -0.437  -0.435
 -0.432  -0.424  -0.421  -0.403  -0.392  -0.373  -0.364  -0.363
 -0.359  -0.352  -0.340  -0.338  -0.324  -0.308  -0.272

          Ground-State Mulliken Net Atomic Charges

     Atom                 Charge (a.u.)
  ----------------------------------------
      1 C                    -0.124851
      2 C                    -0.108618
      3 C                    -0.109679
      4 C                    -0.151733
      5 C                    -0.122332
      6 C                     0.122067
      7 C                     0.009017
      8 C                    -0.102694
      9 C                     0.033756
     10 N                    -0.120841
     11 N                    -0.276771
     12 C                     0.017185
     13 C                     0.071307
     14 S                     0.412896
     15 N                    -0.283131
     16 C                    -0.008034
     17 N                    -0.129362
     18 S                     0.117676
     19 C                    -0.144370
     20 C                    -0.019337
     21 C                     0.005677
     22 S                     0.132214
     23 C                    -0.052168
     24 C                    -0.221522
     25 S                     0.057680
     26 C                     0.044007
     27 C                    -0.145115
     28 C                    -0.172948
     29 H                     0.118571
     30 H                     0.115596
     31 H                     0.116065
     32 H                     0.130392
     33 H                     0.114015
     34 H                     0.137841
     35 H                     0.146960
     36 H                     0.130011
     37 H                     0.132781
     38 H                     0.127792
  ----------------------------------------
  Sum of atomic charges =     0.000000

                    Cartesian Multipole Moments
 -----------------------------------------------------------------
    Charge (ESU x 10^10)
                 0.0000
    Dipole Moment (Debye)
         X       0.7537      Y      -2.0739      Z       0.2687
       Tot       2.2230
    Quadrupole Moments (Debye-Ang)
        XX    -138.1297     XY      -3.3440     YY    -183.9597
        XZ       0.9988     YZ      -0.3093     ZZ    -183.5644

 Total job time:  4600.35s(wall), 68872.43s(cpu)
        *  Thank you very much for using Q-Chem.  Have a nice day.  *
