 Q-Chem 4.4, Q-Chem, Inc., Pleasanton, CA (2016)
 Q-Chem 4.4.2 for Intel X86 Linux

User input:
--------------------------------------------------------------
$comment
OPTIMIZATION
$end

$rem
JOBTYPE OPT
EXCHANGE omegaB97X-D
BASIS cc-pVTZ
$end

$molecule
0 1
C          0.00000        0.00000        0.00000
C          1.38599        0.00000        0.00000
C         -0.68515       -1.20581        0.00000
C          2.08055       -1.19709        0.02226
C          0.00742       -2.40411        0.01179
C          1.40063       -2.41271        0.04151
C          2.15950       -3.67324        0.15696
C          3.15000       -3.81753        1.08952
C          1.92849       -4.81544       -0.65861
N          3.90172       -4.92812        1.27968
N          1.02636       -4.93526       -1.63501
C          2.72047       -5.99481       -0.47371
C          3.72589       -5.99344        0.54686
S          1.20518       -6.42345       -2.22449
N          2.39935       -6.98227       -1.31015
C          4.58521       -7.13898        0.84639
N          4.57688       -8.28560        0.24217
S          5.75239       -7.00048        2.12872
C          5.49987       -9.12397        0.77774
C          6.24043       -8.62520        1.81465
C          7.30975       -9.28427        2.53226
S          7.65811       -8.95031        4.19564
C          8.18660      -10.23002        2.07693
C          8.96652      -10.04842        4.25239
S          8.44792      -11.00121        0.53500
C          9.13646      -10.66901        3.04601
C          9.80826      -11.88188        1.20142
C         10.05726      -11.63061        2.49609
H         -0.54342        0.93472        0.00000
H          1.93260        0.93382       -0.01501
H         -1.76734       -1.21268        0.00047
H          3.16263       -1.19509        0.00785
H         -0.53593       -3.33924        0.01382
H          3.36185       -2.99842        1.76492
H          5.59970      -10.12688        0.38949
H          9.54068      -10.17097        5.15381
H         10.35359      -12.54298        0.54762
H         10.86657      -12.08630        3.04459
$end

$opt
CONSTRAINT
tors 4 6 7 8 47.06187
tors 10 13 16 18 0.00000
tors 18 20 21 22 32.71647
ENDCONSTRAINT
$end
--------------------------------------------------------------

   16   -2579.8620765568      4.67E-09 Convergence criterion met
 Total energy in the final basis set = -2579.8620765568
   12   -2579.8623220173      4.74E-09 Convergence criterion met
 Total energy in the final basis set = -2579.8623220173
   11   -2579.8624097992      9.85E-09 Convergence criterion met
 Total energy in the final basis set = -2579.8624097992
   10   -2579.8624270370      8.94E-09 Convergence criterion met
 Total energy in the final basis set = -2579.8624270370
   10   -2579.8624356486      8.89E-09 Convergence criterion met
 Total energy in the final basis set = -2579.8624356486
   10   -2579.8624384396      6.22E-09 Convergence criterion met
 Total energy in the final basis set = -2579.8624384396
   10   -2579.8624396530      4.82E-09 Convergence criterion met
 Total energy in the final basis set = -2579.8624396530

             Standard Nuclear Orientation (Angstroms)
    I     Atom           X                Y                Z
 ----------------------------------------------------------------
    1      C      -8.0182599947     1.5905976755    -0.3194536903
    2      C      -7.1086890563     2.0988951475    -1.2330363350
    3      C      -7.5901538006     0.6979527411     0.6519204250
    4      C      -5.7774578724     1.7208843651    -1.1713985451
    5      C      -6.2611145924     0.3170773892     0.7134325374
    6      C      -5.3362559406     0.8343635978    -0.1914717783
    7      C      -3.9109724327     0.4596704933    -0.1189499389
    8      C      -2.9147906092     1.3946920280    -0.1791164516
    9      C      -3.4664205000    -0.8832087588     0.0450131548
   10      N      -1.5850622084     1.1392381124    -0.1088570383
   11      N      -4.2284764554    -1.9766327246     0.1213660375
   12      C      -2.0654908741    -1.1689277250     0.1252835787
   13      C      -1.1405414924    -0.0780048900     0.0443362263
   14      S      -3.2153264465    -3.2178915500     0.2819161638
   15      N      -1.7978914695    -2.4678581520     0.2625864394
   16      C       0.3110908451    -0.2373177445     0.1262062317
   17      N       0.9537250626    -1.3514007459     0.2929863107
   18      S       1.3206154322     1.1734288098     0.0163032240
   19      C       2.2915596202    -1.1378943510     0.3540157983
   20      C       2.7013088029     0.1624390051     0.2331250250
   21      C       4.0605112281     0.6573935087     0.2302407362
   22      S       4.4783359226     2.2290033594     0.8215175863
   23      C       5.2040257205     0.0133791118    -0.1613799199
   24      C       6.1458436151     2.0182468651     0.5210654912
   25      S       5.5453313780    -1.5505820736    -0.8483523624
   26      C       6.3960066685     0.7809762084    -0.0032466272
   27      C       7.2506046787    -1.1597136879    -0.9117446090
   28      C       7.5614083227     0.0619335224    -0.4502729976
   29      H      -9.0581800314     1.8835720699    -0.3678627898
   30      H      -7.4344736551     2.7873817659    -2.0006136120
   31      H      -8.2956995264     0.2963941508     1.3663296741
   32      H      -5.0731271724     2.1030973502    -1.8984757233
   33      H      -5.9370906036    -0.3840097565     1.4689392208
   34      H      -3.1709699017     2.4418119189    -0.2808720384
   35      H       2.9564649358    -1.9736445961     0.5136013478
   36      H       6.8429342357     2.8078173677     0.7425348391
   37      H       7.9324137270    -1.8986019850    -1.3004110217
   38      H       8.5659836828     0.4541793414    -0.4223524073
 ----------------------------------------------------------------

    8   -2579.8624399223      5.53E-09 Convergence criterion met
 Total energy in the final basis set = -2579.8624399223
 Final energy is   -2579.86243992229
 **  OPTIMIZATION CONVERGED  **

                    Orbital Energies (a.u.)
 --------------------------------------------------------------

 Alpha MOs
 -- Occupied --
-89.149 -89.090 -89.086 -89.078 -14.485 -14.481 -14.453 -14.443
-10.365 -10.362 -10.357 -10.355 -10.343 -10.342 -10.335 -10.333
-10.330 -10.327 -10.324 -10.322 -10.313 -10.311 -10.305 -10.297
-10.296 -10.295 -10.295 -10.294  -8.159  -8.105  -8.101  -8.093
 -6.109  -6.103  -6.103  -6.054  -6.051  -6.050  -6.048  -6.047
 -6.044  -6.043  -6.039  -6.035  -1.146  -1.086  -1.064  -1.023
 -1.010  -0.974  -0.959  -0.925  -0.919  -0.898  -0.876  -0.860
 -0.855  -0.833  -0.828  -0.802  -0.775  -0.744  -0.734  -0.712
 -0.705  -0.693  -0.691  -0.660  -0.651  -0.637  -0.626  -0.614
 -0.606  -0.598  -0.571  -0.564  -0.556  -0.548  -0.542  -0.531
 -0.530  -0.524  -0.514  -0.514  -0.507  -0.504  -0.498  -0.486
 -0.478  -0.475  -0.469  -0.455  -0.449  -0.440  -0.436  -0.433
 -0.430  -0.423  -0.421  -0.399  -0.393  -0.374  -0.368  -0.362
 -0.359  -0.353  -0.339  -0.338  -0.324  -0.306  -0.272

          Ground-State Mulliken Net Atomic Charges

     Atom                 Charge (a.u.)
  ----------------------------------------
      1 C                    -0.124460
      2 C                    -0.108963
      3 C                    -0.109731
      4 C                    -0.152134
      5 C                    -0.120482
      6 C                     0.121259
      7 C                     0.015128
      8 C                    -0.108787
      9 C                     0.032907
     10 N                    -0.174493
     11 N                    -0.280883
     12 C                    -0.014367
     13 C                     0.109692
     14 S                     0.412148
     15 N                    -0.222284
     16 C                    -0.008916
     17 N                    -0.137411
     18 S                     0.121043
     19 C                    -0.146302
     20 C                    -0.014620
     21 C                     0.004516
     22 S                     0.134490
     23 C                    -0.053633
     24 C                    -0.220944
     25 S                     0.057438
     26 C                     0.044330
     27 C                    -0.146370
     28 C                    -0.172133
     29 H                     0.118016
     30 H                     0.115283
     31 H                     0.115642
     32 H                     0.128405
     33 H                     0.114372
     34 H                     0.135955
     35 H                     0.145608
     36 H                     0.129932
     37 H                     0.132830
     38 H                     0.127919
  ----------------------------------------
  Sum of atomic charges =     0.000000

                    Cartesian Multipole Moments
 -----------------------------------------------------------------
    Charge (ESU x 10^10)
                 0.0000
    Dipole Moment (Debye)
         X       0.7994      Y       0.9084      Z      -0.0931
       Tot       1.2137
    Quadrupole Moments (Debye-Ang)
        XX    -139.6394     XY      -0.1779     YY    -178.9487
        XZ      -2.0338     YZ      -1.3506     ZZ    -185.5923

 Total job time:  5714.58s(wall), 85541.31s(cpu)
        *  Thank you very much for using Q-Chem.  Have a nice day.  *
