 Q-Chem 4.4, Q-Chem, Inc., Pleasanton, CA (2016)
 Q-Chem 4.4.2 for Intel X86 Linux

User input:
--------------------------------------------------------------
$comment
OPTIMIZATION
$end

$rem
JOBTYPE OPT
EXCHANGE omegaB97X-D
BASIS cc-pVTZ
$end

$molecule
0 1
C          0.00000        0.00000        0.00000
C          1.38599        0.00000        0.00000
C         -0.68515       -1.20581        0.00000
C          2.08055       -1.19709        0.02226
C          0.00742       -2.40411        0.01179
C          1.40063       -2.41271        0.04151
C          2.15950       -3.67324        0.15696
C          3.15000       -3.81753        1.08952
C          1.92849       -4.81544       -0.65861
N          3.90172       -4.92812        1.27968
N          1.02636       -4.93526       -1.63501
C          2.72047       -5.99481       -0.47371
C          3.72589       -5.99344        0.54686
S          1.20518       -6.42345       -2.22449
N          2.39935       -6.98227       -1.31015
C          4.58521       -7.13898        0.84639
N          5.78942       -7.09327        1.32353
S          3.97847       -8.74285        0.55427
C          6.30009       -8.34147        1.47465
C          5.48313       -9.37724        1.11115
C          5.75862      -10.79410        1.20799
S          5.08245      -11.95064        0.11031
C          6.54826      -11.44985        2.11192
C          5.83695      -13.27850        0.87743
S          7.48862      -10.94768        3.49182
C          6.59689      -12.86432        1.93588
C          7.92085      -12.61577        3.80945
C          7.40780      -13.50161        2.94149
H         -0.54342        0.93472        0.00000
H          1.93260        0.93382       -0.01501
H         -1.76734       -1.21268        0.00047
H          3.16263       -1.19509        0.00785
H         -0.53593       -3.33924        0.01382
H          3.36185       -2.99842        1.76492
H          7.30614       -8.46559        1.84747
H          5.67644      -14.28092        0.52158
H          8.54393      -12.82415        4.66399
H          7.57399      -14.56516        3.01031
$end

$opt
CONSTRAINT
tors 4 6 7 8 47.06187
tors 10 13 16 18 150.00000
tors 18 20 21 22 32.71647
ENDCONSTRAINT
$end
--------------------------------------------------------------

   16   -2579.8559937628      4.25E-09 Convergence criterion met
 Total energy in the final basis set = -2579.8559937628
   12   -2579.8572737449      6.60E-09 Convergence criterion met
 Total energy in the final basis set = -2579.8572737449
   12   -2579.8575176808      4.08E-09 Convergence criterion met
 Total energy in the final basis set = -2579.8575176808
   11   -2579.8575658324      5.44E-09 Convergence criterion met
 Total energy in the final basis set = -2579.8575658324
   10   -2579.8575806630      7.58E-09 Convergence criterion met
 Total energy in the final basis set = -2579.8575806630
    9   -2579.8575835821      7.39E-09 Convergence criterion met
 Total energy in the final basis set = -2579.8575835821

             Standard Nuclear Orientation (Angstroms)
    I     Atom           X                Y                Z
 ----------------------------------------------------------------
    1      C      -8.2154136829     1.0341710118     0.4663922766
    2      C      -7.5217695620     1.7918173161    -0.4637211738
    3      C      -7.5353749056     0.1068509317     1.2417487786
    4      C      -6.1546429309     1.6274082617    -0.6128619311
    5      C      -6.1700254364    -0.0608877639     1.0921777879
    6      C      -5.4615672325     0.7065665853     0.1696612335
    7      C      -4.0015833330     0.5580941566     0.0170037100
    8      C      -3.1631989980     1.6386770144    -0.0255152207
    9      C      -3.3530861920    -0.7056320106    -0.0728093290
   10      N      -1.8116914786     1.6023052156    -0.1570515325
   11      N      -3.9193223056    -1.9147625007    -0.0570199365
   12      C      -1.9328327032    -0.7580771483    -0.2156545762
   13      C      -1.1886035721     0.4639114295    -0.2619649247
   14      S      -2.7231533032    -2.9798486329    -0.2072878101
   15      N      -1.4528548929    -1.9988074033    -0.3037150318
   16      C       0.2762660897     0.4922623074    -0.4034323936
   17      N       0.9185205111     1.5052410128    -0.9026451040
   18      S       1.3018790342    -0.7801769224     0.1807495390
   19      C       2.2580504455     1.3080064140    -0.8589402955
   20      C       2.6809755199     0.1312873284    -0.3033270163
   21      C       4.0405212448    -0.3190283364    -0.0972315795
   22      S       4.4814121636    -1.9917791101    -0.1418141782
   23      C       5.1657560308     0.4296829654     0.1218391894
   24      C       6.1336481810    -1.6761027908     0.1526951087
   25      S       5.4765934335     2.1346406282     0.2980071300
   26      C       6.3622584333    -0.3337073800     0.2683525377
   27      C       7.1745606731     1.8049474864     0.5650992472
   28      C       7.5053045034     0.5044327549     0.5251538007
   29      H      -9.2828185801     1.1620492754     0.5841757718
   30      H      -8.0476977693     2.5069247414    -1.0811626343
   31      H      -8.0724711854    -0.4899873268     1.9660462843
   32      H      -5.6177676878     2.2074920432    -1.3517380060
   33      H      -5.6463745552    -0.7869166960     1.6972447010
   34      H      -3.5800919048     2.6340279894     0.0669944624
   35      H       2.9179811186     2.0568940246    -1.2711432751
   36      H       6.8362866877    -2.4876168456     0.2311569732
   37      H       7.8382834772     2.6358690843     0.7404894570
   38      H       8.5096025733     0.1382892848     0.6706144011
 ----------------------------------------------------------------

    9   -2579.8575843306      3.94E-09 Convergence criterion met
 Total energy in the final basis set = -2579.8575843306
 Final energy is   -2579.85758433057
 **  OPTIMIZATION CONVERGED  **

                    Orbital Energies (a.u.)
 --------------------------------------------------------------

 Alpha MOs
 -- Occupied --
-89.155 -89.091 -89.090 -89.078 -14.492 -14.487 -14.449 -14.441
-10.364 -10.363 -10.360 -10.358 -10.343 -10.342 -10.334 -10.333
-10.330 -10.327 -10.325 -10.322 -10.313 -10.312 -10.305 -10.297
-10.296 -10.296 -10.295 -10.295  -8.165  -8.105  -8.105  -8.093
 -6.115  -6.109  -6.109  -6.055  -6.054  -6.051  -6.050  -6.048
 -6.048  -6.043  -6.039  -6.035  -1.151  -1.086  -1.061  -1.023
 -1.015  -0.975  -0.959  -0.926  -0.918  -0.903  -0.876  -0.860
 -0.856  -0.834  -0.829  -0.802  -0.776  -0.745  -0.736  -0.713
 -0.707  -0.693  -0.691  -0.660  -0.653  -0.637  -0.627  -0.616
 -0.607  -0.598  -0.575  -0.565  -0.562  -0.546  -0.541  -0.531
 -0.530  -0.523  -0.516  -0.514  -0.513  -0.500  -0.496  -0.487
 -0.480  -0.476  -0.469  -0.458  -0.450  -0.440  -0.436  -0.435
 -0.433  -0.424  -0.422  -0.404  -0.393  -0.373  -0.363  -0.361
 -0.361  -0.355  -0.339  -0.338  -0.324  -0.308  -0.273

          Ground-State Mulliken Net Atomic Charges

     Atom                 Charge (a.u.)
  ----------------------------------------
      1 C                    -0.123234
      2 C                    -0.108935
      3 C                    -0.109534
      4 C                    -0.150183
      5 C                    -0.122343
      6 C                     0.119033
      7 C                     0.012664
      8 C                    -0.101433
      9 C                     0.033239
     10 N                    -0.122567
     11 N                    -0.277147
     12 C                     0.012173
     13 C                     0.067805
     14 S                     0.414368
     15 N                    -0.278608
     16 C                    -0.005636
     17 N                    -0.130317
     18 S                     0.121027
     19 C                    -0.144865
     20 C                    -0.016612
     21 C                    -0.000771
     22 S                     0.132236
     23 C                    -0.051874
     24 C                    -0.221669
     25 S                     0.058803
     26 C                     0.043497
     27 C                    -0.145846
     28 C                    -0.172723
     29 H                     0.117727
     30 H                     0.116018
     31 H                     0.115244
     32 H                     0.130052
     33 H                     0.113763
     34 H                     0.137945
     35 H                     0.146720
     36 H                     0.130866
     37 H                     0.132997
     38 H                     0.128121
  ----------------------------------------
  Sum of atomic charges =     0.000000

                    Cartesian Multipole Moments
 -----------------------------------------------------------------
    Charge (ESU x 10^10)
                 0.0000
    Dipole Moment (Debye)
         X       0.7343      Y      -1.8513      Z       0.8592
       Tot       2.1690
    Quadrupole Moments (Debye-Ang)
        XX    -138.5452     XY      -2.9903     YY    -179.4002
        XZ       1.4382     YZ      -2.2039     ZZ    -187.5990

 Total job time:  5164.32s(wall), 77356.03s(cpu)
        *  Thank you very much for using Q-Chem.  Have a nice day.  *
