 Q-Chem 4.4, Q-Chem, Inc., Pleasanton, CA (2016)
 Q-Chem 4.4.2 for Intel X86 Linux

User input:
--------------------------------------------------------------
$comment
OPTIMIZATION
$end

$rem
JOBTYPE OPT
EXCHANGE omegaB97X-D
BASIS cc-pVTZ
$end

$molecule
0 1
C          0.00000        0.00000        0.00000
C          1.38599        0.00000        0.00000
C         -0.68515       -1.20581        0.00000
C          2.08055       -1.19709        0.02226
C          0.00742       -2.40411        0.01179
C          1.40063       -2.41271        0.04151
C          2.15950       -3.67324        0.15696
C          3.15000       -3.81753        1.08952
C          1.92849       -4.81544       -0.65861
N          3.90172       -4.92812        1.27968
N          1.02636       -4.93526       -1.63501
C          2.72047       -5.99481       -0.47371
C          3.72589       -5.99344        0.54686
S          1.20518       -6.42345       -2.22449
N          2.39935       -6.98227       -1.31015
C          4.58521       -7.13898        0.84639
N          5.49714       -7.19694        1.76558
S          4.40438       -8.59237       -0.09212
C          6.11095       -8.40725        1.76569
C          5.67198       -9.30806        0.83391
C          6.11929      -10.67077        0.64494
S          6.10416      -11.44898       -0.90228
C          6.60784      -11.54523        1.57621
C          6.72223      -12.91903       -0.28752
S          6.86533      -11.46566        3.29898
C          6.95024      -12.82892        1.05757
C          7.41393      -13.12977        3.29796
C          7.41699      -13.71706        2.09115
H         -0.54342        0.93472        0.00000
H          1.93260        0.93382       -0.01501
H         -1.76734       -1.21268        0.00047
H          3.16263       -1.19509        0.00785
H         -0.53593       -3.33924        0.01382
H          3.36185       -2.99842        1.76492
H          6.90911       -8.60143        2.46695
H          6.87376      -13.76387       -0.93599
H          7.69572      -13.57127        4.24006
H          7.71717      -14.74039        1.92938
$end

$opt
CONSTRAINT
tors 4 6 7 8 47.06187
tors 10 13 16 18 180.00000
tors 18 20 21 22 32.71647
ENDCONSTRAINT
$end
--------------------------------------------------------------

   16   -2579.8566019075      4.19E-09 Convergence criterion met
 Total energy in the final basis set = -2579.8566019075
   12   -2579.8580187337      8.00E-09 Convergence criterion met
 Total energy in the final basis set = -2579.8580187337
   12   -2579.8583691129      4.80E-09 Convergence criterion met
 Total energy in the final basis set = -2579.8583691129
   11   -2579.8584163270      5.04E-09 Convergence criterion met
 Total energy in the final basis set = -2579.8584163270
   10   -2579.8584307839      7.85E-09 Convergence criterion met
 Total energy in the final basis set = -2579.8584307839
   10   -2579.8584339993      3.68E-09 Convergence criterion met
 Total energy in the final basis set = -2579.8584339993

             Standard Nuclear Orientation (Angstroms)
    I     Atom           X                Y                Z
 ----------------------------------------------------------------
    1      C      -8.2747287168     0.8945482316     0.1357300237
    2      C      -7.5690525651     1.5035062160    -0.8896440060
    3      C      -7.5961668420     0.1569532364     1.0943572024
    4      C      -6.1908573514     1.3783957362    -0.9540069362
    5      C      -6.2198615631     0.0284643253     1.0301778974
    6      C      -5.5001340536     0.6474241421     0.0098784406
    7      C      -4.0303497866     0.5385017255    -0.0544985558
    8      C      -3.2280002219     1.6279495051    -0.2610287694
    9      C      -3.3332438328    -0.6902296094     0.1156969669
   10      N      -1.8730200581     1.6261994103    -0.3303590327
   11      N      -3.8564134096    -1.9007933782     0.3261764975
   12      C      -1.9061305821    -0.7042570294     0.0498513107
   13      C      -1.2006316418     0.5203419530    -0.1821359208
   14      S      -2.6179565856    -2.9221184500     0.4284729617
   15      N      -1.3809374693    -1.9175653467     0.2144443324
   16      C       0.2675862838     0.5899526952    -0.2554524444
   17      N       0.9079316482     1.7038022818    -0.4572054542
   18      S       1.3042367827    -0.7959487696    -0.0779116145
   19      C       2.2455371121     1.5074465136    -0.4920651694
   20      C       2.6742908271     0.2199259901    -0.3140389874
   21      C       4.0372318297    -0.2633361984    -0.2727062355
   22      S       4.4765699974    -1.8529974465    -0.7969006677
   23      C       5.1672749238     0.3990424926     0.1264870613
   24      C       6.1350195961    -1.6237470753    -0.4600346006
   25      S       5.4827917298     1.9864461982     0.7706496880
   26      C       6.3661918512    -0.3677995901     0.0268421448
   27      C       7.1870745758     1.6061904734     0.8937217558
   28      C       7.5158275831     0.3716132127     0.4816120107
   29      H      -9.3507068677     0.9914507684     0.1867811487
   30      H      -8.0925500492     2.0707279720    -1.6469339066
   31      H      -8.1403799701    -0.3219749270     1.8967500312
   32      H      -5.6454813641     1.8394393843    -1.7668397075
   33      H      -5.6968581299    -0.5500377024     1.7779915826
   34      H      -3.6830797485     2.6048572937    -0.3705358302
   35      H       2.9007637947     2.3465409886    -0.6737985064
   36      H       6.8409796080    -2.4161167495    -0.6395279251
   37      H       7.8552004200     2.3605679363     1.2762876189
   38      H       8.5224719839    -0.0160927609     0.4938816609
 ----------------------------------------------------------------

    8   -2579.8584347298      9.77E-09 Convergence criterion met
 Total energy in the final basis set = -2579.8584347298
 Final energy is   -2579.85843472979
 **  OPTIMIZATION CONVERGED  **

                    Orbital Energies (a.u.)
 --------------------------------------------------------------

 Alpha MOs
 -- Occupied --
-89.155 -89.091 -89.089 -89.078 -14.493 -14.488 -14.448 -14.440
-10.364 -10.362 -10.360 -10.358 -10.343 -10.341 -10.334 -10.332
-10.330 -10.327 -10.324 -10.321 -10.313 -10.312 -10.305 -10.297
-10.296 -10.296 -10.295 -10.295  -8.165  -8.105  -8.104  -8.093
 -6.116  -6.110  -6.109  -6.055  -6.053  -6.051  -6.049  -6.048
 -6.047  -6.043  -6.039  -6.035  -1.152  -1.085  -1.060  -1.023
 -1.016  -0.975  -0.959  -0.926  -0.917  -0.903  -0.875  -0.860
 -0.856  -0.833  -0.829  -0.802  -0.776  -0.745  -0.736  -0.713
 -0.707  -0.693  -0.691  -0.660  -0.653  -0.637  -0.626  -0.616
 -0.606  -0.598  -0.576  -0.565  -0.561  -0.546  -0.539  -0.531
 -0.530  -0.525  -0.515  -0.514  -0.513  -0.500  -0.499  -0.486
 -0.480  -0.476  -0.469  -0.459  -0.449  -0.441  -0.437  -0.436
 -0.433  -0.424  -0.420  -0.402  -0.393  -0.374  -0.363  -0.363
 -0.360  -0.352  -0.339  -0.338  -0.324  -0.307  -0.272

          Ground-State Mulliken Net Atomic Charges

     Atom                 Charge (a.u.)
  ----------------------------------------
      1 C                    -0.124808
      2 C                    -0.108049
      3 C                    -0.109830
      4 C                    -0.151609
      5 C                    -0.123188
      6 C                     0.123372
      7 C                     0.008118
      8 C                    -0.103092
      9 C                     0.031185
     10 N                    -0.120892
     11 N                    -0.276457
     12 C                     0.019406
     13 C                     0.076193
     14 S                     0.412093
     15 N                    -0.284862
     16 C                    -0.008513
     17 N                    -0.130079
     18 S                     0.118607
     19 C                    -0.144087
     20 C                    -0.018440
     21 C                     0.004881
     22 S                     0.132078
     23 C                    -0.052889
     24 C                    -0.221374
     25 S                     0.058427
     26 C                     0.043507
     27 C                    -0.146044
     28 C                    -0.172549
     29 H                     0.118422
     30 H                     0.115955
     31 H                     0.115529
     32 H                     0.129919
     33 H                     0.114507
     34 H                     0.137185
     35 H                     0.146435
     36 H                     0.129951
     37 H                     0.132997
     38 H                     0.127995
  ----------------------------------------
  Sum of atomic charges =     0.000000

                    Cartesian Multipole Moments
 -----------------------------------------------------------------
    Charge (ESU x 10^10)
                 0.0000
    Dipole Moment (Debye)
         X       0.7517      Y      -2.0322      Z       0.4873
       Tot       2.2209
    Quadrupole Moments (Debye-Ang)
        XX    -138.2448     XY      -3.2250     YY    -182.1135
        XZ       1.1121     YZ      -0.8908     ZZ    -185.2672

 Total job time:  5228.51s(wall), 78317.78s(cpu)
        *  Thank you very much for using Q-Chem.  Have a nice day.  *
