 Q-Chem 4.4, Q-Chem, Inc., Pleasanton, CA (2016)
 Q-Chem 4.4.2 for Intel X86 Linux

User input:
--------------------------------------------------------------
$comment
OPTIMIZATION
$end

$rem
JOBTYPE OPT
EXCHANGE omegaB97X-D
BASIS cc-pVTZ
$end

$molecule
0 1
C          0.00000        0.00000        0.00000
C          1.38599        0.00000        0.00000
C         -0.68515       -1.20581        0.00000
C          2.08055       -1.19709        0.02226
C          0.00742       -2.40411        0.01179
C          1.40063       -2.41271        0.04151
C          2.15950       -3.67324        0.15696
C          3.15000       -3.81753        1.08952
C          1.92849       -4.81544       -0.65861
N          3.90172       -4.92812        1.27968
N          1.02636       -4.93526       -1.63501
C          2.72047       -5.99481       -0.47371
C          3.72589       -5.99344        0.54686
S          1.20518       -6.42345       -2.22449
N          2.39935       -6.98227       -1.31015
C          4.58521       -7.13898        0.84639
N          4.19392       -8.31931        1.21192
S          6.30948       -6.95312        0.71160
C          5.25414       -9.14189        1.41420
C          6.49138       -8.59688        1.20306
C          7.77494       -9.25642        1.30417
S          9.21959       -8.41616        1.75880
C          8.07827      -10.57143        1.08197
C         10.19919       -9.81037        1.62640
S          7.15632      -11.96060        0.57129
C          9.45557      -10.89707        1.25833
C          8.60948      -12.93934        0.59637
C          9.71946      -12.28330        0.96902
H         -0.54342        0.93472        0.00000
H          1.93260        0.93382       -0.01501
H         -1.76734       -1.21268        0.00047
H          3.16263       -1.19509        0.00785
H         -0.53593       -3.33924        0.01382
H          3.36185       -2.99842        1.76492
H          5.08745      -10.15781        1.74078
H         11.25721       -9.75678        1.81335
H          8.52836      -13.97480        0.30805
H         10.69262      -12.74539        1.02296
$end

$opt
CONSTRAINT
tors 4 6 7 8 47.06187
tors 10 13 16 18 -60.00000
tors 18 20 21 22 32.71647
ENDCONSTRAINT
$end
--------------------------------------------------------------

   16   -2579.8555190340      4.48E-09 Convergence criterion met
 Total energy in the final basis set = -2579.8555190340
   13   -2579.8567638401      4.57E-09 Convergence criterion met
 Total energy in the final basis set = -2579.8567638401
   12   -2579.8570002842      7.61E-09 Convergence criterion met
 Total energy in the final basis set = -2579.8570002842
   11   -2579.8570466239      7.90E-09 Convergence criterion met
 Total energy in the final basis set = -2579.8570466239
   10   -2579.8570589661      7.00E-09 Convergence criterion met
 Total energy in the final basis set = -2579.8570589661

             Standard Nuclear Orientation (Angstroms)
    I     Atom           X                Y                Z
 ----------------------------------------------------------------
    1      C       8.1829538844     1.1110688421    -0.0152211954
    2      C       7.3155892829     2.0401338667     0.5368202048
    3      C       7.6755595498    -0.0353044709    -0.6086321206
    4      C       5.9479274133     1.8261489400     0.4906981999
    5      C       6.3095222532    -0.2515447265    -0.6544202342
    6      C       5.4291478273     0.6840468521    -0.1147691507
    7      C       3.9689581243     0.4764516439    -0.1726758891
    8      C       3.1139753134     1.4678117929    -0.5669083204
    9      C       3.3482030131    -0.7635234823     0.1554115164
   10      N       1.7581447759     1.3675128350    -0.6576897284
   11      N       3.9380724054    -1.8823780009     0.5838762298
   12      C       1.9286764900    -0.8815007195     0.0657329357
   13      C       1.1664222397     0.2485720425    -0.3596395416
   14      S       2.7542453395    -2.9438138807     0.8381907018
   15      N       1.4652071033    -2.0761233394     0.4351507331
   16      C      -0.2976030066     0.1572617876    -0.5127601227
   17      N      -0.8979655822    -0.7333963830    -1.2359684062
   18      S      -1.3513535806     1.2074064906     0.3689200636
   19      C      -2.2492046969    -0.5897123197    -1.1569729565
   20      C      -2.7060971612     0.4036221849    -0.3382752140
   21      C      -4.0799638675     0.7468180311    -0.0381740404
   22      S      -4.5754113242     2.3623341993     0.3310327710
   23      C      -5.1790749438    -0.0685054891    -0.0206136659
   24      C      -6.2171789546     1.9309816995     0.5231157804
   25      S      -5.4307950399    -1.7730110070    -0.2744749206
   26      C      -6.4008894768     0.5951019030     0.2998476367
   27      C      -7.1395965103    -1.5763925508     0.0486731322
   28      C      -7.5149683213    -0.3179601668     0.3284824299
   29      H       9.2511446062     1.2755760071     0.0235026819
   30      H       7.7045804914     2.9310240597     1.0104295523
   31      H       8.3479425566    -0.7661669374    -1.0365626193
   32      H       5.2737855458     2.5430148609     0.9405141848
   33      H       5.9198148916    -1.1500611141    -1.1108594809
   34      H       3.5144033515     2.4297267096    -0.8607313460
   35      H      -2.8850983003    -1.2349552297    -1.7442736229
   36      H      -6.9465833597     2.6771662380     0.7866974966
   37      H      -7.7723426053    -2.4479444716     0.0049258147
   38      H      -8.5319066386    -0.0344173710     0.5505354116
 ----------------------------------------------------------------

    9   -2579.8570615542      5.80E-09 Convergence criterion met
 Total energy in the final basis set = -2579.8570615542
 Final energy is   -2579.85706155416
 **  OPTIMIZATION CONVERGED  **

                    Orbital Energies (a.u.)
 --------------------------------------------------------------

 Alpha MOs
 -- Occupied --
-89.152 -89.090 -89.090 -89.078 -14.488 -14.484 -14.455 -14.444
-10.364 -10.363 -10.358 -10.355 -10.343 -10.342 -10.335 -10.332
-10.330 -10.326 -10.326 -10.323 -10.313 -10.312 -10.305 -10.298
-10.296 -10.296 -10.296 -10.295  -8.162  -8.105  -8.105  -8.093
 -6.112  -6.106  -6.106  -6.054  -6.054  -6.051  -6.050  -6.048
 -6.048  -6.042  -6.039  -6.034  -1.148  -1.086  -1.064  -1.023
 -1.012  -0.975  -0.958  -0.925  -0.921  -0.900  -0.877  -0.860
 -0.856  -0.834  -0.828  -0.802  -0.775  -0.745  -0.736  -0.712
 -0.707  -0.694  -0.691  -0.661  -0.651  -0.636  -0.631  -0.616
 -0.607  -0.598  -0.575  -0.565  -0.559  -0.549  -0.543  -0.530
 -0.529  -0.522  -0.516  -0.515  -0.506  -0.505  -0.494  -0.488
 -0.479  -0.476  -0.469  -0.455  -0.450  -0.438  -0.437  -0.434
 -0.431  -0.423  -0.422  -0.402  -0.391  -0.373  -0.372  -0.363
 -0.358  -0.354  -0.340  -0.336  -0.324  -0.313  -0.275

          Ground-State Mulliken Net Atomic Charges

     Atom                 Charge (a.u.)
  ----------------------------------------
      1 C                    -0.124200
      2 C                    -0.109174
      3 C                    -0.108539
      4 C                    -0.150421
      5 C                    -0.121268
      6 C                     0.119595
      7 C                     0.016907
      8 C                    -0.105891
      9 C                     0.029533
     10 N                    -0.155973
     11 N                    -0.279910
     12 C                    -0.004452
     13 C                     0.075028
     14 S                     0.414724
     15 N                    -0.237967
     16 C                     0.043587
     17 N                    -0.155692
     18 S                     0.113276
     19 C                    -0.148353
     20 C                    -0.016330
     21 C                    -0.000547
     22 S                     0.132320
     23 C                    -0.051465
     24 C                    -0.220796
     25 S                     0.056988
     26 C                     0.043012
     27 C                    -0.146102
     28 C                    -0.172755
     29 H                     0.118307
     30 H                     0.115299
     31 H                     0.116047
     32 H                     0.128417
     33 H                     0.114952
     34 H                     0.136316
     35 H                     0.145198
     36 H                     0.129578
     37 H                     0.133002
     38 H                     0.127750
  ----------------------------------------
  Sum of atomic charges =     0.000000

                    Cartesian Multipole Moments
 -----------------------------------------------------------------
    Charge (ESU x 10^10)
                 0.0000
    Dipole Moment (Debye)
         X      -0.6328      Y       0.2629      Z       1.2712
       Tot       1.4441
    Quadrupole Moments (Debye-Ang)
        XX    -138.4475     XY       1.2016     YY    -175.9169
        XZ      -3.2660     YZ       4.0647     ZZ    -190.1134

 Total job time:  4592.91s(wall), 68623.88s(cpu)
        *  Thank you very much for using Q-Chem.  Have a nice day.  *
