 Q-Chem 4.4, Q-Chem, Inc., Pleasanton, CA (2016)
 Q-Chem 4.4.2 for Intel X86 Linux

User input:
--------------------------------------------------------------
$comment
OPTIMIZATION
$end

$rem
JOBTYPE OPT
EXCHANGE omegaB97X-D
BASIS cc-pVTZ
$end

$molecule
0 1
C          0.00000        0.00000        0.00000
C          1.38599        0.00000        0.00000
C         -0.68515       -1.20581        0.00000
C          2.08055       -1.19709        0.02226
C          0.00742       -2.40411        0.01179
C          1.40063       -2.41271        0.04151
C          2.15950       -3.67324        0.15696
C          3.15000       -3.81753        1.08952
C          1.92849       -4.81544       -0.65861
N          3.90172       -4.92812        1.27968
N          1.02636       -4.93526       -1.63501
C          2.72047       -5.99481       -0.47371
C          3.72589       -5.99344        0.54686
S          1.20518       -6.42345       -2.22449
N          2.39935       -6.98227       -1.31015
C          4.58521       -7.13898        0.84639
N          4.28460       -8.38927        0.68422
S          6.17829       -6.85000        1.48232
C          5.31073       -9.18975        1.06878
C          6.42929       -8.55603        1.53741
C          7.67041       -9.16095        1.96921
S          8.67982       -8.44865        3.18306
C          8.24617      -10.32540        1.54122
C          9.85180       -9.68894        3.08744
S          7.82463      -11.51919        0.34216
C          9.48980      -10.63362        2.16770
C          9.30135      -12.39588        0.68993
C         10.06645      -11.84605        1.64576
H         -0.54342        0.93472        0.00000
H          1.93260        0.93382       -0.01501
H         -1.76734       -1.21268        0.00047
H          3.16263       -1.19509        0.00785
H         -0.53593       -3.33924        0.01382
H          3.36185       -2.99842        1.76492
H          5.20267      -10.26273        1.00897
H         10.73800       -9.65393        3.69624
H          9.50538      -13.29010        0.12369
H         11.00975      -12.26153        1.96366
$end

$opt
CONSTRAINT
tors 4 6 7 8 47.06187
tors 10 13 16 18 -30.00000
tors 18 20 21 22 32.71647
ENDCONSTRAINT
$end
--------------------------------------------------------------

   16   -2579.8602359366      4.50E-09 Convergence criterion met
 Total energy in the final basis set = -2579.8602359366
   12   -2579.8606675214      7.09E-09 Convergence criterion met
 Total energy in the final basis set = -2579.8606675214
   11   -2579.8607814039      8.11E-09 Convergence criterion met
 Total energy in the final basis set = -2579.8607814039
   11   -2579.8608087889      6.30E-09 Convergence criterion met
 Total energy in the final basis set = -2579.8608087889
   10   -2579.8608144239      5.56E-09 Convergence criterion met
 Total energy in the final basis set = -2579.8608144239
    9   -2579.8608161287      7.52E-09 Convergence criterion met
 Total energy in the final basis set = -2579.8608161287

             Standard Nuclear Orientation (Angstroms)
    I     Atom           X                Y                Z
 ----------------------------------------------------------------
    1      C       8.0804716642     1.4343199923     0.1884103349
    2      C       7.1531667874     2.1401896111     0.9379847127
    3      C       7.6556763901     0.4003088328    -0.6325470333
    4      C       5.8084228207     1.8164754501     0.8633828772
    5      C       6.3128261918     0.0733597237    -0.7058584922
    6      C       5.3715950198     0.7859404731     0.0340419718
    7      C       3.9337581984     0.4640097336    -0.0472281022
    8      C       2.9848229577     1.4350212349    -0.2087115711
    9      C       3.4290981608    -0.8657648094     0.0295328679
   10      N       1.6452746749     1.2304814846    -0.2996195641
   11      N       4.1323666774    -1.9858482775     0.2101133177
   12      C       2.0196278796    -1.0965842058    -0.0522326156
   13      C       1.1502806734     0.0263165682    -0.2285400919
   14      S       3.0580755674    -3.1839635018     0.2717785353
   15      N       1.6825559537    -2.3796537661     0.0804991323
   16      C      -0.3026187129    -0.1098997222    -0.3612535109
   17      N      -0.9280565655    -1.1495553339    -0.8186111550
   18      S      -1.3317648144     1.1816037864     0.1680017500
   19      C      -2.2715298989    -0.9538548390    -0.8011877754
   20      C      -2.7016483139     0.2461042586    -0.3039680813
   21      C      -4.0651420272     0.7036045126    -0.1446203234
   22      S      -4.4999303027     2.3736138734    -0.2719736446
   23      C      -5.1973572642    -0.0327365058     0.0809685971
   24      C      -6.1594145047     2.0744642554    -0.0046414525
   25      S      -5.5179589078    -1.7272544289     0.3257789250
   26      C      -6.3947021106     0.7388781343     0.1646854332
   27      C      -7.2211694186    -1.3827884762     0.5358719022
   28      C      -7.5463383812    -0.0845892067     0.4300883321
   29      H       9.1310660446     1.6836872629     0.2489738728
   30      H       7.4756059394     2.9390604916     1.5915636030
   31      H       8.3729868558    -0.1574421194    -1.2187494346
   32      H       5.0904553147     2.3580092349     1.4650098452
   33      H       5.9909930619    -0.7361239928    -1.3450650295
   34      H       3.2913849954     2.4698788743    -0.2951411386
   35      H      -2.9251904927    -1.7220402949    -1.1865553244
   36      H      -6.8609261893     2.8904073240     0.0178736031
   37      H      -7.8916036509    -2.2036891385     0.7316809358
   38      H      -8.5523791359     0.2907663592     0.5343046003
 ----------------------------------------------------------------

    9   -2579.8608166426      5.37E-09 Convergence criterion met
 Total energy in the final basis set = -2579.8608166426
 Final energy is   -2579.86081664258
 **  OPTIMIZATION CONVERGED  **

                    Orbital Energies (a.u.)
 --------------------------------------------------------------

 Alpha MOs
 -- Occupied --
-89.150 -89.090 -89.088 -89.078 -14.486 -14.482 -14.454 -14.444
-10.364 -10.362 -10.357 -10.355 -10.343 -10.342 -10.335 -10.333
-10.330 -10.327 -10.325 -10.323 -10.313 -10.312 -10.305 -10.298
-10.296 -10.296 -10.295 -10.294  -8.160  -8.105  -8.103  -8.093
 -6.110  -6.104  -6.104  -6.054  -6.052  -6.050  -6.049  -6.048
 -6.046  -6.043  -6.039  -6.035  -1.146  -1.086  -1.064  -1.023
 -1.010  -0.975  -0.959  -0.925  -0.920  -0.899  -0.877  -0.860
 -0.856  -0.833  -0.828  -0.802  -0.775  -0.744  -0.735  -0.712
 -0.705  -0.694  -0.691  -0.660  -0.651  -0.637  -0.628  -0.615
 -0.606  -0.598  -0.572  -0.564  -0.557  -0.548  -0.542  -0.531
 -0.530  -0.523  -0.515  -0.514  -0.506  -0.505  -0.495  -0.488
 -0.478  -0.475  -0.469  -0.455  -0.449  -0.439  -0.436  -0.434
 -0.430  -0.423  -0.421  -0.400  -0.391  -0.372  -0.372  -0.362
 -0.358  -0.354  -0.339  -0.337  -0.324  -0.309  -0.273

          Ground-State Mulliken Net Atomic Charges

     Atom                 Charge (a.u.)
  ----------------------------------------
      1 C                    -0.124427
      2 C                    -0.109498
      3 C                    -0.108334
      4 C                    -0.151229
      5 C                    -0.121344
      6 C                     0.119167
      7 C                     0.015364
      8 C                    -0.107802
      9 C                     0.031740
     10 N                    -0.172361
     11 N                    -0.279076
     12 C                    -0.014210
     13 C                     0.100161
     14 S                     0.413703
     15 N                    -0.225898
     16 C                     0.005173
     17 N                    -0.142840
     18 S                     0.122872
     19 C                    -0.145118
     20 C                    -0.017914
     21 C                     0.001579
     22 S                     0.134231
     23 C                    -0.052806
     24 C                    -0.222038
     25 S                     0.057330
     26 C                     0.044008
     27 C                    -0.145916
     28 C                    -0.172287
     29 H                     0.118125
     30 H                     0.115407
     31 H                     0.115523
     32 H                     0.128178
     33 H                     0.115427
     34 H                     0.137213
     35 H                     0.145861
     36 H                     0.131221
     37 H                     0.132646
     38 H                     0.128169
  ----------------------------------------
  Sum of atomic charges =     0.000000

                    Cartesian Multipole Moments
 -----------------------------------------------------------------
    Charge (ESU x 10^10)
                 0.0000
    Dipole Moment (Debye)
         X      -0.7801      Y       0.7085      Z       0.7305
       Tot       1.2822
    Quadrupole Moments (Debye-Ang)
        XX    -139.2856     XY       0.2027     YY    -176.8050
        XZ      -2.8492     YZ       2.7365     ZZ    -188.2658

 Total job time:  5098.86s(wall), 76289.97s(cpu)
        *  Thank you very much for using Q-Chem.  Have a nice day.  *
