 Q-Chem 4.4, Q-Chem, Inc., Pleasanton, CA (2016)
 Q-Chem 4.4.2 for Intel X86 Linux

User input:
--------------------------------------------------------------
$comment
OPTIMIZATION
$end

$rem
JOBTYPE OPT
EXCHANGE omegaB97X-D
BASIS cc-pVTZ
$end

$molecule
0 1
C          0.00000        0.00000        0.00000
C          1.38599        0.00000        0.00000
C         -0.68515       -1.20581        0.00000
C          2.08055       -1.19709        0.02226
C          0.00742       -2.40411        0.01179
C          1.40063       -2.41271        0.04151
C          2.15950       -3.67324        0.15696
C          3.15000       -3.81753        1.08952
C          1.92849       -4.81544       -0.65861
N          3.90172       -4.92812        1.27968
N          1.02636       -4.93526       -1.63501
C          2.72047       -5.99481       -0.47371
C          3.72589       -5.99344        0.54686
S          1.20518       -6.42345       -2.22449
N          2.39935       -6.98227       -1.31015
C          4.58521       -7.13898        0.84639
N          4.65405       -7.77498        1.97363
S          5.63548       -7.74906       -0.39883
C          5.55968       -8.78353        1.90818
C          6.20715       -8.93831        0.71268
C          7.17971       -9.94967        0.36051
S          8.44261       -9.66549       -0.79016
C          7.28890      -11.22904        0.83161
C          9.07705      -11.24568       -0.64356
S          6.36503      -12.19283        1.95329
C          8.36246      -11.97703        0.26410
C          7.41231      -13.56329        1.64465
C          8.39932      -13.32652        0.76655
H         -0.54342        0.93472        0.00000
H          1.93260        0.93382       -0.01501
H         -1.76734       -1.21268        0.00047
H          3.16263       -1.19509        0.00785
H         -0.53593       -3.33924        0.01382
H          3.36185       -2.99842        1.76492
H          5.74216       -9.39508        2.77952
H          9.92376      -11.55323       -1.23155
H          7.19943      -14.48895        2.15427
H          9.11792      -14.07244        0.46535
$end

$opt
CONSTRAINT
tors 4 6 7 8 47.06187
tors 10 13 16 18 -120.00000
tors 18 20 21 22 32.71647
ENDCONSTRAINT
$end
--------------------------------------------------------------

   16   -2579.8533846408      4.30E-09 Convergence criterion met
 Total energy in the final basis set = -2579.8533846408
   12   -2579.8547098071      6.75E-09 Convergence criterion met
 Total energy in the final basis set = -2579.8547098071
   12   -2579.8549920056      6.05E-09 Convergence criterion met
 Total energy in the final basis set = -2579.8549920056
   12   -2579.8550579643      4.14E-09 Convergence criterion met
 Total energy in the final basis set = -2579.8550579643
   11   -2579.8550865077      8.46E-09 Convergence criterion met
 Total energy in the final basis set = -2579.8550865077
   11   -2579.8550965247      6.11E-09 Convergence criterion met
 Total energy in the final basis set = -2579.8550965247
   10   -2579.8550995850      7.30E-09 Convergence criterion met
 Total energy in the final basis set = -2579.8550995850

             Standard Nuclear Orientation (Angstroms)
    I     Atom           X                Y                Z
 ----------------------------------------------------------------
    1      C       8.2596353027     0.8552183278    -0.0447601944
    2      C       7.4301002565     1.8334297567     0.4797554408
    3      C       7.7060533038    -0.2737787818    -0.6299705535
    4      C       6.0546243379     1.6848420076     0.4155168986
    5      C       6.3317972657    -0.4249361467    -0.6934822921
    6      C       5.4897755218     0.5592571340    -0.1800182360
    7      C       4.0220709641     0.4235365747    -0.2533556869
    8      C       3.2215956456     1.4502547525    -0.6734375485
    9      C       3.3336746605    -0.7743634410     0.0921948117
   10      N       1.8619700784     1.4307761037    -0.7494253316
   11      N       3.8572540759    -1.9235447105     0.5269639101
   12      C       1.9098722377    -0.8121157568    -0.0007255977
   13      C       1.2085005495     0.3495466569    -0.4443840122
   14      S       2.6172346563    -2.9204205824     0.7721257905
   15      N       1.3799744025    -1.9832435893     0.3565910250
   16      C      -0.2671475888     0.3736409472    -0.5316340705
   17      N      -0.9190204946     0.7118119459    -1.5980779975
   18      S      -1.2619866966     0.0676929518     0.8529770907
   19      C      -2.2583885559     0.7420395045    -1.3615533333
   20      C      -2.6580002867     0.4386288606    -0.0912367915
   21      C      -4.0081505489     0.3771271444     0.4277643045
   22      S      -4.3851477349     0.7432756028     2.0757236168
   23      C      -5.1676320805     0.0815994141    -0.2366060284
   24      C      -6.0592451510     0.4783646792     1.8659943752
   25      S      -5.5482498294    -0.3816577578    -1.8724946970
   26      C      -6.3409897192     0.1342609243     0.5737751441
   27      C      -7.2445042719    -0.4937400804    -1.4543134229
   28      C      -7.5247922161    -0.2061061758    -0.1734261257
   29      H       9.3338438873     0.9689399118     0.0079772143
   30      H       7.8537951897     2.7122198969     0.9460778498
   31      H       8.3482650047    -1.0420119059    -1.0381814296
   32      H       5.4093923641     2.4405127934     0.8435527776
   33      H       5.9075329416    -1.3095077477    -1.1461583333
   34      H       3.6745614221     2.3837647655    -0.9827911262
   35      H      -2.9318508320     1.0149774470    -2.1600619265
   36      H      -6.7353666921     0.5896556479     2.6959244654
   37      H      -7.9453591706    -0.7739336454    -2.2237237265
   38      H      -8.5199600997    -0.2301524222     0.2422851771
 ----------------------------------------------------------------

    9   -2579.8551003868      6.22E-09 Convergence criterion met
 Total energy in the final basis set = -2579.8551003868
 Final energy is   -2579.85510038683
 **  OPTIMIZATION CONVERGED  **

                    Orbital Energies (a.u.)
 --------------------------------------------------------------

 Alpha MOs
 -- Occupied --
-89.155 -89.090 -89.090 -89.078 -14.492 -14.487 -14.454 -14.443
-10.364 -10.363 -10.361 -10.358 -10.343 -10.342 -10.335 -10.332
-10.330 -10.327 -10.326 -10.322 -10.313 -10.313 -10.305 -10.299
-10.297 -10.297 -10.296 -10.295  -8.165  -8.105  -8.105  -8.093
 -6.115  -6.109  -6.109  -6.054  -6.054  -6.051  -6.050  -6.048
 -6.048  -6.042  -6.039  -6.034  -1.151  -1.086  -1.063  -1.023
 -1.015  -0.976  -0.958  -0.926  -0.919  -0.903  -0.876  -0.860
 -0.857  -0.834  -0.828  -0.802  -0.776  -0.746  -0.737  -0.713
 -0.708  -0.694  -0.691  -0.660  -0.652  -0.636  -0.631  -0.617
 -0.607  -0.598  -0.576  -0.566  -0.561  -0.549  -0.543  -0.530
 -0.527  -0.525  -0.516  -0.515  -0.507  -0.503  -0.497  -0.486
 -0.480  -0.476  -0.470  -0.455  -0.451  -0.439  -0.437  -0.435
 -0.431  -0.424  -0.423  -0.405  -0.391  -0.374  -0.365  -0.363
 -0.360  -0.355  -0.340  -0.337  -0.324  -0.312  -0.275

          Ground-State Mulliken Net Atomic Charges

     Atom                 Charge (a.u.)
  ----------------------------------------
      1 C                    -0.123812
      2 C                    -0.108966
      3 C                    -0.108699
      4 C                    -0.150575
      5 C                    -0.121169
      6 C                     0.118237
      7 C                     0.013850
      8 C                    -0.102875
      9 C                     0.033345
     10 N                    -0.126184
     11 N                    -0.278505
     12 C                     0.001756
     13 C                     0.062764
     14 S                     0.415678
     15 N                    -0.259160
     16 C                     0.018408
     17 N                    -0.140933
     18 S                     0.110228
     19 C                    -0.152130
     20 C                    -0.010627
     21 C                     0.003921
     22 S                     0.131210
     23 C                    -0.053978
     24 C                    -0.223254
     25 S                     0.056636
     26 C                     0.045206
     27 C                    -0.145237
     28 C                    -0.172307
     29 H                     0.118483
     30 H                     0.115348
     31 H                     0.116243
     32 H                     0.129818
     33 H                     0.114078
     34 H                     0.137005
     35 H                     0.145854
     36 H                     0.130474
     37 H                     0.132203
     38 H                     0.127662
  ----------------------------------------
  Sum of atomic charges =     0.000000

                    Cartesian Multipole Moments
 -----------------------------------------------------------------
    Charge (ESU x 10^10)
                 0.0000
    Dipole Moment (Debye)
         X      -0.5031      Y      -1.0062      Z       1.7148
       Tot       2.0509
    Quadrupole Moments (Debye-Ang)
        XX    -137.4674     XY       2.3185     YY    -183.5567
        XZ      -2.2928     YZ       5.2739     ZZ    -184.1457

 Total job time:  6020.12s(wall), 90071.19s(cpu)
        *  Thank you very much for using Q-Chem.  Have a nice day.  *
