 Q-Chem 4.4, Q-Chem, Inc., Pleasanton, CA (2016)
 Q-Chem 4.4.2 for Intel X86 Linux

User input:
--------------------------------------------------------------
$comment
OPTIMIZATION
$end

$rem
JOBTYPE OPT
EXCHANGE omegaB97X-D
BASIS cc-pVTZ
$end

$molecule
0 1
C          0.00000        0.00000        0.00000
C          1.38599        0.00000        0.00000
C         -0.68515       -1.20581        0.00000
C          2.08055       -1.19709        0.02226
C          0.00742       -2.40411        0.01179
C          1.40063       -2.41271        0.04151
C          2.15950       -3.67324        0.15696
C          3.15000       -3.81753        1.08952
C          1.92849       -4.81544       -0.65861
N          3.90172       -4.92812        1.27968
N          1.02636       -4.93526       -1.63501
C          2.72047       -5.99481       -0.47371
C          3.72589       -5.99344        0.54686
S          1.20518       -6.42345       -2.22449
N          2.39935       -6.98227       -1.31015
C          4.58521       -7.13898        0.84639
N          4.23418       -8.22331        1.46356
S          6.25007       -7.09371        0.34436
C          5.28186       -9.07819        1.57827
C          6.46817       -8.65626        1.04252
C          7.71938       -9.38043        0.98934
S          9.25713       -8.58380        1.00996
C          7.92092      -10.73149        0.92126
C         10.13547      -10.04630        0.90693
S          6.86212      -12.11388        0.82908
C          9.29179      -11.12156        0.86967
C          8.25151      -13.17582        0.71894
C          9.43824      -12.55002        0.75571
H         -0.54342        0.93472        0.00000
H          1.93260        0.93382       -0.01501
H         -1.76734       -1.21268        0.00047
H          3.16263       -1.19509        0.00785
H         -0.53593       -3.33924        0.01382
H          3.36185       -2.99842        1.76492
H          5.14850      -10.02141        2.08727
H         11.21053      -10.03866        0.86926
H          8.07395      -14.23431        0.61920
H         10.38359      -13.06494        0.68743
$end

$opt
CONSTRAINT
tors 4 6 7 8 47.06187
tors 10 13 16 18 -75.00000
tors 18 20 21 22 32.71647
ENDCONSTRAINT
$end
--------------------------------------------------------------

   16   -2579.8533968019      4.43E-09 Convergence criterion met
 Total energy in the final basis set = -2579.8533968019
   13   -2579.8548286393      4.27E-09 Convergence criterion met
 Total energy in the final basis set = -2579.8548286393
   12   -2579.8551397586      9.15E-09 Convergence criterion met
 Total energy in the final basis set = -2579.8551397586
   12   -2579.8552054497      4.68E-09 Convergence criterion met
 Total energy in the final basis set = -2579.8552054497
   11   -2579.8552260722      4.83E-09 Convergence criterion met
 Total energy in the final basis set = -2579.8552260722
    9   -2579.8552307266      9.13E-09 Convergence criterion met
 Total energy in the final basis set = -2579.8552307266

             Standard Nuclear Orientation (Angstroms)
    I     Atom           X                Y                Z
 ----------------------------------------------------------------
    1      C       8.2187524973     0.9628915779    -0.1000160287
    2      C       7.3800855767     1.9672329741     0.3560970944
    3      C       7.6769944140    -0.2131473715    -0.5971227103
    4      C       6.0061877528     1.7974486355     0.3116683777
    5      C       6.3044898287    -0.3859686725    -0.6392991948
    6      C       5.4534810903     0.6231511162    -0.1938086483
    7      C       3.9873155825     0.4609373998    -0.2463534334
    8      C       3.1684173603     1.4403602248    -0.7356774287
    9      C       3.3225889251    -0.7182248461     0.1989088922
   10      N       1.8085594371     1.3819869228    -0.8205563512
   11      N       3.8691892083    -1.8152844604     0.7292637806
   12      C       1.8998486734    -0.7877980201     0.1207699677
   13      C       1.1793535868     0.3207338314    -0.4143153813
   14      S       2.6451275203    -2.8014926396     1.0790899650
   15      N       1.3895084336    -1.9246521587     0.5957396466
   16      C      -0.2918622989     0.2533186960    -0.5611070309
   17      N      -0.8933558444    -0.5211509811    -1.4048355074
   18      S      -1.3428017327     1.1457971194     0.4812666391
   19      C      -2.2462463110    -0.4049531893    -1.2896478681
   20      C      -2.7014667303     0.4484014479    -0.3268541263
   21      C      -4.0745432631     0.7362250540     0.0314597533
   22      S      -4.5742892999     2.2762404273     0.6397714888
   23      C      -5.1701889405    -0.0780252150    -0.0651396616
   24      C      -6.2131246790     1.8129850585     0.7756932672
   25      S      -5.4164201434    -1.7269433452    -0.5697606363
   26      C      -6.3927810270     0.5241859511     0.3576346506
   27      C      -7.1240874353    -1.5888863322    -0.2122352560
   28      C      -7.5031101212    -0.3885268480     0.2548004519
   29      H       9.2917275272     1.0930758524    -0.0623022089
   30      H       7.7950515475     2.8820153814     0.7564912306
   31      H       8.3274322103    -1.0013024543    -0.9506069379
   32      H       5.3529906668     2.5748393933     0.6852382392
   33      H       5.8880950907    -1.3061688088    -1.0235371154
   34      H       3.6029176627     2.3556159840    -1.1169197200
   35      H      -2.8830299973    -0.9670032653    -1.9560174772
   36      H      -6.9434430798     2.5090024535     1.1508862456
   37      H      -7.7563423504    -2.4443823510    -0.3859598999
   38      H      -8.5203164995    -0.1444862381     0.5186950793
 ----------------------------------------------------------------

    9   -2579.8552318309      4.30E-09 Convergence criterion met
 Total energy in the final basis set = -2579.8552318309
 Final energy is   -2579.85523183090
 **  OPTIMIZATION CONVERGED  **

                    Orbital Energies (a.u.)
 --------------------------------------------------------------

 Alpha MOs
 -- Occupied --
-89.153 -89.090 -89.090 -89.077 -14.490 -14.485 -14.456 -14.443
-10.364 -10.364 -10.359 -10.356 -10.343 -10.342 -10.336 -10.332
-10.329 -10.327 -10.326 -10.322 -10.313 -10.313 -10.305 -10.299
-10.297 -10.297 -10.296 -10.295  -8.163  -8.105  -8.105  -8.092
 -6.113  -6.108  -6.107  -6.054  -6.054  -6.051  -6.050  -6.048
 -6.048  -6.042  -6.038  -6.034  -1.149  -1.086  -1.064  -1.023
 -1.013  -0.976  -0.958  -0.926  -0.920  -0.901  -0.877  -0.860
 -0.857  -0.835  -0.828  -0.802  -0.775  -0.745  -0.736  -0.712
 -0.708  -0.694  -0.691  -0.661  -0.651  -0.636  -0.633  -0.616
 -0.607  -0.598  -0.576  -0.566  -0.559  -0.550  -0.543  -0.530
 -0.528  -0.522  -0.517  -0.515  -0.506  -0.504  -0.494  -0.488
 -0.479  -0.476  -0.470  -0.455  -0.451  -0.438  -0.437  -0.433
 -0.432  -0.423  -0.423  -0.403  -0.391  -0.374  -0.372  -0.363
 -0.358  -0.354  -0.340  -0.335  -0.323  -0.315  -0.275

          Ground-State Mulliken Net Atomic Charges

     Atom                 Charge (a.u.)
  ----------------------------------------
      1 C                    -0.123652
      2 C                    -0.108981
      3 C                    -0.108416
      4 C                    -0.150021
      5 C                    -0.120612
      6 C                     0.119248
      7 C                     0.015706
      8 C                    -0.101990
      9 C                     0.028329
     10 N                    -0.143387
     11 N                    -0.279282
     12 C                     0.003353
     13 C                     0.050955
     14 S                     0.415341
     15 N                    -0.243163
     16 C                     0.055131
     17 N                    -0.159690
     18 S                     0.111704
     19 C                    -0.149384
     20 C                    -0.015162
     21 C                    -0.000794
     22 S                     0.131634
     23 C                    -0.050892
     24 C                    -0.221951
     25 S                     0.056845
     26 C                     0.042721
     27 C                    -0.146087
     28 C                    -0.172309
     29 H                     0.118409
     30 H                     0.115159
     31 H                     0.116309
     32 H                     0.128681
     33 H                     0.114876
     34 H                     0.135871
     35 H                     0.145013
     36 H                     0.130141
     37 H                     0.132738
     38 H                     0.127610
  ----------------------------------------
  Sum of atomic charges =     0.000000

                    Cartesian Multipole Moments
 -----------------------------------------------------------------
    Charge (ESU x 10^10)
                 0.0000
    Dipole Moment (Debye)
         X      -0.4893      Y       0.0675      Z       1.5024
       Tot       1.5815
    Quadrupole Moments (Debye-Ang)
        XX    -138.0149     XY       1.6069     YY    -176.2093
        XZ      -3.2324     YZ       4.6114     ZZ    -190.3486

 Total job time:  5241.54s(wall), 78302.53s(cpu)
        *  Thank you very much for using Q-Chem.  Have a nice day.  *
