 Q-Chem 4.4, Q-Chem, Inc., Pleasanton, CA (2016)
 Q-Chem 4.4.2 for Intel X86 Linux

User input:
--------------------------------------------------------------
$comment
OPTIMIZATION
$end

$rem
JOBTYPE OPT
EXCHANGE omegaB97X-D
BASIS cc-pVTZ
$end

$molecule
0 1
C          0.00000        0.00000        0.00000
C          1.38599        0.00000        0.00000
C         -0.68515       -1.20581        0.00000
C          2.08055       -1.19709        0.02226
C          0.00742       -2.40411        0.01179
C          1.40063       -2.41271        0.04151
C          2.15950       -3.67324        0.15696
C          3.15000       -3.81753        1.08952
C          1.92849       -4.81544       -0.65861
N          3.90172       -4.92812        1.27968
N          1.02636       -4.93526       -1.63501
C          2.72047       -5.99481       -0.47371
C          3.72589       -5.99344        0.54686
S          1.20518       -6.42345       -2.22449
N          2.39935       -6.98227       -1.31015
C          4.58521       -7.13898        0.84639
N          5.88010       -7.16324        0.79583
S          3.84728       -8.63973        1.32500
C          6.35668       -8.38934        1.12923
C          5.42103       -9.33639        1.44550
C          5.65409      -10.69862        1.87303
S          4.54269      -11.98313        1.53456
C          6.71617      -11.20382        2.57117
C          5.48956      -13.15707        2.33847
S          8.15693      -10.50627        3.26269
C          6.63113      -12.60086        2.84526
C          8.61272      -12.07231        3.90300
C          7.75480      -13.06437        3.61822
H         -0.54342        0.93472        0.00000
H          1.93260        0.93382       -0.01501
H         -1.76734       -1.21268        0.00047
H          3.16263       -1.19509        0.00785
H         -0.53593       -3.33924        0.01382
H          3.36185       -2.99842        1.76492
H          7.42136       -8.57051        1.11566
H          5.15723      -14.17806        2.40448
H          9.52094      -12.13945        4.47963
H          7.89111      -14.08130        3.95101
$end

$opt
CONSTRAINT
tors 4 6 7 8 47.06187
tors 10 13 16 18 120.00000
tors 18 20 21 22 32.71647
ENDCONSTRAINT
$end
--------------------------------------------------------------

   16   -2579.8538191173      4.27E-09 Convergence criterion met
 Total energy in the final basis set = -2579.8538191173
   12   -2579.8550674347      8.65E-09 Convergence criterion met
 Total energy in the final basis set = -2579.8550674347
   12   -2579.8553052882      6.12E-09 Convergence criterion met
 Total energy in the final basis set = -2579.8553052882
   11   -2579.8553427065      5.31E-09 Convergence criterion met
 Total energy in the final basis set = -2579.8553427065
   11   -2579.8553584649      4.80E-09 Convergence criterion met
 Total energy in the final basis set = -2579.8553584649
   10   -2579.8553626717      6.00E-09 Convergence criterion met
 Total energy in the final basis set = -2579.8553626717

             Standard Nuclear Orientation (Angstroms)
    I     Atom           X                Y                Z
 ----------------------------------------------------------------
    1      C       8.1585554866     1.1482283617    -0.6708061001
    2      C       7.4217726831     2.0301524058     0.1032751169
    3      C       7.5319322739     0.0583275669    -1.2569227702
    4      C       6.0640596203     1.8262239977     0.2845166624
    5      C       6.1758089060    -0.1492704078    -1.0741424555
    6      C       5.4240661875     0.7413170719    -0.3105068228
    7      C       3.9719830951     0.5555138741    -0.1235759140
    8      C       3.0877904492     1.5874035949    -0.2799249267
    9      C       3.3833879731    -0.6956207229     0.2170155672
   10      N       1.7376115497     1.5211571977    -0.1181534892
   11      N       4.0015399630    -1.8611376923     0.4239167396
   12      C       1.9690136690    -0.7771645818     0.3931035507
   13      C       1.1769880212     0.3987807147     0.2217407056
   14      S       2.8509262910    -2.9222326383     0.7994052853
   15      N       1.5399002747    -1.9949175730     0.7298131734
   16      C      -0.2908408925     0.3781399495     0.3934583500
   17      N      -0.9292090835     1.1796673613     1.1856944116
   18      S      -1.3054337088    -0.6519000136    -0.5581299935
   19      C      -2.2727990010     0.9879779512     1.0930874466
   20      C      -2.6912340768     0.0399284888     0.2036226844
   21      C      -4.0493975939    -0.3418456861    -0.1199629433
   22      S      -4.4718545973    -1.9488183519    -0.6013566367
   23      C      -5.1843246467     0.4222794486    -0.0817238125
   24      C      -6.1318156647    -1.5802374856    -0.7634053037
   25      S      -5.5141072839     2.0916006071     0.2913569383
   26      C      -6.3753611109    -0.2730090909    -0.4482163360
   27      C      -7.2128931597     1.8386499579    -0.0454316419
   28      C      -7.5304164866     0.5870856528    -0.4131937975
   29      H       9.2186953966     1.3063870209    -0.8145174286
   30      H       7.9041166169     2.8764825130     0.5726514124
   31      H       8.1038872237    -0.6332067807    -1.8601821519
   32      H       5.4926214854     2.5038938714     0.9047607590
   33      H       5.6956981554    -1.0043289536    -1.5281810090
   34      H       3.4573824110     2.5611646144    -0.5758023574
   35      H      -2.9326862540     1.5660644311     1.7224934599
   36      H      -6.8286397909    -2.3380042953    -1.0773703068
   37      H      -7.8868849035     2.6728291583     0.0625325013
   38      H      -8.5337610129     0.2729425385    -0.6548868057
 ----------------------------------------------------------------

    9   -2579.8553638976      7.21E-09 Convergence criterion met
 Total energy in the final basis set = -2579.8553638976
 Final energy is   -2579.85536389757
 **  OPTIMIZATION CONVERGED  **

                    Orbital Energies (a.u.)
 --------------------------------------------------------------

 Alpha MOs
 -- Occupied --
-89.155 -89.090 -89.090 -89.078 -14.492 -14.487 -14.453 -14.442
-10.364 -10.363 -10.360 -10.358 -10.343 -10.342 -10.335 -10.332
-10.330 -10.327 -10.326 -10.322 -10.313 -10.313 -10.305 -10.298
-10.297 -10.296 -10.296 -10.295  -8.165  -8.105  -8.105  -8.093
 -6.115  -6.109  -6.109  -6.054  -6.054  -6.051  -6.050  -6.048
 -6.048  -6.042  -6.039  -6.034  -1.151  -1.086  -1.063  -1.023
 -1.015  -0.976  -0.958  -0.926  -0.919  -0.903  -0.876  -0.860
 -0.856  -0.834  -0.828  -0.802  -0.776  -0.745  -0.737  -0.713
 -0.708  -0.694  -0.691  -0.660  -0.652  -0.636  -0.631  -0.617
 -0.607  -0.598  -0.576  -0.566  -0.562  -0.547  -0.543  -0.530
 -0.528  -0.522  -0.516  -0.515  -0.512  -0.501  -0.494  -0.488
 -0.480  -0.477  -0.469  -0.456  -0.451  -0.439  -0.437  -0.434
 -0.432  -0.424  -0.423  -0.405  -0.392  -0.373  -0.366  -0.363
 -0.359  -0.356  -0.340  -0.336  -0.324  -0.312  -0.275

          Ground-State Mulliken Net Atomic Charges

     Atom                 Charge (a.u.)
  ----------------------------------------
      1 C                    -0.123358
      2 C                    -0.108228
      3 C                    -0.107771
      4 C                    -0.150070
      5 C                    -0.122525
      6 C                     0.119014
      7 C                     0.015855
      8 C                    -0.105431
      9 C                     0.031320
     10 N                    -0.125882
     11 N                    -0.278373
     12 C                     0.003351
     13 C                     0.058965
     14 S                     0.415203
     15 N                    -0.259634
     16 C                     0.020179
     17 N                    -0.142377
     18 S                     0.114219
     19 C                    -0.148891
     20 C                    -0.012415
     21 C                    -0.000500
     22 S                     0.130966
     23 C                    -0.051073
     24 C                    -0.220957
     25 S                     0.058126
     26 C                     0.043121
     27 C                    -0.145672
     28 C                    -0.173073
     29 H                     0.117897
     30 H                     0.115693
     31 H                     0.114921
     32 H                     0.130240
     33 H                     0.113632
     34 H                     0.137419
     35 H                     0.145437
     36 H                     0.129790
     37 H                     0.133019
     38 H                     0.127864
  ----------------------------------------
  Sum of atomic charges =     0.000000

                    Cartesian Multipole Moments
 -----------------------------------------------------------------
    Charge (ESU x 10^10)
                 0.0000
    Dipole Moment (Debye)
         X      -0.5123      Y      -1.5456      Z      -1.0692
       Tot       1.9479
    Quadrupole Moments (Debye-Ang)
        XX    -138.1367     XY       2.4210     YY    -177.9904
        XZ       0.7375     YZ       3.7737     ZZ    -188.5402

 Total job time:  5219.63s(wall), 77992.48s(cpu)
        *  Thank you very much for using Q-Chem.  Have a nice day.  *
