 Q-Chem 4.4, Q-Chem, Inc., Pleasanton, CA (2016)
 Q-Chem 4.4.2 for Intel X86 Linux

User input:
--------------------------------------------------------------
$comment
OPTIMIZATION
$end

$rem
JOBTYPE OPT
EXCHANGE omegaB97X-D
BASIS cc-pVTZ
$end

$molecule
0 1
C          0.00000        0.00000        0.00000
C          1.38599        0.00000        0.00000
C         -0.68515       -1.20581        0.00000
C          2.08055       -1.19709        0.02226
C          0.00742       -2.40411        0.01179
C          1.40063       -2.41271        0.04151
C          2.15950       -3.67324        0.15696
C          3.15000       -3.81753        1.08952
C          1.92849       -4.81544       -0.65861
N          3.90172       -4.92812        1.27968
N          1.02636       -4.93526       -1.63501
C          2.72047       -5.99481       -0.47371
C          3.72589       -5.99344        0.54686
S          1.20518       -6.42345       -2.22449
N          2.39935       -6.98227       -1.31015
C          4.58521       -7.13898        0.84639
N          5.86290       -7.10663        1.06165
S          3.87176       -8.72285        0.93686
C          6.34684       -8.35128        1.30300
C          5.43429       -9.37058        1.27670
C          5.67079      -10.77348        1.53882
S          4.73960      -12.02923        0.79336
C          6.60523      -11.34232        2.35971
C          5.58631      -13.27896        1.59474
S          7.82864      -10.70911        3.42877
C          6.56359      -12.76729        2.40252
C          8.25464      -12.33833        3.91290
C          7.54052      -13.30448        3.31465
H         -0.54342        0.93472        0.00000
H          1.93260        0.93382       -0.01501
H         -1.76734       -1.21268        0.00047
H          3.16263       -1.19509        0.00785
H         -0.53593       -3.33924        0.01382
H          3.36185       -2.99842        1.76492
H          7.40288       -8.48820        1.48345
H          5.31840      -14.30929        1.44025
H          9.03271      -12.46151        4.64864
H          7.67754      -14.35533        3.51572
$end

$opt
CONSTRAINT
tors 4 6 7 8 47.06187
tors 10 13 16 18 135.00000
tors 18 20 21 22 32.71647
ENDCONSTRAINT
$end
--------------------------------------------------------------

   16   -2579.8551024416      4.21E-09 Convergence criterion met
 Total energy in the final basis set = -2579.8551024416
   12   -2579.8563062535      7.28E-09 Convergence criterion met
 Total energy in the final basis set = -2579.8563062535
   12   -2579.8565795517      6.86E-09 Convergence criterion met
 Total energy in the final basis set = -2579.8565795517
   11   -2579.8566233518      5.08E-09 Convergence criterion met
 Total energy in the final basis set = -2579.8566233518
   10   -2579.8566401736      9.07E-09 Convergence criterion met
 Total energy in the final basis set = -2579.8566401736
   10   -2579.8566438718      5.82E-09 Convergence criterion met
 Total energy in the final basis set = -2579.8566438718

             Standard Nuclear Orientation (Angstroms)
    I     Atom           X                Y                Z
 ----------------------------------------------------------------
    1      C       8.1800961709     1.1172829626    -0.5794832636
    2      C       7.4592524848     1.9429697018     0.2682186086
    3      C       7.5335714431     0.0922864988    -1.2543001812
    4      C       6.0984332562     1.7478409347     0.4352291092
    5      C       6.1739494930    -0.1051316094    -1.0878312318
    6      C       5.4380262458     0.7299392649    -0.2494764462
    7      C       3.9836666124     0.5519686437    -0.0743576107
    8      C       3.1150305595     1.6071523980    -0.1365591782
    9      C       3.3734662305    -0.7150689252     0.1476285802
   10      N       1.7653310019     1.5473069503     0.0174270100
   11      N       3.9737307851    -1.9035337916     0.2486911440
   12      C       1.9566863106    -0.7919789323     0.3106776079
   13      C       1.1812697141     0.4079458881     0.2487200844
   14      S       2.8082793246    -2.9791500008     0.5191786220
   15      N       1.5108490759    -2.0298176961     0.5305074219
   16      C      -0.2833027355     0.4079978448     0.4157565503
   17      N      -0.9226460256     1.3348849284     1.0601927432
   18      S      -1.3048217346    -0.7637275642    -0.3509071832
   19      C      -2.2642337677     1.1407588396     0.9930718038
   20      C      -2.6864115503     0.0609723984     0.2685022431
   21      C      -4.0476975887    -0.3504497193     0.0005702071
   22      S      -4.4979433191    -2.0073265885    -0.2103728612
   23      C      -5.1678697202     0.4297541152    -0.1018284255
   24      C      -6.1486506494    -1.6405046961    -0.4529057772
   25      S      -5.4660390052     2.1441946687    -0.0220028043
   26      C      -6.3690035673    -0.2947036461    -0.3629593726
   27      C      -7.1663326260     1.8701389617    -0.3331961317
   28      C      -7.5063706542     0.5806753373    -0.4882346782
   29      H       9.2428196604     1.2681676013    -0.7114019130
   30      H       7.9575159379     2.7378503683     0.8060432706
   31      H       8.0934084458    -0.5574781943    -1.9128646528
   32      H       5.5394599791     2.3817808959     1.1106299807
   33      H       5.6782681121    -0.9093532805    -1.6123970342
   34      H       3.5000965319     2.5989147276    -0.3386915073
   35      H      -2.9231775277     1.8146362527     1.5200015601
   36      H      -6.8570318296    -2.4263517643    -0.6504226796
   37      H      -7.8219741346     2.7244490568    -0.3792842409
   38      H      -8.5135575532     0.2492979860    -0.6871495113
 ----------------------------------------------------------------

    9   -2579.8566446068      5.61E-09 Convergence criterion met
 Total energy in the final basis set = -2579.8566446068
 Final energy is   -2579.85664460682
 **  OPTIMIZATION CONVERGED  **

                    Orbital Energies (a.u.)
 --------------------------------------------------------------

 Alpha MOs
 -- Occupied --
-89.155 -89.091 -89.090 -89.078 -14.492 -14.487 -14.451 -14.442
-10.363 -10.363 -10.360 -10.358 -10.343 -10.343 -10.334 -10.332
-10.330 -10.327 -10.326 -10.322 -10.313 -10.312 -10.305 -10.298
-10.296 -10.296 -10.295 -10.295  -8.165  -8.106  -8.105  -8.093
 -6.115  -6.109  -6.109  -6.055  -6.054  -6.051  -6.051  -6.049
 -6.048  -6.042  -6.039  -6.035  -1.151  -1.086  -1.061  -1.023
 -1.015  -0.975  -0.959  -0.926  -0.918  -0.903  -0.876  -0.860
 -0.856  -0.834  -0.829  -0.802  -0.776  -0.745  -0.736  -0.713
 -0.708  -0.693  -0.691  -0.660  -0.652  -0.637  -0.629  -0.616
 -0.607  -0.598  -0.575  -0.566  -0.562  -0.547  -0.543  -0.530
 -0.529  -0.522  -0.516  -0.515  -0.513  -0.501  -0.495  -0.487
 -0.480  -0.476  -0.469  -0.457  -0.450  -0.439  -0.437  -0.434
 -0.433  -0.424  -0.423  -0.405  -0.393  -0.373  -0.364  -0.362
 -0.360  -0.357  -0.340  -0.337  -0.324  -0.310  -0.274

          Ground-State Mulliken Net Atomic Charges

     Atom                 Charge (a.u.)
  ----------------------------------------
      1 C                    -0.123296
      2 C                    -0.109072
      3 C                    -0.108233
      4 C                    -0.149669
      5 C                    -0.122407
      6 C                     0.118059
      7 C                     0.014991
      8 C                    -0.103733
      9 C                     0.033915
     10 N                    -0.123618
     11 N                    -0.277837
     12 C                     0.005211
     13 C                     0.064569
     14 S                     0.414947
     15 N                    -0.269306
     16 C                     0.003135
     17 N                    -0.133779
     18 S                     0.118108
     19 C                    -0.147329
     20 C                    -0.014153
     21 C                    -0.001042
     22 S                     0.131552
     23 C                    -0.051827
     24 C                    -0.220160
     25 S                     0.059012
     26 C                     0.043313
     27 C                    -0.146130
     28 C                    -0.173379
     29 H                     0.117766
     30 H                     0.116019
     31 H                     0.114697
     32 H                     0.129892
     33 H                     0.113617
     34 H                     0.138302
     35 H                     0.146685
     36 H                     0.129684
     37 H                     0.133486
     38 H                     0.128009
  ----------------------------------------
  Sum of atomic charges =     0.000000

                    Cartesian Multipole Moments
 -----------------------------------------------------------------
    Charge (ESU x 10^10)
                 0.0000
    Dipole Moment (Debye)
         X      -0.6593      Y      -1.6723      Z      -0.9803
       Tot       2.0475
    Quadrupole Moments (Debye-Ang)
        XX    -138.4726     XY       2.5829     YY    -178.2759
        XZ       1.1917     YZ       2.9544     ZZ    -188.3535

 Total job time:  5217.46s(wall), 78093.32s(cpu)
        *  Thank you very much for using Q-Chem.  Have a nice day.  *
