 Q-Chem 4.4, Q-Chem, Inc., Pleasanton, CA (2016)
 Q-Chem 4.4.2 for Intel X86 Linux

User input:
--------------------------------------------------------------
$comment
OPTIMIZATION
$end

$rem
JOBTYPE OPT
EXCHANGE omegaB97X-D
BASIS cc-pVTZ
$end

$molecule
0 1
C          0.00000        0.00000        0.00000
C          1.38599        0.00000        0.00000
C         -0.68515       -1.20581        0.00000
C          2.08055       -1.19709        0.02226
C          0.00742       -2.40411        0.01179
C          1.40063       -2.41271        0.04151
C          2.15950       -3.67324        0.15696
C          3.15000       -3.81753        1.08952
C          1.92849       -4.81544       -0.65861
N          3.90172       -4.92812        1.27968
N          1.02636       -4.93526       -1.63501
C          2.72047       -5.99481       -0.47371
C          3.72589       -5.99344        0.54686
S          1.20518       -6.42345       -2.22449
N          2.39935       -6.98227       -1.31015
C          4.58521       -7.13898        0.84639
N          4.77576       -8.17564        0.09213
S          5.46221       -7.16069        2.34847
C          5.62938       -9.05286        0.67818
C          6.11328       -8.69632        1.90745
C          7.06149       -9.41981        2.72612
S          7.04888       -9.33920        4.45617
C          8.07412      -10.24865        2.32834
C          8.39221      -10.38294        4.62065
S          8.68872      -10.75710        0.77775
C          8.84050      -10.79903        3.39783
C          9.94685      -11.68034        1.57460
C          9.91597      -11.62698        2.91531
H         -0.54342        0.93472        0.00000
H          1.93260        0.93382       -0.01501
H         -1.76734       -1.21268        0.00047
H          3.16263       -1.19509        0.00785
H         -0.53593       -3.33924        0.01382
H          3.36185       -2.99842        1.76492
H          5.87293       -9.97768        0.17625
H          8.78299      -10.62441        5.59338
H         10.65521      -12.20942        0.95800
H         10.62959      -12.13284        3.54645
$end

$opt
CONSTRAINT
tors 4 6 7 8 47.06187
tors 10 13 16 18 15.00000
tors 18 20 21 22 32.71647
ENDCONSTRAINT
$end
--------------------------------------------------------------

   16   -2579.8617278884      4.56E-09 Convergence criterion met
 Total energy in the final basis set = -2579.8617278884
   12   -2579.8619920259      5.50E-09 Convergence criterion met
 Total energy in the final basis set = -2579.8619920259
   11   -2579.8620864716      8.00E-09 Convergence criterion met
 Total energy in the final basis set = -2579.8620864716
   10   -2579.8621037761      8.94E-09 Convergence criterion met
 Total energy in the final basis set = -2579.8621037761
   10   -2579.8621090284      4.22E-09 Convergence criterion met
 Total energy in the final basis set = -2579.8621090284

             Standard Nuclear Orientation (Angstroms)
    I     Atom           X                Y                Z
 ----------------------------------------------------------------
    1      C      -8.0003932930     1.6007222966    -0.4849130023
    2      C      -7.0713166038     2.0257896024    -1.4209182587
    3      C      -7.5961601826     0.7938218403     0.5682617963
    4      C      -5.7440013378     1.6483320751    -1.3013824144
    5      C      -6.2709212337     0.4129336248     0.6876308088
    6      C      -5.3270823818     0.8457746799    -0.2415915917
    7      C      -3.9055203640     0.4684336372    -0.1214097886
    8      C      -2.9029252180     1.3894059194    -0.2509235984
    9      C      -3.4712510974    -0.8599939724     0.1525993900
   10      N      -1.5734820994     1.1287185855    -0.1795877458
   11      N      -4.2397188807    -1.9347906129     0.3435920961
   12      C      -2.0719814970    -1.1489458798     0.2403138818
   13      C      -1.1388177203    -0.0797428584     0.0496600439
   14      S      -3.2333936411    -3.1616018913     0.6175680658
   15      N      -1.8110218990    -2.4287531779     0.5080863206
   16      C       0.3127983969    -0.2597605539     0.0904860509
   17      N       0.9459385020    -1.3902465812     0.0367375064
   18      S       1.3337986015     1.1378326789     0.2322669440
   19      C       2.2873721790    -1.2011683036     0.1136709563
   20      C       2.7079639449     0.0953871444     0.2366434419
   21      C       4.0695089856     0.5776186000     0.3202382905
   22      S       4.4936583768     2.0026327390     1.2049089701
   23      C       5.2065349200     0.0334970401    -0.2142990010
   24      C       6.1557032155     1.8680861820     0.8371471862
   25      S       5.5358390372    -1.3525174232    -1.2163032937
   26      C       6.3995906959     0.7621121883     0.0717095925
   27      C       7.2375862393    -0.9430027583    -1.2375537023
   28      C       7.5560042439     0.1595052856    -0.5408892036
   29      H      -9.0376618499     1.8919751992    -0.5787250033
   30      H      -7.3796953397     2.6460671795    -2.2513289609
   31      H      -8.3176497246     0.4591290536     1.3008937292
   32      H      -5.0236299025     1.9623919152    -2.0450315106
   33      H      -5.9650678916    -0.2225098994     1.5060825768
   34      H      -3.1522431627     2.4281917733    -0.4274483733
   35      H       2.9435339503    -2.0587148203     0.0963962233
   36      H       6.8538613571     2.6045703566     1.1958666730
   37      H       7.9090895222    -1.5776682173    -1.7925975824
   38      H       8.5597574887     0.5462559976    -0.4585967475
 ----------------------------------------------------------------

    8   -2579.8621098868      7.34E-09 Convergence criterion met
 Total energy in the final basis set = -2579.8621098868
 Final energy is   -2579.86210988679
 **  OPTIMIZATION CONVERGED  **

                    Orbital Energies (a.u.)
 --------------------------------------------------------------

 Alpha MOs
 -- Occupied --
-89.149 -89.090 -89.087 -89.078 -14.485 -14.481 -14.454 -14.443
-10.365 -10.362 -10.357 -10.355 -10.343 -10.342 -10.335 -10.332
-10.330 -10.327 -10.324 -10.322 -10.313 -10.312 -10.305 -10.297
-10.296 -10.296 -10.295 -10.294  -8.159  -8.105  -8.102  -8.093
 -6.109  -6.104  -6.103  -6.054  -6.051  -6.050  -6.048  -6.047
 -6.045  -6.043  -6.039  -6.035  -1.146  -1.086  -1.064  -1.023
 -1.010  -0.974  -0.959  -0.925  -0.920  -0.899  -0.877  -0.860
 -0.855  -0.833  -0.828  -0.802  -0.775  -0.744  -0.734  -0.712
 -0.705  -0.693  -0.691  -0.660  -0.651  -0.637  -0.627  -0.614
 -0.606  -0.598  -0.572  -0.564  -0.556  -0.548  -0.542  -0.531
 -0.529  -0.524  -0.514  -0.513  -0.508  -0.503  -0.498  -0.486
 -0.478  -0.476  -0.469  -0.455  -0.449  -0.440  -0.436  -0.433
 -0.430  -0.423  -0.421  -0.399  -0.393  -0.375  -0.367  -0.363
 -0.358  -0.353  -0.339  -0.338  -0.324  -0.306  -0.273

          Ground-State Mulliken Net Atomic Charges

     Atom                 Charge (a.u.)
  ----------------------------------------
      1 C                    -0.124463
      2 C                    -0.109288
      3 C                    -0.108854
      4 C                    -0.151011
      5 C                    -0.120942
      6 C                     0.120807
      7 C                     0.012546
      8 C                    -0.109654
      9 C                     0.036155
     10 N                    -0.173135
     11 N                    -0.282389
     12 C                    -0.012398
     13 C                     0.105419
     14 S                     0.413254
     15 N                    -0.223336
     16 C                    -0.005586
     17 N                    -0.138604
     18 S                     0.121170
     19 C                    -0.145473
     20 C                    -0.017852
     21 C                     0.005465
     22 S                     0.133619
     23 C                    -0.051606
     24 C                    -0.221521
     25 S                     0.057083
     26 C                     0.043940
     27 C                    -0.144946
     28 C                    -0.172507
     29 H                     0.117859
     30 H                     0.115709
     31 H                     0.115253
     32 H                     0.128756
     33 H                     0.114197
     34 H                     0.136081
     35 H                     0.145933
     36 H                     0.130265
     37 H                     0.132303
     38 H                     0.127750
  ----------------------------------------
  Sum of atomic charges =     0.000000

                    Cartesian Multipole Moments
 -----------------------------------------------------------------
    Charge (ESU x 10^10)
                 0.0000
    Dipole Moment (Debye)
         X       0.7722      Y       0.9352      Z       0.1006
       Tot       1.2170
    Quadrupole Moments (Debye-Ang)
        XX    -139.7870     XY       0.1600     YY    -180.8699
        XZ      -1.9398     YZ      -0.6771     ZZ    -183.5823

 Total job time:  4387.90s(wall), 65622.01s(cpu)
        *  Thank you very much for using Q-Chem.  Have a nice day.  *
