 Q-Chem 4.4, Q-Chem, Inc., Pleasanton, CA (2016)
 Q-Chem 4.4.2 for Intel X86 Linux

User input:
--------------------------------------------------------------
$comment
OPTIMIZATION
$end

$rem
JOBTYPE OPT
EXCHANGE omegaB97X-D
BASIS cc-pVTZ
$end

$molecule
0 1
C          0.00000        0.00000        0.00000
C          1.38599        0.00000        0.00000
C         -0.68515       -1.20581        0.00000
C          2.08055       -1.19709        0.02226
C          0.00742       -2.40411        0.01179
C          1.40063       -2.41271        0.04151
C          2.15950       -3.67324        0.15696
C          3.15000       -3.81753        1.08952
C          1.92849       -4.81544       -0.65861
N          3.90172       -4.92812        1.27968
N          1.02636       -4.93526       -1.63501
C          2.72047       -5.99481       -0.47371
C          3.72589       -5.99344        0.54686
S          1.20518       -6.42345       -2.22449
N          2.39935       -6.98227       -1.31015
C          4.58521       -7.13898        0.84639
N          5.60166       -7.54100        0.14990
S          4.25559       -8.08712        2.26704
C          6.17080       -8.63853        0.70946
C          5.59137       -9.10027        1.85987
C          6.01776      -10.21577        2.67634
S          4.90734      -11.16879        3.60285
C          7.28213      -10.70336        2.86148
C          6.13415      -12.17818        4.23296
S          8.86073      -10.23278        2.28953
C          7.36074      -11.81735        3.74857
C          9.59039      -11.51285        3.23781
C          8.71936      -12.25763        3.93634
H         -0.54342        0.93472        0.00000
H          1.93260        0.93382       -0.01501
H         -1.76734       -1.21268        0.00047
H          3.16263       -1.19509        0.00785
H         -0.53593       -3.33924        0.01382
H          3.36185       -2.99842        1.76492
H          7.02140       -9.10172        0.23148
H          5.89416      -12.96628        4.92472
H         10.66326      -11.61380        3.21280
H          9.01527      -13.07482        4.57518
$end

$opt
CONSTRAINT
tors 4 6 7 8 47.06187
tors 10 13 16 18 75.00000
tors 18 20 21 22 32.71647
ENDCONSTRAINT
$end
--------------------------------------------------------------

   16   -2579.8535198809      4.46E-09 Convergence criterion met
 Total energy in the final basis set = -2579.8535198809
   13   -2579.8548986242      5.20E-09 Convergence criterion met
 Total energy in the final basis set = -2579.8548986242
   12   -2579.8551171524      7.49E-09 Convergence criterion met
 Total energy in the final basis set = -2579.8551171524
   11   -2579.8551522630      9.20E-09 Convergence criterion met
 Total energy in the final basis set = -2579.8551522630
   11   -2579.8551653861      6.35E-09 Convergence criterion met
 Total energy in the final basis set = -2579.8551653861
   10   -2579.8551690035      5.47E-09 Convergence criterion met
 Total energy in the final basis set = -2579.8551690035
    9   -2579.8551704884      6.60E-09 Convergence criterion met
 Total energy in the final basis set = -2579.8551704884

             Standard Nuclear Orientation (Angstroms)
    I     Atom           X                Y                Z
 ----------------------------------------------------------------
    1      C       8.1121399712     1.3649720119    -0.5512839211
    2      C       7.3180828750     2.2379178402     0.1749751061
    3      C       7.5501733193     0.2263792570    -1.1094982881
    4      C       5.9668895109     1.9783290300     0.3338969537
    5      C       6.2012242766    -0.0373021378    -0.9479896372
    6      C       5.3917272629     0.8441569127    -0.2346369492
    7      C       3.9435871338     0.5995230429    -0.0877584207
    8      C       3.0221669719     1.5835885495    -0.3155137621
    9      C       3.3998970142    -0.6674380029     0.2718449952
   10      N       1.6695419456     1.4592732348    -0.1991143847
   11      N       4.0618317419    -1.7976681776     0.5324361147
   12      C       1.9851022066    -0.8113244757     0.3899703757
   13      C       1.1504113798     0.3174391160     0.1387522359
   14      S       2.9429103737    -2.9033599968     0.8769634748
   15      N       1.5954367512    -2.0417685915     0.7258344377
   16      C      -0.3188858473     0.2162521284     0.2908261816
   17      N      -0.9215985804     0.0899548116     1.4280322569
   18      S      -1.3575520842     0.1710107834    -1.0907180419
   19      C      -2.2673917557    -0.0357619728     1.2517667317
   20      C      -2.7134634614    -0.0258021248    -0.0379795484
   21      C      -4.0793947146    -0.1198206112    -0.5094148957
   22      S      -4.4911245837    -0.8487085430    -2.0228947243
   23      C      -5.2269991146     0.2989554627     0.1073944464
   24      C      -6.1650073025    -0.5726151565    -1.8251520495
   25      S      -5.5727630941     1.1207782768     1.6038862427
   26      C      -6.4201240749     0.0468559990    -0.6340482555
   27      C      -7.2811283778     1.1143192286     1.2214585896
   28      C      -7.5900174000     0.5348263083     0.0505557564
   29      H       9.1668312907     1.5671483461    -0.6788700454
   30      H       7.7509903123     3.1215656057     0.6232786767
   31      H       8.1654275508    -0.4582336705    -1.6769400718
   32      H       5.3519805515     2.6504891367     0.9175811804
   33      H       5.7703080200    -0.9288864826    -1.3805168701
   34      H       3.3593667098     2.5644856546    -0.6255292200
   35      H      -2.9048195360    -0.1548427461     2.1150342598
   36      H      -6.8601662014    -0.8714474884    -2.5904841829
   37      H      -7.9656842206     1.5589070752     1.9254845136
   38      H      -8.5963693821     0.4523564858    -0.3293623434
 ----------------------------------------------------------------

    9   -2579.8551708962      4.10E-09 Convergence criterion met
 Total energy in the final basis set = -2579.8551708962
 Final energy is   -2579.85517089625
 **  OPTIMIZATION CONVERGED  **

                    Orbital Energies (a.u.)
 --------------------------------------------------------------

 Alpha MOs
 -- Occupied --
-89.153 -89.090 -89.089 -89.077 -14.490 -14.486 -14.456 -14.443
-10.364 -10.364 -10.360 -10.356 -10.342 -10.342 -10.336 -10.332
-10.329 -10.328 -10.326 -10.322 -10.313 -10.312 -10.305 -10.299
-10.297 -10.297 -10.296 -10.296  -8.163  -8.105  -8.105  -8.092
 -6.113  -6.108  -6.107  -6.054  -6.054  -6.050  -6.050  -6.048
 -6.048  -6.042  -6.038  -6.034  -1.149  -1.086  -1.065  -1.022
 -1.013  -0.976  -0.958  -0.926  -0.920  -0.901  -0.877  -0.860
 -0.857  -0.834  -0.828  -0.802  -0.775  -0.745  -0.736  -0.712
 -0.708  -0.694  -0.691  -0.661  -0.651  -0.636  -0.633  -0.617
 -0.607  -0.598  -0.576  -0.565  -0.561  -0.549  -0.544  -0.530
 -0.525  -0.525  -0.515  -0.514  -0.511  -0.500  -0.497  -0.486
 -0.479  -0.477  -0.470  -0.455  -0.451  -0.438  -0.437  -0.434
 -0.432  -0.424  -0.423  -0.404  -0.390  -0.375  -0.370  -0.363
 -0.357  -0.355  -0.340  -0.336  -0.323  -0.314  -0.276

          Ground-State Mulliken Net Atomic Charges

     Atom                 Charge (a.u.)
  ----------------------------------------
      1 C                    -0.123323
      2 C                    -0.107399
      3 C                    -0.108507
      4 C                    -0.150898
      5 C                    -0.121512
      6 C                     0.120182
      7 C                     0.016181
      8 C                    -0.104123
      9 C                     0.028856
     10 N                    -0.142849
     11 N                    -0.279940
     12 C                     0.004741
     13 C                     0.051950
     14 S                     0.415408
     15 N                    -0.243721
     16 C                     0.054057
     17 N                    -0.159354
     18 S                     0.110125
     19 C                    -0.149951
     20 C                    -0.018370
     21 C                     0.004301
     22 S                     0.130191
     23 C                    -0.052417
     24 C                    -0.221443
     25 S                     0.056785
     26 C                     0.044210
     27 C                    -0.145231
     28 C                    -0.173579
     29 H                     0.118007
     30 H                     0.115403
     31 H                     0.115015
     32 H                     0.129858
     33 H                     0.113783
     34 H                     0.136760
     35 H                     0.146515
     36 H                     0.129811
     37 H                     0.132754
     38 H                     0.127727
  ----------------------------------------
  Sum of atomic charges =     0.000000

                    Cartesian Multipole Moments
 -----------------------------------------------------------------
    Charge (ESU x 10^10)
                 0.0000
    Dipole Moment (Debye)
         X      -0.3900      Y      -0.5852      Z      -1.3220
       Tot       1.4974
    Quadrupole Moments (Debye-Ang)
        XX    -138.2075     XY       1.6122     YY    -182.1408
        XZ      -0.2480     YZ       5.0680     ZZ    -183.5381

 Total job time:  5846.72s(wall), 87407.78s(cpu)
        *  Thank you very much for using Q-Chem.  Have a nice day.  *
