 Q-Chem 4.4, Q-Chem, Inc., Pleasanton, CA (2016)
 Q-Chem 4.4.2 for Intel X86 Linux

User input:
--------------------------------------------------------------
$comment
OPTIMIZATION
$end

$rem
JOBTYPE OPT
EXCHANGE omegaB97X-D
BASIS cc-pVTZ
$end

$molecule
0 1
C          0.00000        0.00000        0.00000
C          1.38599        0.00000        0.00000
C         -0.68515       -1.20581        0.00000
C          2.08055       -1.19709        0.02226
C          0.00742       -2.40411        0.01179
C          1.40063       -2.41271        0.04151
C          2.15950       -3.67324        0.15696
C          3.15000       -3.81753        1.08952
C          1.92849       -4.81544       -0.65861
N          3.90172       -4.92812        1.27968
N          1.02636       -4.93526       -1.63501
C          2.72047       -5.99481       -0.47371
C          3.72589       -5.99344        0.54686
S          1.20518       -6.42345       -2.22449
N          2.39935       -6.98227       -1.31015
C          4.58521       -7.13898        0.84639
N          4.86184       -7.60611        2.02332
S          5.33182       -7.99563       -0.47064
C          5.69608       -8.67314        1.93901
C          6.07616       -9.04554        0.67836
C          6.91646      -10.16197        0.30385
S          7.92387      -10.13688       -1.10477
C          7.07286      -11.36292        0.93937
C          8.51549      -11.71831       -0.84008
S          6.36555      -12.08618        2.35965
C          7.97721      -12.25793        0.29502
C          7.27451      -13.55571        2.06896
C          8.06678      -13.51853        0.98626
H         -0.54342        0.93472        0.00000
H          1.93260        0.93382       -0.01501
H         -1.76734       -1.21268        0.00047
H          3.16263       -1.19509        0.00785
H         -0.53593       -3.33924        0.01382
H          3.36185       -2.99842        1.76492
H          6.03182       -9.16146        2.84198
H          9.21025      -12.16612       -1.52856
H          7.13720      -14.37986        2.74999
H          8.67923      -14.34809        0.66968
$end

$opt
CONSTRAINT
tors 4 6 7 8 47.06187
tors 10 13 16 18 -135.00000
tors 18 20 21 22 32.71647
ENDCONSTRAINT
$end
--------------------------------------------------------------

   16   -2579.8548627565      4.22E-09 Convergence criterion met
 Total energy in the final basis set = -2579.8548627565
   12   -2579.8561213922      7.04E-09 Convergence criterion met
 Total energy in the final basis set = -2579.8561213922
   12   -2579.8564171514      6.52E-09 Convergence criterion met
 Total energy in the final basis set = -2579.8564171514
   12   -2579.8564776238      3.89E-09 Convergence criterion met
 Total energy in the final basis set = -2579.8564776238
   11   -2579.8564994802      6.00E-09 Convergence criterion met
 Total energy in the final basis set = -2579.8564994802
   10   -2579.8565033035      7.04E-09 Convergence criterion met
 Total energy in the final basis set = -2579.8565033035

             Standard Nuclear Orientation (Angstroms)
    I     Atom           X                Y                Z
 ----------------------------------------------------------------
    1      C      -8.2760147176     0.7519225995    -0.3188173884
    2      C      -7.4731818335     1.2776183293    -1.3184441292
    3      C      -7.6925001070     0.1267228149     0.7730552953
    4      C      -6.0946079418     1.1834524904    -1.2233697251
    5      C      -6.3152846908     0.0286178421     0.8681156466
    6      C      -5.4996371187     0.5666419087    -0.1251605430
    7      C      -4.0290765867     0.4944731503    -0.0268231555
    8      C      -3.2347276523     1.5844516787    -0.2556303507
    9      C      -3.3293965706    -0.6965003695     0.3189358446
   10      N      -1.8754900934     1.6131711004    -0.2087576512
   11      N      -3.8460394540    -1.8977456307     0.5896134325
   12      C      -1.9031307757    -0.6760644002     0.3847596980
   13      C      -1.2083493504     0.5432929317     0.1109163372
   14      S      -2.5991717277    -2.8682535437     0.8962540513
   15      N      -1.3668579504    -1.8535544547     0.7078532328
   16      C       0.2633859797     0.6276396221     0.1468991245
   17      N       0.9073807400     1.6542763723     0.6094096100
   18      S       1.2745433550    -0.5931513836    -0.5554830838
   19      C       2.2450230732     1.5171557013     0.4235959956
   20      C       2.6568688389     0.3766727253    -0.2082824885
   21      C       4.0110052520    -0.0306565489    -0.5171678077
   22      S       4.3946861925    -1.0060220495    -1.8932702022
   23      C       5.1689921311     0.2739115555     0.1459921557
   24      C       6.0695481833    -1.0123783962    -1.5586111194
   25      S       5.5417222200     1.1771189031     1.5881382429
   26      C       6.3469784611    -0.2822262496    -0.4371261854
   27      C       7.2397572241     0.8002974261     1.3945637435
   28      C       7.5272725942     0.0491764342     0.3195878054
   29      H      -9.3525529277     0.8242287257    -0.3929032331
   30      H      -7.9198700816     1.7545180622    -2.1800135652
   31      H      -8.3131551625    -0.2874849277     1.5556698183
   32      H      -5.4710650287     1.5779298456    -2.0146824530
   33      H      -5.8680508953    -0.4607457652     1.7213345711
   34      H      -3.6954188959     2.5329976382    -0.5020580138
   35      H       2.9097935715     2.3013796449     0.7539897091
   36      H       6.7464989014    -1.5545495689    -2.1959525472
   37      H       7.9367559633     1.1797127920     2.1240499233
   38      H       8.5261377575    -0.2656752185     0.0608746271
 ----------------------------------------------------------------

    9   -2579.8565040356      5.44E-09 Convergence criterion met
 Total energy in the final basis set = -2579.8565040356
 Final energy is   -2579.85650403562
 **  OPTIMIZATION CONVERGED  **

                    Orbital Energies (a.u.)
 --------------------------------------------------------------

 Alpha MOs
 -- Occupied --
-89.155 -89.091 -89.090 -89.078 -14.492 -14.487 -14.451 -14.442
-10.364 -10.363 -10.360 -10.358 -10.343 -10.342 -10.335 -10.332
-10.330 -10.327 -10.326 -10.322 -10.313 -10.312 -10.305 -10.298
-10.297 -10.296 -10.296 -10.295  -8.165  -8.105  -8.105  -8.093
 -6.115  -6.109  -6.109  -6.055  -6.054  -6.051  -6.051  -6.048
 -6.048  -6.043  -6.039  -6.035  -1.151  -1.086  -1.062  -1.023
 -1.015  -0.975  -0.959  -0.926  -0.918  -0.903  -0.876  -0.860
 -0.856  -0.834  -0.829  -0.802  -0.776  -0.745  -0.737  -0.713
 -0.708  -0.693  -0.691  -0.660  -0.652  -0.637  -0.629  -0.616
 -0.607  -0.598  -0.576  -0.566  -0.561  -0.548  -0.542  -0.531
 -0.527  -0.526  -0.516  -0.515  -0.508  -0.503  -0.498  -0.486
 -0.480  -0.476  -0.470  -0.456  -0.450  -0.440  -0.437  -0.435
 -0.431  -0.424  -0.423  -0.405  -0.392  -0.373  -0.364  -0.363
 -0.360  -0.355  -0.340  -0.337  -0.324  -0.309  -0.275

          Ground-State Mulliken Net Atomic Charges

     Atom                 Charge (a.u.)
  ----------------------------------------
      1 C                    -0.124137
      2 C                    -0.108926
      3 C                    -0.109314
      4 C                    -0.151416
      5 C                    -0.121161
      6 C                     0.119266
      7 C                     0.012849
      8 C                    -0.102121
      9 C                     0.034602
     10 N                    -0.123825
     11 N                    -0.277444
     12 C                     0.005215
     13 C                     0.067053
     14 S                     0.415012
     15 N                    -0.269192
     16 C                     0.002131
     17 N                    -0.132739
     18 S                     0.113635
     19 C                    -0.149548
     20 C                    -0.015605
     21 C                     0.006711
     22 S                     0.130983
     23 C                    -0.052937
     24 C                    -0.222514
     25 S                     0.057073
     26 C                     0.045231
     27 C                    -0.145796
     28 C                    -0.172877
     29 H                     0.118542
     30 H                     0.115299
     31 H                     0.116284
     32 H                     0.130077
     33 H                     0.114015
     34 H                     0.137821
     35 H                     0.146857
     36 H                     0.130087
     37 H                     0.132797
     38 H                     0.128013
  ----------------------------------------
  Sum of atomic charges =     0.000000

                    Cartesian Multipole Moments
 -----------------------------------------------------------------
    Charge (ESU x 10^10)
                 0.0000
    Dipole Moment (Debye)
         X       0.6508      Y      -1.9609      Z      -0.5429
       Tot       2.1363
    Quadrupole Moments (Debye-Ang)
        XX    -137.6761     XY      -3.3466     YY    -187.3153
        XZ      -0.1728     YZ      -0.9518     ZZ    -180.4211

 Total job time:  5288.51s(wall), 79123.70s(cpu)
        *  Thank you very much for using Q-Chem.  Have a nice day.  *
