 Q-Chem 4.4, Q-Chem, Inc., Pleasanton, CA (2016)
 Q-Chem 4.4.2 for Intel X86 Linux

User input:
--------------------------------------------------------------
$comment
OPTIMIZATION
$end

$rem
JOBTYPE OPT
EXCHANGE omegaB97X-D
BASIS cc-pVTZ
$end

$molecule
0 1
C          0.00000        0.00000        0.00000
C          1.38599        0.00000        0.00000
C         -0.68515       -1.20581        0.00000
C          2.08055       -1.19709        0.02226
C          0.00742       -2.40411        0.01179
C          1.40063       -2.41271        0.04151
C          2.15950       -3.67324        0.15696
C          3.15000       -3.81753        1.08952
C          1.92849       -4.81544       -0.65861
N          3.90172       -4.92812        1.27968
N          1.02636       -4.93526       -1.63501
C          2.72047       -5.99481       -0.47371
C          3.72589       -5.99344        0.54686
S          1.20518       -6.42345       -2.22449
N          2.39935       -6.98227       -1.31015
C          4.58521       -7.13898        0.84639
N          5.83984       -7.25923        0.54419
S          3.90670       -8.49913        1.69224
C          6.32896       -8.45303        0.96517
C          5.44424       -9.27701        1.60604
C          5.70965      -10.57462        2.18786
S          4.50514      -11.81549        2.28341
C          6.87351      -11.04376        2.73189
C          5.55328      -12.92115        3.05794
S          8.45113      -10.35298        3.00490
C          6.79491      -12.37637        3.23392
C          8.97069      -11.83583        3.78044
C          8.03601      -12.79764        3.83153
H         -0.54342        0.93472        0.00000
H          1.93260        0.93382       -0.01501
H         -1.76734       -1.21268        0.00047
H          3.16263       -1.19509        0.00785
H         -0.53593       -3.33924        0.01382
H          3.36185       -2.99842        1.76492
H          7.36030       -8.70690        0.76917
H          5.20391      -13.89619        3.34857
H          9.97536      -11.87994        4.16848
H          8.20014      -13.76175        4.28654
$end

$opt
CONSTRAINT
tors 4 6 7 8 47.06187
tors 10 13 16 18 105.00000
tors 18 20 21 22 32.71647
ENDCONSTRAINT
$end
--------------------------------------------------------------

   16   -2579.8526503622      4.34E-09 Convergence criterion met
 Total energy in the final basis set = -2579.8526503622
   12   -2579.8539570286      9.71E-09 Convergence criterion met
 Total energy in the final basis set = -2579.8539570286
   12   -2579.8541694226      6.45E-09 Convergence criterion met
 Total energy in the final basis set = -2579.8541694226
   11   -2579.8541935135      5.45E-09 Convergence criterion met
 Total energy in the final basis set = -2579.8541935135
   10   -2579.8541997068      5.10E-09 Convergence criterion met
 Total energy in the final basis set = -2579.8541997068
    9   -2579.8542009003      4.29E-09 Convergence criterion met
 Total energy in the final basis set = -2579.8542009003

             Standard Nuclear Orientation (Angstroms)
    I     Atom           X                Y                Z
 ----------------------------------------------------------------
    1      C       8.1455087378     1.1767774813    -0.7171361422
    2      C       7.3861041393     2.1111992832    -0.0315151429
    3      C       7.5429229826     0.0296359487    -1.2117510537
    4      C       6.0293904008     1.9021662290     0.1522417670
    5      C       6.1880137339    -0.1831384362    -1.0255684605
    6      C       5.4137903103     0.7586715217    -0.3514689461
    7      C       3.9621024825     0.5654976099    -0.1677000140
    8      C       3.0648071750     1.5644499442    -0.4269484907
    9      C       3.3901979985    -0.6607111950     0.2770815730
   10      N       1.7122846154     1.4895971858    -0.2764602582
   11      N       4.0229914178    -1.7928739775     0.5958225084
   12      C       1.9755160324    -0.7496254124     0.4402368346
   13      C       1.1687616017     0.3901104358     0.1502294360
   14      S       2.8815971191    -2.8340527045     1.0489422071
   15      N       1.5575989834    -1.9391737461     0.8771244906
   16      C      -0.3027314924     0.3472931469     0.3220912231
   17      N      -0.9320421503     0.9512435459     1.2770864139
   18      S      -1.3196152455    -0.4912548516    -0.7983108396
   19      C      -2.2768159691     0.7560209450     1.1719757397
   20      C      -2.6996540139     0.0000111630     0.1177288740
   21      C      -4.0598214716    -0.3320894772    -0.2506246576
   22      S      -4.4750467838    -1.8102140664    -1.0469780285
   23      C      -5.2015489374     0.3914585066    -0.0364020314
   24      C      -6.1420502822    -1.4405886133    -1.0998946854
   25      S      -5.5390996549     1.9461491312     0.6729504910
   26      C      -6.3927955748    -0.2301111962    -0.5172346541
   27      C      -7.2416415373     1.7445183585     0.3216594920
   28      C      -7.5549458320     0.5895716055    -0.2869565621
   29      H       9.2047667485     1.3390306453    -0.8627987237
   30      H       7.8495741492     3.0022712533     0.3689467622
   31      H       8.1310283962    -0.7033465672    -1.7466333383
   32      H       5.4414718187     2.6225267537     0.7053746861
   33      H       5.7264318141    -1.0817061212    -1.4093822177
   34      H       3.4249703821     2.5146846665    -0.8003834060
   35      H      -2.9329363136     1.1795795187     1.9175748752
   36      H      -6.8352440600    -2.1264819122    -1.5554411763
   37      H      -7.9217793574     2.5314875265     0.6041507442
   38      H      -8.5599259259     0.3168865013    -0.5689373664
 ----------------------------------------------------------------

    8   -2579.8542012151      7.17E-09 Convergence criterion met
 Total energy in the final basis set = -2579.8542012151
 Final energy is   -2579.85420121513
 **  OPTIMIZATION CONVERGED  **

                    Orbital Energies (a.u.)
 --------------------------------------------------------------

 Alpha MOs
 -- Occupied --
-89.155 -89.090 -89.090 -89.077 -14.492 -14.487 -14.455 -14.443
-10.364 -10.364 -10.361 -10.357 -10.343 -10.342 -10.336 -10.332
-10.329 -10.328 -10.326 -10.322 -10.313 -10.313 -10.305 -10.299
-10.297 -10.297 -10.296 -10.296  -8.165  -8.105  -8.105  -8.092
 -6.115  -6.109  -6.109  -6.054  -6.054  -6.051  -6.050  -6.048
 -6.048  -6.042  -6.038  -6.034  -1.151  -1.086  -1.064  -1.023
 -1.015  -0.976  -0.958  -0.926  -0.919  -0.903  -0.877  -0.860
 -0.857  -0.835  -0.828  -0.802  -0.776  -0.746  -0.737  -0.713
 -0.709  -0.694  -0.691  -0.660  -0.651  -0.636  -0.633  -0.617
 -0.607  -0.598  -0.576  -0.566  -0.562  -0.548  -0.544  -0.530
 -0.527  -0.523  -0.516  -0.515  -0.511  -0.501  -0.494  -0.487
 -0.480  -0.477  -0.470  -0.455  -0.451  -0.438  -0.437  -0.434
 -0.432  -0.424  -0.423  -0.405  -0.391  -0.374  -0.369  -0.363
 -0.358  -0.355  -0.340  -0.335  -0.323  -0.315  -0.276

          Ground-State Mulliken Net Atomic Charges

     Atom                 Charge (a.u.)
  ----------------------------------------
      1 C                    -0.123199
      2 C                    -0.107826
      3 C                    -0.108268
      4 C                    -0.150684
      5 C                    -0.122749
      6 C                     0.118720
      7 C                     0.015376
      8 C                    -0.103337
      9 C                     0.027166
     10 N                    -0.130378
     11 N                    -0.278207
     12 C                     0.005524
     13 C                     0.049587
     14 S                     0.416232
     15 N                    -0.252194
     16 C                     0.042895
     17 N                    -0.154375
     18 S                     0.112057
     19 C                    -0.152191
     20 C                    -0.014524
     21 C                     0.001536
     22 S                     0.130301
     23 C                    -0.051633
     24 C                    -0.222135
     25 S                     0.058530
     26 C                     0.043699
     27 C                    -0.145365
     28 C                    -0.173323
     29 H                     0.117927
     30 H                     0.115778
     31 H                     0.115727
     32 H                     0.131046
     33 H                     0.114442
     34 H                     0.136428
     35 H                     0.147077
     36 H                     0.130320
     37 H                     0.132267
     38 H                     0.127752
  ----------------------------------------
  Sum of atomic charges =     0.000000

                    Cartesian Multipole Moments
 -----------------------------------------------------------------
    Charge (ESU x 10^10)
                 0.0000
    Dipole Moment (Debye)
         X      -0.3566      Y      -1.3547      Z      -1.1243
       Tot       1.7962
    Quadrupole Moments (Debye-Ang)
        XX    -137.9259     XY       2.1223     YY    -178.2872
        XZ       0.2808     YZ       4.5421     ZZ    -188.0121

 Total job time:  4999.50s(wall), 74740.76s(cpu)
        *  Thank you very much for using Q-Chem.  Have a nice day.  *
