 Q-Chem 4.4, Q-Chem, Inc., Pleasanton, CA (2016)
 Q-Chem 4.4.2 for Intel X86 Linux

User input:
--------------------------------------------------------------
$comment
OPTIMIZATION
$end

$rem
JOBTYPE OPT
EXCHANGE omegaB97X-D
BASIS cc-pVTZ
$end

$molecule
0 1
C          0.00000        0.00000        0.00000
C          1.38599        0.00000        0.00000
C         -0.68515       -1.20581        0.00000
C          2.08055       -1.19709        0.02226
C          0.00742       -2.40411        0.01179
C          1.40063       -2.41271        0.04151
C          2.15950       -3.67324        0.15696
C          3.15000       -3.81753        1.08952
C          1.92849       -4.81544       -0.65861
N          3.90172       -4.92812        1.27968
N          1.02636       -4.93526       -1.63501
C          2.72047       -5.99481       -0.47371
C          3.72589       -5.99344        0.54686
S          1.20518       -6.42345       -2.22449
N          2.39935       -6.98227       -1.31015
C          4.58521       -7.13898        0.84639
N          5.41997       -7.70757        0.03413
S          4.52128       -7.84378        2.43542
C          6.05114       -8.74770        0.63526
C          5.70526       -8.99496        1.93587
C          6.24932      -10.00537        2.81669
S          5.31966      -10.73380        4.08352
C          7.50554      -10.54621        2.82153
C          6.61170      -11.72176        4.60844
S          8.94822      -10.27404        1.88069
C          7.72424      -11.52091        3.83948
C          9.80988      -11.44836        2.85473
C          9.07493      -12.02114        3.82069
H         -0.54342        0.93472        0.00000
H          1.93260        0.93382       -0.01501
H         -1.76734       -1.21268        0.00047
H          3.16263       -1.19509        0.00785
H         -0.53593       -3.33924        0.01382
H          3.36185       -2.99842        1.76492
H          6.76665       -9.33323        0.07693
H          6.49069      -12.38162        5.44937
H         10.84988      -11.62531        2.63341
H          9.46581      -12.75425        4.50862
$end

$opt
CONSTRAINT
tors 4 6 7 8 47.06187
tors 10 13 16 18 60.00000
tors 18 20 21 22 32.71647
ENDCONSTRAINT
$end
--------------------------------------------------------------

   16   -2579.8553900888      4.58E-09 Convergence criterion met
 Total energy in the final basis set = -2579.8553900888
   13   -2579.8564981594      4.97E-09 Convergence criterion met
 Total energy in the final basis set = -2579.8564981594
   13   -2579.8568029789      4.57E-09 Convergence criterion met
 Total energy in the final basis set = -2579.8568029789
   12   -2579.8568767243      6.12E-09 Convergence criterion met
 Total energy in the final basis set = -2579.8568767243
   11   -2579.8568988578      6.24E-09 Convergence criterion met
 Total energy in the final basis set = -2579.8568988578
    9   -2579.8569035193      9.09E-09 Convergence criterion met
 Total energy in the final basis set = -2579.8569035193

             Standard Nuclear Orientation (Angstroms)
    I     Atom           X                Y                Z
 ----------------------------------------------------------------
    1      C      -8.0919299922     1.5167164092    -0.0984328961
    2      C      -7.2356836901     2.1094471161    -1.0124437244
    3      C      -7.5923868938     0.6043786984     0.8192328452
    4      C      -5.8867408713     1.7954832809    -1.0043171758
    5      C      -6.2451933792     0.2868986957     0.8270101575
    6      C      -5.3744188213     0.8890062056    -0.0787956469
    7      C      -3.9307305543     0.5826151261    -0.0734686848
    8      C      -2.9861565445     1.5696049987    -0.1261697057
    9      C      -3.4161949529    -0.7437959941     0.0028503318
   10      N      -1.6370680592     1.3853597414    -0.1625379744
   11      N      -4.1082309090    -1.8822691945     0.0888259799
   12      C      -2.0032420662    -0.9498020199    -0.0143965654
   13      C      -1.1409887552     0.1844447018    -0.1101578004
   14      S      -3.0173654698    -3.0655135831     0.1551751188
   15      N      -1.6474917829    -2.2316024683     0.0755440079
   16      C       0.3212405454     0.0207209041    -0.2159783122
   17      N       0.9054972578    -0.7206220061    -1.1023147851
   18      S       1.3869678043     0.7541144822     0.9324909855
   19      C       2.2541249057    -0.7234969239    -0.9192615564
   20      C       2.7235362887     0.0042470585     0.1370740854
   21      C       4.1000258033     0.1934055356     0.5443857252
   22      S       4.5557632784     0.4395246371     2.1947594967
   23      C       5.2280537121     0.1898321143    -0.2306486514
   24      C       6.2209778164     0.5543100123     1.8316489005
   25      S       5.5290069398     0.0244565893    -1.9384660026
   26      C       6.4408891961     0.3967004530     0.4921337354
   27      C       7.2454584783     0.2302215545    -1.6638076814
   28      C       7.5885170868     0.4117329552    -0.3785884793
   29      H      -9.1459587189     1.7588169194    -0.1047184421
   30      H      -7.6171122888     2.8131563826    -1.7395358836
   31      H      -8.2560998997     0.1344104387     1.5319545996
   32      H      -5.2236109912     2.2450570990    -1.7314741527
   33      H      -5.8653499632    -0.4300264316     1.5407102208
   34      H      -3.3008544559     2.6053186604    -0.1488442536
   35      H       2.8772833202    -1.3038308177    -1.5829998143
   36      H       6.9369289127     0.7365053430     2.6143382916
   37      H       7.9067068375     0.1996039101    -2.5144840826
   38      H       8.6048634331     0.5551912690    -0.0464879119
 ----------------------------------------------------------------

    9   -2579.8569045616      4.77E-09 Convergence criterion met
 Total energy in the final basis set = -2579.8569045616
 Final energy is   -2579.85690456156
 **  OPTIMIZATION CONVERGED  **

                    Orbital Energies (a.u.)
 --------------------------------------------------------------

 Alpha MOs
 -- Occupied --
-89.152 -89.090 -89.089 -89.078 -14.488 -14.484 -14.455 -14.443
-10.364 -10.363 -10.359 -10.356 -10.343 -10.342 -10.335 -10.332
-10.330 -10.327 -10.326 -10.322 -10.313 -10.312 -10.305 -10.298
-10.297 -10.296 -10.296 -10.295  -8.162  -8.105  -8.105  -8.092
 -6.112  -6.106  -6.106  -6.054  -6.054  -6.050  -6.050  -6.048
 -6.048  -6.042  -6.038  -6.034  -1.148  -1.086  -1.064  -1.023
 -1.012  -0.975  -0.958  -0.925  -0.920  -0.900  -0.877  -0.860
 -0.856  -0.834  -0.828  -0.802  -0.775  -0.745  -0.736  -0.712
 -0.707  -0.694  -0.691  -0.661  -0.651  -0.636  -0.631  -0.616
 -0.607  -0.598  -0.575  -0.565  -0.560  -0.549  -0.543  -0.530
 -0.526  -0.525  -0.515  -0.513  -0.511  -0.500  -0.499  -0.485
 -0.478  -0.477  -0.470  -0.455  -0.450  -0.439  -0.437  -0.433
 -0.431  -0.423  -0.422  -0.402  -0.391  -0.376  -0.369  -0.363
 -0.357  -0.355  -0.340  -0.337  -0.324  -0.311  -0.275

          Ground-State Mulliken Net Atomic Charges

     Atom                 Charge (a.u.)
  ----------------------------------------
      1 C                    -0.123778
      2 C                    -0.108639
      3 C                    -0.109996
      4 C                    -0.151922
      5 C                    -0.121467
      6 C                     0.118658
      7 C                     0.016011
      8 C                    -0.109722
      9 C                     0.031987
     10 N                    -0.154346
     11 N                    -0.280784
     12 C                    -0.000558
     13 C                     0.070016
     14 S                     0.414464
     15 N                    -0.238102
     16 C                     0.045683
     17 N                    -0.154316
     18 S                     0.112728
     19 C                    -0.149232
     20 C                    -0.019630
     21 C                     0.006024
     22 S                     0.130412
     23 C                    -0.053421
     24 C                    -0.221154
     25 S                     0.056586
     26 C                     0.044782
     27 C                    -0.146100
     28 C                    -0.173497
     29 H                     0.118462
     30 H                     0.116084
     31 H                     0.115875
     32 H                     0.130795
     33 H                     0.114594
     34 H                     0.137139
     35 H                     0.145295
     36 H                     0.129659
     37 H                     0.133204
     38 H                     0.128208
  ----------------------------------------
  Sum of atomic charges =     0.000000

                    Cartesian Multipole Moments
 -----------------------------------------------------------------
    Charge (ESU x 10^10)
                 0.0000
    Dipole Moment (Debye)
         X       0.5664      Y       0.1945      Z       1.1232
       Tot       1.2729
    Quadrupole Moments (Debye-Ang)
        XX    -138.4256     XY      -0.9284     YY    -185.1704
        XZ      -0.1775     YZ      -2.7852     ZZ    -180.0524

 Total job time:  5361.82s(wall), 80190.76s(cpu)
        *  Thank you very much for using Q-Chem.  Have a nice day.  *
