 Q-Chem 4.4, Q-Chem, Inc., Pleasanton, CA (2016)
 Q-Chem 4.4.2 for Intel X86 Linux

User input:
--------------------------------------------------------------
$comment
OPTIMIZATION
$end

$rem
JOBTYPE OPT
EXCHANGE omegaB97X-D
BASIS cc-pVTZ
$end

$molecule
0 1
C          0.00000        0.00000        0.00000
C          1.38599        0.00000        0.00000
C         -0.68515       -1.20581        0.00000
C          2.08055       -1.19709        0.02226
C          0.00742       -2.40411        0.01179
C          1.40063       -2.41271        0.04151
C          2.15950       -3.67324        0.15696
C          3.15000       -3.81753        1.08952
C          1.92849       -4.81544       -0.65861
N          3.90172       -4.92812        1.27968
N          1.02636       -4.93526       -1.63501
C          2.72047       -5.99481       -0.47371
C          3.72589       -5.99344        0.54686
S          1.20518       -6.42345       -2.22449
N          2.39935       -6.98227       -1.31015
C          4.58521       -7.13898        0.84639
N          5.08157       -7.44646        2.00353
S          5.01089       -8.22862       -0.44098
C          5.83994       -8.56906        1.92437
C          5.93699       -9.14740        0.68806
C          6.63944      -10.36169        0.33474
S          7.33407      -10.61255       -1.23187
C          6.87893      -11.46441        1.10759
C          7.90819      -12.17496       -0.84425
S          6.45407      -11.92141        2.73584
C          7.59648      -12.50415        0.44566
C          7.22779      -13.47659        2.50559
C          7.77992      -13.65297        1.29507
H         -0.54342        0.93472        0.00000
H          1.93260        0.93382       -0.01501
H         -1.76734       -1.21268        0.00047
H          3.16263       -1.19509        0.00785
H         -0.53593       -3.33924        0.01382
H          3.36185       -2.99842        1.76492
H          6.33665       -8.94165        2.80810
H          8.42839      -12.76547       -1.57768
H          7.20360      -14.18063        3.32144
H          8.28229      -14.56004        0.99786
$end

$opt
CONSTRAINT
tors 4 6 7 8 47.06187
tors 10 13 16 18 -150.00000
tors 18 20 21 22 32.71647
ENDCONSTRAINT
$end
--------------------------------------------------------------

   16   -2579.8559836451      4.14E-09 Convergence criterion met
 Total energy in the final basis set = -2579.8559836451
   12   -2579.8573210381      8.60E-09 Convergence criterion met
 Total energy in the final basis set = -2579.8573210381
   12   -2579.8575934583      6.36E-09 Convergence criterion met
 Total energy in the final basis set = -2579.8575934583
   11   -2579.8576524951      8.72E-09 Convergence criterion met
 Total energy in the final basis set = -2579.8576524951
   11   -2579.8576692849      5.44E-09 Convergence criterion met
 Total energy in the final basis set = -2579.8576692849
   10   -2579.8576721765      6.27E-09 Convergence criterion met
 Total energy in the final basis set = -2579.8576721765

             Standard Nuclear Orientation (Angstroms)
    I     Atom           X                Y                Z
 ----------------------------------------------------------------
    1      C      -8.2862834209     0.7729557768    -0.2405315851
    2      C      -7.5103548805     1.2501742408    -1.2847139820
    3      C      -7.6746559318     0.1885814939     0.8585745247
    4      C      -6.1301933792     1.1496935387    -1.2261432521
    5      C      -6.2957620071     0.0848761098     0.9176821152
    6      C      -5.5066994602     0.5759045921    -0.1204178577
    7      C      -4.0344003340     0.4998829409    -0.0623943124
    8      C      -3.2425416802     1.5753587379    -0.3601274906
    9      C      -3.3274819048    -0.6762318151     0.3158360573
   10      N      -1.8841450959     1.6009543818    -0.3511664845
   11      N      -3.8397107761    -1.8624298868     0.6529003377
   12      C      -1.8994458922    -0.6586472004     0.3418273569
   13      C      -1.2065157221     0.5446207703    -0.0053241545
   14      S      -2.5892550183    -2.8251777434     0.9668433045
   15      N      -1.3603288762    -1.8238690874     0.7000252265
   16      C       0.2629840671     0.6347445042    -0.0092670090
   17      N       0.9030519994     1.7549925062     0.1419696822
   18      S       1.2876364819    -0.7306184926    -0.3253794725
   19      C       2.2394719661     1.5807809713     0.0036232691
   20      C       2.6605299231     0.3089920575    -0.2750405798
   21      C       4.0188675598    -0.1608993838    -0.4410531541
   22      S       4.4222306160    -1.4984624184    -1.4614879400
   23      C       5.1690427934     0.3378803140     0.1089450798
   24      C       6.0935668647    -1.3914667416    -1.1258508240
   25      S       5.5215831226     1.6357868848     1.2152255688
   26      C       6.3554412136    -0.3573074687    -0.2712542995
   27      C       7.2241846738     1.2333569339     1.1566455135
   28      C       7.5266388048     0.1959018760     0.3599975051
   29      H      -9.3640826411     0.8503183108    -0.2854940241
   30      H      -7.9785695025     1.6957151365    -2.1515985778
   31      H      -8.2743313102    -0.1883884929     1.6756292538
   32      H      -5.5277735523     1.5065710307    -2.0509804603
   33      H      -5.8271446287    -0.3737136342     1.7764992236
   34      H      -3.7069662247     2.5139127373    -0.6365208039
   35      H       2.8967078287     2.4324682942     0.0994183235
   36      H       6.7822422339    -2.0892479309    -1.5701337024
   37      H       7.9087408623     1.8242612878     1.7431981363
   38      H       8.5293390251    -0.1755688218     0.2170076050
 ----------------------------------------------------------------

    9   -2579.8576727761      5.42E-09 Convergence criterion met
 Total energy in the final basis set = -2579.8576727761
 Final energy is   -2579.85767277609
 **  OPTIMIZATION CONVERGED  **

                    Orbital Energies (a.u.)
 --------------------------------------------------------------

 Alpha MOs
 -- Occupied --
-89.155 -89.091 -89.089 -89.078 -14.492 -14.487 -14.450 -14.441
-10.364 -10.362 -10.360 -10.358 -10.343 -10.342 -10.334 -10.333
-10.330 -10.327 -10.325 -10.322 -10.313 -10.312 -10.305 -10.298
-10.296 -10.296 -10.295 -10.295  -8.165  -8.105  -8.105  -8.093
 -6.115  -6.109  -6.109  -6.055  -6.054  -6.051  -6.050  -6.048
 -6.048  -6.043  -6.039  -6.035  -1.151  -1.086  -1.061  -1.023
 -1.015  -0.975  -0.959  -0.926  -0.918  -0.903  -0.876  -0.860
 -0.856  -0.834  -0.829  -0.802  -0.776  -0.745  -0.736  -0.713
 -0.707  -0.693  -0.691  -0.660  -0.653  -0.637  -0.627  -0.616
 -0.607  -0.598  -0.576  -0.565  -0.561  -0.547  -0.541  -0.531
 -0.528  -0.526  -0.515  -0.514  -0.510  -0.502  -0.498  -0.486
 -0.480  -0.476  -0.470  -0.457  -0.449  -0.441  -0.437  -0.435
 -0.432  -0.424  -0.422  -0.404  -0.392  -0.373  -0.364  -0.363
 -0.359  -0.355  -0.340  -0.338  -0.325  -0.308  -0.273

          Ground-State Mulliken Net Atomic Charges

     Atom                 Charge (a.u.)
  ----------------------------------------
      1 C                    -0.124477
      2 C                    -0.108947
      3 C                    -0.109512
      4 C                    -0.151236
      5 C                    -0.121241
      6 C                     0.119919
      7 C                     0.010647
      8 C                    -0.101329
      9 C                     0.035378
     10 N                    -0.122043
     11 N                    -0.277024
     12 C                     0.011662
     13 C                     0.069787
     14 S                     0.414338
     15 N                    -0.277864
     16 C                    -0.007260
     17 N                    -0.129177
     18 S                     0.116491
     19 C                    -0.147373
     20 C                    -0.018047
     21 C                     0.006879
     22 S                     0.131597
     23 C                    -0.052225
     24 C                    -0.222642
     25 S                     0.057212
     26 C                     0.044626
     27 C                    -0.144929
     28 C                    -0.173038
     29 H                     0.118535
     30 H                     0.115281
     31 H                     0.116257
     32 H                     0.130216
     33 H                     0.113396
     34 H                     0.137861
     35 H                     0.147126
     36 H                     0.130738
     37 H                     0.132530
     38 H                     0.127888
  ----------------------------------------
  Sum of atomic charges =     0.000000

                    Cartesian Multipole Moments
 -----------------------------------------------------------------
    Charge (ESU x 10^10)
                 0.0000
    Dipole Moment (Debye)
         X       0.7472      Y      -2.0551      Z      -0.0510
       Tot       2.1873
    Quadrupole Moments (Debye-Ang)
        XX    -137.8064     XY      -3.2754     YY    -185.4916
        XZ       0.5025     YZ      -0.1676     ZZ    -182.1623

 Total job time:  5253.27s(wall), 78594.42s(cpu)
        *  Thank you very much for using Q-Chem.  Have a nice day.  *
