 Q-Chem 4.4, Q-Chem, Inc., Pleasanton, CA (2016)
 Q-Chem 4.4.2 for Intel X86 Linux

User input:
--------------------------------------------------------------
$comment
OPTIMIZATION
$end

$rem
JOBTYPE OPT
EXCHANGE omegaB97X-D
BASIS cc-pVTZ
$end

$molecule
0 1
C          0.00000        0.00000        0.00000
C          1.38599        0.00000        0.00000
C         -0.68515       -1.20581        0.00000
C          2.08055       -1.19709        0.02226
C          0.00742       -2.40411        0.01179
C          1.40063       -2.41271        0.04151
C          2.15950       -3.67324        0.15696
C          3.15000       -3.81753        1.08952
C          1.92849       -4.81544       -0.65861
N          3.90172       -4.92812        1.27968
N          1.02636       -4.93526       -1.63501
C          2.72047       -5.99481       -0.47371
C          3.72589       -5.99344        0.54686
S          1.20518       -6.42345       -2.22449
N          2.39935       -6.98227       -1.31015
C          4.58521       -7.13898        0.84639
N          4.40935       -8.35847        0.44412
S          5.99663       -6.89451        1.83329
C          5.39118       -9.17066        0.91097
C          6.34821       -8.57735        1.68844
C          7.51743       -9.19598        2.27410
S          8.21440       -8.64656        3.76141
C          8.24528      -10.25619        1.80846
C          9.46436       -9.81171        3.72945
S          8.15320      -11.26114        0.38643
C          9.35792      -10.61260        2.62644
C          9.58810      -12.12593        0.89967
C         10.10859      -11.70533        2.06307
H         -0.54342        0.93472        0.00000
H          1.93260        0.93382       -0.01501
H         -1.76734       -1.21268        0.00047
H          3.16263       -1.19509        0.00785
H         -0.53593       -3.33924        0.01382
H          3.36185       -2.99842        1.76492
H          5.37109      -10.22411        0.67351
H         10.20750       -9.83996        4.50673
H          9.96140      -12.91158        0.26305
H         10.99623      -12.13019        2.50473
$end

$opt
CONSTRAINT
tors 4 6 7 8 47.06187
tors 10 13 16 18 -15.00000
tors 18 20 21 22 32.71647
ENDCONSTRAINT
$end
--------------------------------------------------------------

   16   -2579.8617464725      4.69E-09 Convergence criterion met
 Total energy in the final basis set = -2579.8617464725
   12   -2579.8620329808      6.69E-09 Convergence criterion met
 Total energy in the final basis set = -2579.8620329808
   12   -2579.8621314238      4.54E-09 Convergence criterion met
 Total energy in the final basis set = -2579.8621314238
   10   -2579.8621484937      7.32E-09 Convergence criterion met
 Total energy in the final basis set = -2579.8621484937
    9   -2579.8621523485      6.07E-09 Convergence criterion met
 Total energy in the final basis set = -2579.8621523485

             Standard Nuclear Orientation (Angstroms)
    I     Atom           X                Y                Z
 ----------------------------------------------------------------
    1      C      -8.0426528719     1.5358405181    -0.2467446382
    2      C      -7.1230869803     2.1301362378    -1.0960214335
    3      C      -7.6184687338     0.5765969669     0.6608318156
    4      C      -5.7865167176     1.7715953694    -1.0333245938
    5      C      -6.2842184959     0.2143740582     0.7223126792
    6      C      -5.3500107704     0.8165509345    -0.1179665732
    7      C      -3.9198818323     0.4611176480    -0.0437302362
    8      C      -2.9396807866     1.4136857465    -0.0063088923
    9      C      -3.4551454781    -0.8839554952     0.0087119792
   10      N      -1.6067158192     1.1754587723     0.0758163163
   11      N      -4.1980500649    -1.9920934433    -0.0331696804
   12      C      -2.0509947218    -1.1523260578     0.0857816988
   13      C      -1.1450311013    -0.0436633200     0.1256425840
   14      S      -3.1644476753    -3.2258603943     0.0176638846
   15      N      -1.7604088856    -2.4535151488     0.0925034491
   16      C       0.3062501529    -0.1928117496     0.2382470076
   17      N       0.9422603558    -1.2767364412     0.5586449131
   18      S       1.3242307158     1.1746074602    -0.0943315459
   19      C       2.2824734100    -1.0668762812     0.5775280574
   20      C       2.7002629899     0.1960102474     0.2558711114
   21      C       4.0610314770     0.6816937203     0.1803436648
   22      S       4.4810232691     2.3192429751     0.5488934196
   23      C       5.2022836196    -0.0099521337    -0.1267914517
   24      C       6.1469205359     2.0688870364     0.2712748877
   25      S       5.5399872039    -1.6520964608    -0.6003047830
   26      C       6.3949587533     0.7717400593    -0.0808380891
   27      C       7.2446270599    -1.2740926765    -0.7253673804
   28      C       7.5577583821    -0.0016471303    -0.4341627828
   29      H      -9.0867300870     1.8133999896    -0.2962588501
   30      H      -7.4449429520     2.8699718287    -1.8160203314
   31      H      -8.3307390571     0.1055374288     1.3242529470
   32      H      -5.0749055743     2.2238785817    -1.7114599469
   33      H      -5.9632801559    -0.5373229507     1.4290633654
   34      H      -3.2133403991     2.4612282355    -0.0230470845
   35      H       2.9435242045    -1.8737386307     0.8566525476
   36      H       6.8447152981     2.8804498040     0.3846993720
   37      H       7.9249252271    -2.0584943194    -1.0144941013
   38      H       8.5625015653     0.3900055443    -0.4641096739
 ----------------------------------------------------------------

    8   -2579.8621531574      9.04E-09 Convergence criterion met
 Total energy in the final basis set = -2579.8621531574
 Final energy is   -2579.86215315738
 **  OPTIMIZATION CONVERGED  **

                    Orbital Energies (a.u.)
 --------------------------------------------------------------

 Alpha MOs
 -- Occupied --
-89.149 -89.090 -89.087 -89.078 -14.485 -14.481 -14.453 -14.443
-10.365 -10.362 -10.357 -10.355 -10.343 -10.342 -10.335 -10.333
-10.330 -10.327 -10.324 -10.322 -10.313 -10.311 -10.305 -10.297
-10.296 -10.296 -10.295 -10.294  -8.159  -8.105  -8.102  -8.093
 -6.109  -6.104  -6.103  -6.054  -6.051  -6.050  -6.048  -6.047
 -6.045  -6.043  -6.039  -6.035  -1.146  -1.086  -1.064  -1.023
 -1.010  -0.974  -0.959  -0.925  -0.920  -0.899  -0.877  -0.860
 -0.855  -0.833  -0.828  -0.802  -0.775  -0.744  -0.734  -0.712
 -0.705  -0.693  -0.691  -0.660  -0.651  -0.637  -0.627  -0.614
 -0.606  -0.598  -0.572  -0.564  -0.556  -0.548  -0.542  -0.531
 -0.530  -0.524  -0.515  -0.514  -0.506  -0.505  -0.496  -0.487
 -0.478  -0.475  -0.469  -0.455  -0.449  -0.439  -0.436  -0.433
 -0.430  -0.423  -0.421  -0.400  -0.392  -0.372  -0.371  -0.361
 -0.359  -0.353  -0.339  -0.337  -0.324  -0.307  -0.272

          Ground-State Mulliken Net Atomic Charges

     Atom                 Charge (a.u.)
  ----------------------------------------
      1 C                    -0.124341
      2 C                    -0.108745
      3 C                    -0.109527
      4 C                    -0.152935
      5 C                    -0.121078
      6 C                     0.121601
      7 C                     0.014977
      8 C                    -0.107951
      9 C                     0.032330
     10 N                    -0.174425
     11 N                    -0.279693
     12 C                    -0.014990
     13 C                     0.106282
     14 S                     0.412732
     15 N                    -0.223146
     16 C                    -0.006007
     17 N                    -0.139044
     18 S                     0.122807
     19 C                    -0.143508
     20 C                    -0.016215
     21 C                     0.002990
     22 S                     0.134587
     23 C                    -0.053770
     24 C                    -0.221866
     25 S                     0.057712
     26 C                     0.044028
     27 C                    -0.145864
     28 C                    -0.171994
     29 H                     0.118098
     30 H                     0.115015
     31 H                     0.115768
     32 H                     0.128457
     33 H                     0.114686
     34 H                     0.136665
     35 H                     0.145369
     36 H                     0.130540
     37 H                     0.132431
     38 H                     0.128024
  ----------------------------------------
  Sum of atomic charges =     0.000000

                    Cartesian Multipole Moments
 -----------------------------------------------------------------
    Charge (ESU x 10^10)
                 0.0000
    Dipole Moment (Debye)
         X       0.7970      Y       0.8390      Z      -0.3817
       Tot       1.2185
    Quadrupole Moments (Debye-Ang)
        XX    -139.5494     XY      -0.1506     YY    -177.8079
        XZ      -2.3179     YZ      -1.9843     ZZ    -186.9201

 Total job time:  4427.77s(wall), 65975.01s(cpu)
        *  Thank you very much for using Q-Chem.  Have a nice day.  *
