 Q-Chem 4.4, Q-Chem, Inc., Pleasanton, CA (2016)
 Q-Chem 4.4.2 for Intel X86 Linux

User input:
--------------------------------------------------------------
$comment
OPTIMIZATION
$end

$rem
JOBTYPE OPT
EXCHANGE omegaB97X-D
BASIS cc-pVTZ
$end

$molecule
0 1
C          0.00000        0.00000        0.00000
C          1.38599        0.00000        0.00000
C         -0.68515       -1.20581        0.00000
C          2.08055       -1.19709        0.02226
C          0.00742       -2.40411        0.01179
C          1.40063       -2.41271        0.04151
C          2.15950       -3.67324        0.15696
C          3.15000       -3.81753        1.08952
C          1.92849       -4.81544       -0.65861
N          3.90172       -4.92812        1.27968
N          1.02636       -4.93526       -1.63501
C          2.72047       -5.99481       -0.47371
C          3.72589       -5.99344        0.54686
S          1.20518       -6.42345       -2.22449
N          2.39935       -6.98227       -1.31015
C          4.58521       -7.13898        0.84639
N          4.99245       -8.03608        0.00422
S          5.14588       -7.36423        2.47757
C          5.77088       -8.96217        0.61906
C          5.97542       -8.78586        1.96050
C          6.78959       -9.59335        2.84246
S          6.42821       -9.78673        4.52524
C          7.91551      -10.31084        2.54555
C          7.78056      -10.79248        4.80912
S          8.85918      -10.54546        1.09814
C          8.49022      -10.99379        3.65793
C          9.99440      -11.53506        1.99379
C          9.69434      -11.69469        3.29217
H         -0.54342        0.93472        0.00000
H          1.93260        0.93382       -0.01501
H         -1.76734       -1.21268        0.00047
H          3.16263       -1.19509        0.00785
H         -0.53593       -3.33924        0.01382
H          3.36185       -2.99842        1.76492
H          6.17215       -9.78666        0.04834
H          7.98605      -11.16938        5.79550
H         10.84571      -11.93362        1.46624
H         10.30145      -12.26665        3.97611
$end

$opt
CONSTRAINT
tors 4 6 7 8 47.06187
tors 10 13 16 18 30.00000
tors 18 20 21 22 32.71647
ENDCONSTRAINT
$end
--------------------------------------------------------------

   16   -2579.8601939750      4.44E-09 Convergence criterion met
 Total energy in the final basis set = -2579.8601939750
   12   -2579.8606526269      8.80E-09 Convergence criterion met
 Total energy in the final basis set = -2579.8606526269
   12   -2579.8607943378      6.61E-09 Convergence criterion met
 Total energy in the final basis set = -2579.8607943378
   11   -2579.8608277194      5.74E-09 Convergence criterion met
 Total energy in the final basis set = -2579.8608277194
   10   -2579.8608359527      6.02E-09 Convergence criterion met
 Total energy in the final basis set = -2579.8608359527
    9   -2579.8608381933      4.01E-09 Convergence criterion met
 Total energy in the final basis set = -2579.8608381933

             Standard Nuclear Orientation (Angstroms)
    I     Atom           X                Y                Z
 ----------------------------------------------------------------
    1      C      -8.0220900241     1.5629710501    -0.5079142090
    2      C      -7.1145759305     1.9537327999    -1.4793621112
    3      C      -7.5910117920     0.8088240050     0.5733473364
    4      C      -5.7813620229     1.5955361378    -1.3670790162
    5      C      -6.2598057503     0.4471389498     0.6857354564
    6      C      -5.3373157389     0.8473227218    -0.2789265255
    7      C      -3.9098469670     0.4900748087    -0.1675655031
    8      C      -2.9200509043     1.4142097229    -0.3581330443
    9      C      -3.4568372946    -0.8184479141     0.1666016361
   10      N      -1.5847766993     1.1709685790    -0.3076655627
   11      N      -4.2073133969    -1.8893194383     0.4355960986
   12      C      -2.0535550044    -1.0855573705     0.2426259004
   13      C      -1.1366986602    -0.0201928003    -0.0247342650
   14      S      -3.1799245572    -3.0854542690     0.7628718811
   15      N      -1.7693021602    -2.3427222956     0.5834414156
   16      C       0.3167811436    -0.2075707383    -0.0229702552
   17      N       0.9360831628    -1.3175163541    -0.2784332991
   18      S       1.3507401593     1.1220692821     0.3915512545
   19      C       2.2795351463    -1.1620724550    -0.1602739247
   20      C       2.7146790579     0.0811763263     0.2099530937
   21      C       4.0824804113     0.5218806073     0.3806815066
   22      S       4.5283124108     1.7568813822     1.5067124318
   23      C       5.2122123942     0.0620251399    -0.2412454858
   24      C       6.1897744080     1.6610329191     1.1218252904
   25      S       5.5209174228    -1.1329547381    -1.4703407403
   26      C       6.4169510939     0.7051568490     0.1715446507
   27      C       7.2303363150    -0.7602682049    -1.4143665572
   28      C       7.5655371173     0.1965322574    -0.5342666634
   29      H      -9.0640136259     1.8388974919    -0.5964713130
   30      H      -7.4453785407     2.5306241795    -2.3321099629
   31      H      -8.2962966944     0.5004705050     1.3327458262
   32      H      -5.0772449334     1.8824583926    -2.1367441797
   33      H      -5.9313459988    -0.1475430172     1.5259015110
   34      H      -3.1846088458     2.4411279567    -0.5768237456
   35      H       2.9290818812    -2.0059050887    -0.3392455182
   36      H       6.8976109320     2.3065386937     1.6124691099
   37      H       7.8940179489    -1.3080095979    -2.0634228883
   38      H       8.5770481481     0.5381548963    -0.3794599139
 ----------------------------------------------------------------

    8   -2579.8608388235      7.90E-09 Convergence criterion met
 Total energy in the final basis set = -2579.8608388235
 Final energy is   -2579.86083882347
 **  OPTIMIZATION CONVERGED  **

                    Orbital Energies (a.u.)
 --------------------------------------------------------------

 Alpha MOs
 -- Occupied --
-89.150 -89.090 -89.088 -89.078 -14.486 -14.482 -14.454 -14.444
-10.364 -10.362 -10.357 -10.355 -10.343 -10.342 -10.335 -10.332
-10.330 -10.327 -10.325 -10.322 -10.313 -10.312 -10.305 -10.297
-10.296 -10.296 -10.295 -10.294  -8.160  -8.105  -8.103  -8.093
 -6.110  -6.104  -6.104  -6.055  -6.052  -6.051  -6.049  -6.048
 -6.046  -6.043  -6.039  -6.035  -1.146  -1.086  -1.064  -1.023
 -1.010  -0.975  -0.959  -0.925  -0.920  -0.899  -0.877  -0.860
 -0.855  -0.833  -0.828  -0.802  -0.775  -0.744  -0.735  -0.712
 -0.705  -0.693  -0.691  -0.660  -0.651  -0.637  -0.628  -0.615
 -0.606  -0.598  -0.573  -0.564  -0.557  -0.549  -0.542  -0.531
 -0.529  -0.525  -0.514  -0.512  -0.509  -0.502  -0.499  -0.485
 -0.478  -0.476  -0.469  -0.455  -0.449  -0.439  -0.436  -0.433
 -0.430  -0.423  -0.421  -0.400  -0.392  -0.376  -0.367  -0.363
 -0.357  -0.354  -0.339  -0.338  -0.324  -0.307  -0.274

          Ground-State Mulliken Net Atomic Charges

     Atom                 Charge (a.u.)
  ----------------------------------------
      1 C                    -0.124184
      2 C                    -0.109451
      3 C                    -0.109164
      4 C                    -0.150915
      5 C                    -0.121774
      6 C                     0.120579
      7 C                     0.012362
      8 C                    -0.108699
      9 C                     0.037065
     10 N                    -0.170645
     11 N                    -0.283379
     12 C                    -0.011122
     13 C                     0.096840
     14 S                     0.414239
     15 N                    -0.225951
     16 C                     0.007479
     17 N                    -0.141771
     18 S                     0.120827
     19 C                    -0.146714
     20 C                    -0.020294
     21 C                     0.005718
     22 S                     0.132739
     23 C                    -0.051817
     24 C                    -0.221550
     25 S                     0.056829
     26 C                     0.044304
     27 C                    -0.145008
     28 C                    -0.173199
     29 H                     0.117946
     30 H                     0.115949
     31 H                     0.115232
     32 H                     0.129076
     33 H                     0.114762
     34 H                     0.136452
     35 H                     0.146092
     36 H                     0.130756
     37 H                     0.132425
     38 H                     0.127968
  ----------------------------------------
  Sum of atomic charges =     0.000000

                    Cartesian Multipole Moments
 -----------------------------------------------------------------
    Charge (ESU x 10^10)
                 0.0000
    Dipole Moment (Debye)
         X       0.7690      Y       0.8276      Z       0.4316
       Tot       1.2094
    Quadrupole Moments (Debye-Ang)
        XX    -139.3495     XY      -0.2038     YY    -182.6087
        XZ      -1.1824     YZ      -0.3481     ZZ    -182.0288

 Total job time:  5063.00s(wall), 75744.23s(cpu)
        *  Thank you very much for using Q-Chem.  Have a nice day.  *
