 Q-Chem 4.4, Q-Chem, Inc., Pleasanton, CA (2016)
 Q-Chem 4.4.2 for Intel X86 Linux

User input:
--------------------------------------------------------------
$comment
OPTIMIZATION
$end

$rem
JOBTYPE OPT
EXCHANGE omegaB97X-D
BASIS cc-pVTZ
$end

$molecule
0 1
C          0.00000        0.00000        0.00000
C          1.38599        0.00000        0.00000
C         -0.68515       -1.20581        0.00000
C          2.08055       -1.19709        0.02226
C          0.00742       -2.40411        0.01179
C          1.40063       -2.41271        0.04151
C          2.15950       -3.67324        0.15696
C          3.15000       -3.81753        1.08952
C          1.92849       -4.81544       -0.65861
N          3.90172       -4.92812        1.27968
N          1.02636       -4.93526       -1.63501
C          2.72047       -5.99481       -0.47371
C          3.72589       -5.99344        0.54686
S          1.20518       -6.42345       -2.22449
N          2.39935       -6.98227       -1.31015
C          4.58521       -7.13898        0.84639
N          5.74487       -7.38808        0.32387
S          4.04596       -8.31065        2.01355
C          6.26556       -8.53802        0.82199
C          5.50234       -9.19647        1.74737
C          5.83369      -10.40993        2.46186
S          4.62952      -11.53773        2.98886
C          7.06655      -10.87306        2.83091
C          5.77314      -12.58727        3.70412
S          8.69118      -10.25970        2.67297
C          7.04377      -12.10914        3.54202
C          9.30415      -11.64501        3.55355
C          8.36501      -12.52248        3.94004
H         -0.54342        0.93472        0.00000
H          1.93260        0.93382       -0.01501
H         -1.76734       -1.21268        0.00047
H          3.16263       -1.19509        0.00785
H         -0.53593       -3.33924        0.01382
H          3.36185       -2.99842        1.76492
H          7.22389       -8.88809        0.46759
H          5.45527      -13.48287        4.20817
H         10.36498      -11.70065        3.73639
H          8.58357      -13.41846        4.49943
$end

$opt
CONSTRAINT
tors 4 6 7 8 47.06187
tors 10 13 16 18 90.00000
tors 18 20 21 22 32.71647
ENDCONSTRAINT
$end
--------------------------------------------------------------

   16   -2579.8525165377      4.39E-09 Convergence criterion met
 Total energy in the final basis set = -2579.8525165377
   13   -2579.8538447532      4.33E-09 Convergence criterion met
 Total energy in the final basis set = -2579.8538447532
   12   -2579.8540716376      7.01E-09 Convergence criterion met
 Total energy in the final basis set = -2579.8540716376
   11   -2579.8541012635      9.08E-09 Convergence criterion met
 Total energy in the final basis set = -2579.8541012635
   10   -2579.8541106970      9.60E-09 Convergence criterion met
 Total energy in the final basis set = -2579.8541106970
   10   -2579.8541133730      4.56E-09 Convergence criterion met
 Total energy in the final basis set = -2579.8541133730

             Standard Nuclear Orientation (Angstroms)
    I     Atom           X                Y                Z
 ----------------------------------------------------------------
    1      C       8.1354320137     1.2263616759    -0.7009221083
    2      C       7.3540068982     2.1732290395    -0.0585020230
    3      C       7.5551467387     0.0545988703    -1.1633610705
    4      C       5.9977396269     1.9520165381     0.1143459368
    5      C       6.2009628817    -0.1707738384    -0.9868685986
    6      C       5.4048842664     0.7825968730    -0.3558925427
    7      C       3.9533058899     0.5756401462    -0.1859163176
    8      C       3.0469318400     1.5518268239    -0.4942599637
    9      C       3.3923528524    -0.6414174486     0.2973563039
   10      N       1.6929957947     1.4641906203    -0.3561988968
   11      N       4.0353104285    -1.7543879776     0.6600316103
   12      C       1.9775547528    -0.7422842504     0.4490175822
   13      C       1.1602860743     0.3739800389     0.1051745604
   14      S       2.9006642908    -2.7944062560     1.1333534211
   15      N       1.5681189797    -1.9227074760     0.9165608366
   16      C      -0.3118236049     0.3113598093     0.2759045507
   17      N      -0.9246906962     0.6451345811     1.3642090668
   18      S      -1.3420484430    -0.2419501468    -0.9973911517
   19      C      -2.2710144978     0.4701298328     1.2353579619
   20      C      -2.7083148791    -0.0083981974     0.0353635923
   21      C      -4.0716993305    -0.2707841947    -0.3761879537
   22      S      -4.4797290299    -1.5270558738    -1.4924966343
   23      C      -5.2197134882     0.3593595710     0.0201162413
   24      C      -6.1531686260    -1.1878387097    -1.4309876053
   25      S      -5.5664987441     1.6976941466     1.0801762436
   26      C      -6.4111143486    -0.1545082740    -0.5744363668
   27      C      -7.2727488766     1.5521298330     0.7176351653
   28      C      -7.5805163369     0.5661979367    -0.1401162359
   29      H       9.1942952364     1.3981682270    -0.8382050107
   30      H       7.8001133374     3.0835168697     0.3178296651
   31      H       8.1597000339    -0.6880958764    -1.6655020227
   32      H       5.3932437372     2.6834307240     0.6340922194
   33      H       5.7565065572    -1.0875616072    -1.3470792015
   34      H       3.3997236717     2.4930506328    -0.8961965092
   35      H      -2.9165950954     0.6921464040     2.0718025456
   36      H      -6.8428555219    -1.7618186316    -2.0253896251
   37      H      -7.9573358683     2.2366263945     1.1916505260
   38      H      -8.5868331633     0.3464389361    -0.4608331843
 ----------------------------------------------------------------

    9   -2579.8541143398      6.26E-09 Convergence criterion met
 Total energy in the final basis set = -2579.8541143398
 Final energy is   -2579.85411433985
 **  OPTIMIZATION CONVERGED  **

                    Orbital Energies (a.u.)
 --------------------------------------------------------------

 Alpha MOs
 -- Occupied --
-89.154 -89.090 -89.089 -89.077 -14.491 -14.487 -14.456 -14.443
-10.364 -10.364 -10.360 -10.357 -10.342 -10.341 -10.336 -10.331
-10.329 -10.328 -10.326 -10.322 -10.313 -10.312 -10.304 -10.299
-10.298 -10.297 -10.296 -10.296  -8.164  -8.105  -8.105  -8.092
 -6.115  -6.109  -6.108  -6.054  -6.054  -6.051  -6.050  -6.048
 -6.047  -6.042  -6.038  -6.034  -1.150  -1.086  -1.064  -1.022
 -1.014  -0.976  -0.958  -0.926  -0.919  -0.902  -0.877  -0.860
 -0.857  -0.835  -0.828  -0.802  -0.776  -0.746  -0.737  -0.712
 -0.709  -0.694  -0.691  -0.661  -0.651  -0.635  -0.634  -0.617
 -0.607  -0.598  -0.576  -0.566  -0.562  -0.549  -0.544  -0.530
 -0.526  -0.523  -0.516  -0.515  -0.511  -0.500  -0.495  -0.487
 -0.480  -0.477  -0.470  -0.455  -0.451  -0.438  -0.437  -0.434
 -0.432  -0.424  -0.423  -0.405  -0.390  -0.374  -0.371  -0.363
 -0.357  -0.355  -0.341  -0.335  -0.323  -0.316  -0.276

          Ground-State Mulliken Net Atomic Charges

     Atom                 Charge (a.u.)
  ----------------------------------------
      1 C                    -0.122999
      2 C                    -0.107996
      3 C                    -0.108638
      4 C                    -0.150925
      5 C                    -0.122667
      6 C                     0.118778
      7 C                     0.014979
      8 C                    -0.101812
      9 C                     0.026706
     10 N                    -0.135298
     11 N                    -0.278366
     12 C                     0.007020
     13 C                     0.045628
     14 S                     0.416402
     15 N                    -0.248460
     16 C                     0.053591
     17 N                    -0.160711
     18 S                     0.110619
     19 C                    -0.149364
     20 C                    -0.017008
     21 C                     0.003315
     22 S                     0.129475
     23 C                    -0.051453
     24 C                    -0.221509
     25 S                     0.057234
     26 C                     0.043724
     27 C                    -0.145297
     28 C                    -0.173928
     29 H                     0.117931
     30 H                     0.115846
     31 H                     0.116079
     32 H                     0.131383
     33 H                     0.114769
     34 H                     0.136373
     35 H                     0.146058
     36 H                     0.129873
     37 H                     0.132850
     38 H                     0.127799
  ----------------------------------------
  Sum of atomic charges =     0.000000

                    Cartesian Multipole Moments
 -----------------------------------------------------------------
    Charge (ESU x 10^10)
                 0.0000
    Dipole Moment (Debye)
         X      -0.3039      Y      -1.0966      Z      -1.1772
       Tot       1.6373
    Quadrupole Moments (Debye-Ang)
        XX    -137.9005     XY       1.9924     YY    -179.4372
        XZ      -0.1640     YZ       5.1432     ZZ    -186.6259

 Total job time:  5155.43s(wall), 77080.63s(cpu)
        *  Thank you very much for using Q-Chem.  Have a nice day.  *
