 Q-Chem 4.4, Q-Chem, Inc., Pleasanton, CA (2016)
 Q-Chem 4.4.2 for Intel X86 Linux

User input:
--------------------------------------------------------------
$comment
OPTIMIZATION
$end

$rem
JOBTYPE OPT
EXCHANGE omegaB97X-D
BASIS cc-pVTZ
$end

$molecule
0 1
C          0.00000        0.00000        0.00000
C          1.38599        0.00000        0.00000
C         -0.68515       -1.20581        0.00000
C          2.08055       -1.19709        0.02226
C          0.00742       -2.40411        0.01179
C          1.40063       -2.41271        0.04151
C          2.15950       -3.67324        0.15696
C          3.15000       -3.81753        1.08952
C          1.92849       -4.81544       -0.65861
N          3.90172       -4.92812        1.27968
N          1.02636       -4.93526       -1.63501
C          2.72047       -5.99481       -0.47371
C          3.72589       -5.99344        0.54686
S          1.20518       -6.42345       -2.22449
N          2.39935       -6.98227       -1.31015
C          4.58521       -7.13898        0.84639
N          4.21112       -8.37591        0.94610
S          6.28500       -6.86999        1.09973
C          5.26398       -9.17994        1.24043
C          6.47811       -8.56269        1.37185
C          7.75824       -9.18156        1.63839
S          9.02268       -8.37007        2.50001
C          8.18921      -10.43292        1.29343
C         10.10244       -9.68849        2.37013
S          7.48461      -11.75776        0.40521
C          9.52310      -10.73065        1.70106
C          8.96756      -12.67332        0.58648
C          9.93373      -12.04318        1.27260
H         -0.54342        0.93472        0.00000
H          1.93260        0.93382       -0.01501
H         -1.76734       -1.21268        0.00047
H          3.16263       -1.19509        0.00785
H         -0.53593       -3.33924        0.01382
H          3.36185       -2.99842        1.76492
H          5.10593      -10.24012        1.37299
H         11.09604       -9.62556        2.77758
H          9.01660      -13.65274        0.13904
H         10.90619      -12.47136        1.45826
$end

$opt
CONSTRAINT
tors 4 6 7 8 47.06187
tors 10 13 16 18 -45.00000
tors 18 20 21 22 32.71647
ENDCONSTRAINT
$end
--------------------------------------------------------------

   16   -2579.8580223033      4.48E-09 Convergence criterion met
 Total energy in the final basis set = -2579.8580223033
   13   -2579.8588134448      3.80E-09 Convergence criterion met
 Total energy in the final basis set = -2579.8588134448
   12   -2579.8589760838      6.13E-09 Convergence criterion met
 Total energy in the final basis set = -2579.8589760838
   11   -2579.8590162800      7.37E-09 Convergence criterion met
 Total energy in the final basis set = -2579.8590162800
   10   -2579.8590281033      7.46E-09 Convergence criterion met
 Total energy in the final basis set = -2579.8590281033
   10   -2579.8590316494      4.96E-09 Convergence criterion met
 Total energy in the final basis set = -2579.8590316494
   10   -2579.8590331521      4.09E-09 Convergence criterion met
 Total energy in the final basis set = -2579.8590331521

             Standard Nuclear Orientation (Angstroms)
    I     Atom           X                Y                Z
 ----------------------------------------------------------------
    1      C       8.1407056959     1.2677043305     0.0442267087
    2      C       7.2539048491     2.0929271392     0.7171145762
    3      C       7.6619397042     0.1732220651    -0.6602513292
    4      C       5.8947241986     1.8282676921     0.6803077876
    5      C       6.3046851612    -0.0947435662    -0.6952765371
    6      C       5.4041055377     0.7381122744    -0.0345461144
    7      C       3.9521837114     0.4791004269    -0.0868019934
    8      C       3.0504445806     1.4712696022    -0.3552886113
    9      C       3.3861513407    -0.8116073502     0.1214852774
   10      N       1.7014619046     1.3214883802    -0.4451920422
   11      N       4.0314863532    -1.9389423447     0.4306873602
   12      C       1.9697808936    -0.9820927561     0.0429602430
   13      C       1.1562365161     0.1529441518    -0.2621936872
   14      S       2.8984034149    -3.0698032870     0.6037722951
   15      N       1.5661938387    -2.2253044961     0.3063014883
   16      C      -0.3002269722     0.0372086445    -0.4178733379
   17      N      -0.9055014928    -0.9394998105    -1.0171359378
   18      S      -1.3519489067     1.2185400152     0.2871870033
   19      C      -2.2534883788    -0.7703190621    -0.9790808755
   20      C      -2.7065033700     0.3373957368    -0.3176784373
   21      C      -4.0794475504     0.7361936828    -0.0933125836
   22      S      -4.5568688068     2.3945949006     0.0295154798
   23      C      -5.1915047951    -0.0541878340     0.0190469056
   24      C      -6.2074776788     2.0158552139     0.2514831642
   25      S      -5.4662082764    -1.7744975177     0.0072541183
   26      C      -6.4078518795     0.6642541726     0.2189382442
   27      C      -7.1769813195    -1.5105081046     0.2660846033
   28      C      -7.5366436751    -0.2202157767     0.3563644702
   29      H       9.2022285443     1.4724013242     0.0741590672
   30      H       7.6204585050     2.9416259719     1.2780881224
   31      H       8.3478747092    -0.4752101265    -1.1877312123
   32      H       5.2076394786     2.4622257193     1.2249854296
   33      H       5.9381570522    -0.9524254918    -1.2407828417
   34      H       3.4058717653     2.4767638849    -0.5422346543
   35      H      -2.8914813102    -1.4849116584    -1.4771659128
   36      H      -6.9299438436     2.7997122339     0.4001567407
   37      H      -7.8231905163    -2.3705063468     0.3338818814
   38      H      -8.5522800695     0.1062954549     0.5167625323
 ----------------------------------------------------------------

    9   -2579.8590338982      7.04E-09 Convergence criterion met
 Total energy in the final basis set = -2579.8590338982
 Final energy is   -2579.85903389820
 **  OPTIMIZATION CONVERGED  **

                    Orbital Energies (a.u.)
 --------------------------------------------------------------

 Alpha MOs
 -- Occupied --
-89.150 -89.090 -89.089 -89.078 -14.487 -14.483 -14.454 -14.444
-10.364 -10.363 -10.358 -10.355 -10.343 -10.343 -10.335 -10.332
-10.330 -10.327 -10.325 -10.323 -10.313 -10.312 -10.305 -10.298
-10.296 -10.296 -10.295 -10.295  -8.161  -8.105  -8.104  -8.093
 -6.111  -6.105  -6.105  -6.054  -6.053  -6.050  -6.050  -6.048
 -6.047  -6.043  -6.039  -6.035  -1.147  -1.086  -1.064  -1.023
 -1.011  -0.975  -0.959  -0.925  -0.921  -0.900  -0.877  -0.860
 -0.856  -0.834  -0.828  -0.802  -0.775  -0.744  -0.735  -0.712
 -0.706  -0.694  -0.691  -0.661  -0.651  -0.637  -0.629  -0.615
 -0.607  -0.598  -0.573  -0.564  -0.558  -0.549  -0.542  -0.531
 -0.530  -0.523  -0.516  -0.514  -0.506  -0.505  -0.494  -0.488
 -0.479  -0.476  -0.469  -0.455  -0.449  -0.439  -0.436  -0.434
 -0.431  -0.423  -0.422  -0.401  -0.391  -0.373  -0.372  -0.363
 -0.358  -0.354  -0.339  -0.337  -0.324  -0.310  -0.274

          Ground-State Mulliken Net Atomic Charges

     Atom                 Charge (a.u.)
  ----------------------------------------
      1 C                    -0.124786
      2 C                    -0.109623
      3 C                    -0.107954
      4 C                    -0.150197
      5 C                    -0.121825
      6 C                     0.119491
      7 C                     0.016561
      8 C                    -0.107174
      9 C                     0.029732
     10 N                    -0.166682
     11 N                    -0.279218
     12 C                    -0.010753
     13 C                     0.091820
     14 S                     0.414070
     15 N                    -0.231753
     16 C                     0.023890
     17 N                    -0.149106
     18 S                     0.118614
     19 C                    -0.147767
     20 C                    -0.017655
     21 C                     0.001892
     22 S                     0.133165
     23 C                    -0.053242
     24 C                    -0.221111
     25 S                     0.057057
     26 C                     0.044019
     27 C                    -0.146431
     28 C                    -0.172838
     29 H                     0.118285
     30 H                     0.115943
     31 H                     0.115419
     32 H                     0.127692
     33 H                     0.115601
     34 H                     0.137017
     35 H                     0.146319
     36 H                     0.130019
     37 H                     0.133335
     38 H                     0.128175
  ----------------------------------------
  Sum of atomic charges =     0.000000

                    Cartesian Multipole Moments
 -----------------------------------------------------------------
    Charge (ESU x 10^10)
                 0.0000
    Dipole Moment (Debye)
         X      -0.7508      Y       0.4764      Z       0.9732
       Tot       1.3183
    Quadrupole Moments (Debye-Ang)
        XX    -138.8202     XY       0.8230     YY    -176.1894
        XZ      -3.0550     YZ       3.5060     ZZ    -189.2907

 Total job time:  5897.20s(wall), 88229.83s(cpu)
        *  Thank you very much for using Q-Chem.  Have a nice day.  *
