 Q-Chem 4.4, Q-Chem, Inc., Pleasanton, CA (2016)
 Q-Chem 4.4.2 for Intel X86 Linux

User input:
--------------------------------------------------------------
$comment
OPTIMIZATION
$end

$rem
JOBTYPE OPT
EXCHANGE omegaB97X-D
BASIS cc-pVTZ
$end

$molecule
0 1
C          0.00000        0.00000        0.00000
C          1.38599        0.00000        0.00000
C         -0.68515       -1.20581        0.00000
C          2.08055       -1.19709        0.02226
C          0.00742       -2.40411        0.01179
C          1.40063       -2.41271        0.04151
C          2.15950       -3.67324        0.15696
C          3.15000       -3.81753        1.08952
C          1.92849       -4.81544       -0.65861
N          3.90172       -4.92812        1.27968
N          1.02636       -4.93526       -1.63501
C          2.72047       -5.99481       -0.47371
C          3.72589       -5.99344        0.54686
S          1.20518       -6.42345       -2.22449
N          2.39935       -6.98227       -1.31015
C          4.58521       -7.13898        0.84639
N          4.47236       -7.94154        1.85785
S          5.90118       -7.50572       -0.23044
C          5.44002       -8.89269        1.83397
C          6.32104       -8.83300        0.78868
C          7.41127       -9.73928        0.50087
S          8.85494       -9.23050       -0.30948
C          7.51231      -11.07189        0.79166
C          9.55461      -10.78926       -0.26809
S          6.45252      -12.23409        1.54445
C          8.72595      -11.68058        0.35502
C          7.63181      -13.49880        1.26157
C          8.75489      -13.09004        0.65090
H         -0.54342        0.93472        0.00000
H          1.93260        0.93382       -0.01501
H         -1.76734       -1.21268        0.00047
H          3.16263       -1.19509        0.00785
H         -0.53593       -3.33924        0.01382
H          3.36185       -2.99842        1.76492
H          5.48740       -9.62660        2.62496
H         10.52028      -10.96856       -0.70689
H          7.38604      -14.50046        1.57488
H          9.56847      -13.75187        0.39879
$end

$opt
CONSTRAINT
tors 4 6 7 8 47.06187
tors 10 13 16 18 -105.00000
tors 18 20 21 22 32.71647
ENDCONSTRAINT
$end
--------------------------------------------------------------

   16   -2579.8522542599      4.31E-09 Convergence criterion met
 Total energy in the final basis set = -2579.8522542599
   12   -2579.8536585738      8.51E-09 Convergence criterion met
 Total energy in the final basis set = -2579.8536585738
   12   -2579.8538842810      5.53E-09 Convergence criterion met
 Total energy in the final basis set = -2579.8538842810
   11   -2579.8539169072      6.29E-09 Convergence criterion met
 Total energy in the final basis set = -2579.8539169072
   10   -2579.8539256946      7.82E-09 Convergence criterion met
 Total energy in the final basis set = -2579.8539256946

             Standard Nuclear Orientation (Angstroms)
    I     Atom           X                Y                Z
 ----------------------------------------------------------------
    1      C       8.2543575639     0.8066870081    -0.2328897611
    2      C       7.4406444605     1.8846369139     0.0768137492
    3      C       7.6842510899    -0.4140547525    -0.5622078271
    4      C       6.0629734167     1.7434033667     0.0515164847
    5      C       6.3080633660    -0.5584351231    -0.5834437813
    6      C       5.4820057545     0.5232854131    -0.2856709227
    7      C       4.0123594475     0.3907601492    -0.3250278404
    8      C       3.2195623088     1.3100193469    -0.9543973157
    9      C       3.3169950829    -0.6968993727     0.2775706629
   10      N       1.8583859275     1.2804973148    -1.0295601482
   11      N       3.8330891384    -1.7278821370     0.9519926049
   12      C       1.8933488762    -0.7399582890     0.2004960741
   13      C       1.2017706329     0.3001028360    -0.4881106106
   14      S       2.5843685983    -2.6320501656     1.4161706464
   15      N       1.3528087275    -1.7965847420     0.8101792852
   16      C      -0.2764977912     0.2836895103    -0.6000297659
   17      N      -0.9122772292    -0.0029875834    -1.6890971986
   18      S      -1.2875121086     0.6853200687     0.7448430910
   19      C      -2.2594608108     0.0955352655    -1.5047741915
   20      C      -2.6762557731     0.4639070242    -0.2590263189
   21      C      -4.0346452700     0.6203389664     0.2178487387
   22      S      -4.4641399935     1.7589532423     1.4467110125
   23      C      -5.1640597725    -0.0333376604    -0.1941193208
   24      C      -6.1197757133     1.3385875435     1.4109245750
   25      S      -5.4834241418    -1.2934974883    -1.3538991553
   26      C      -6.3565381541     0.3669405756     0.4795589048
   27      C      -7.1808692593    -1.2669248314    -0.9259233728
   28      C      -7.5046817808    -0.3744218333     0.0232698615
   29      H       9.3301930963     0.9153294295    -0.2117597669
   30      H       7.8773736941     2.8356812745     0.3490760965
   31      H       8.3157306207    -1.2582362375    -0.8028476109
   32      H       5.4284737777     2.5803594589     0.3115797485
   33      H       5.8698773549    -1.5132035728    -0.8367445474
   34      H       3.6792233754     2.1533459083    -1.4538353096
   35      H      -2.9227629835    -0.0994374153    -2.3340322658
   36      H      -6.8167835811     1.8257962498     2.0705997628
   37      H      -7.8477070113    -1.9422374257    -1.4368769234
   38      H      -8.5073647877    -0.2360157365     0.3965591761
 ----------------------------------------------------------------

    9   -2579.8539272442      4.97E-09 Convergence criterion met
 Total energy in the final basis set = -2579.8539272442
 Final energy is   -2579.85392724419
 **  OPTIMIZATION CONVERGED  **

                    Orbital Energies (a.u.)
 --------------------------------------------------------------

 Alpha MOs
 -- Occupied --
-89.155 -89.090 -89.089 -89.077 -14.492 -14.487 -14.455 -14.443
-10.364 -10.364 -10.361 -10.357 -10.343 -10.342 -10.336 -10.331
-10.329 -10.328 -10.326 -10.322 -10.313 -10.313 -10.305 -10.299
-10.297 -10.297 -10.296 -10.296  -8.165  -8.105  -8.105  -8.092
 -6.115  -6.109  -6.109  -6.054  -6.054  -6.051  -6.050  -6.048
 -6.048  -6.042  -6.038  -6.034  -1.151  -1.086  -1.064  -1.022
 -1.015  -0.976  -0.958  -0.926  -0.919  -0.903  -0.876  -0.860
 -0.857  -0.835  -0.828  -0.802  -0.776  -0.746  -0.737  -0.713
 -0.709  -0.694  -0.691  -0.660  -0.651  -0.636  -0.633  -0.617
 -0.607  -0.598  -0.576  -0.566  -0.561  -0.550  -0.543  -0.530
 -0.527  -0.524  -0.517  -0.516  -0.506  -0.504  -0.496  -0.487
 -0.480  -0.476  -0.470  -0.455  -0.451  -0.439  -0.437  -0.434
 -0.432  -0.424  -0.423  -0.405  -0.391  -0.375  -0.369  -0.363
 -0.360  -0.354  -0.341  -0.336  -0.323  -0.315  -0.276

          Ground-State Mulliken Net Atomic Charges

     Atom                 Charge (a.u.)
  ----------------------------------------
      1 C                    -0.123882
      2 C                    -0.109641
      3 C                    -0.108623
      4 C                    -0.150116
      5 C                    -0.122305
      6 C                     0.118867
      7 C                     0.015342
      8 C                    -0.102032
      9 C                     0.027080
     10 N                    -0.130687
     11 N                    -0.278215
     12 C                     0.004673
     13 C                     0.050768
     14 S                     0.416429
     15 N                    -0.251631
     16 C                     0.044645
     17 N                    -0.154986
     18 S                     0.110070
     19 C                    -0.153163
     20 C                    -0.012133
     21 C                     0.001349
     22 S                     0.130836
     23 C                    -0.051884
     24 C                    -0.222657
     25 S                     0.056510
     26 C                     0.044233
     27 C                    -0.145176
     28 C                    -0.173415
     29 H                     0.118546
     30 H                     0.116742
     31 H                     0.116282
     32 H                     0.129025
     33 H                     0.116153
     34 H                     0.135988
     35 H                     0.146227
     36 H                     0.130489
     37 H                     0.132618
     38 H                     0.127676
  ----------------------------------------
  Sum of atomic charges =     0.000000

                    Cartesian Multipole Moments
 -----------------------------------------------------------------
    Charge (ESU x 10^10)
                 0.0000
    Dipole Moment (Debye)
         X      -0.3695      Y      -0.3448      Z       1.8673
       Tot       1.9344
    Quadrupole Moments (Debye-Ang)
        XX    -137.6340     XY       2.0922     YY    -178.9332
        XZ      -3.1887     YZ       5.2706     ZZ    -188.4750

 Total job time:  4454.76s(wall), 66466.93s(cpu)
        *  Thank you very much for using Q-Chem.  Have a nice day.  *
