 Q-Chem 4.4, Q-Chem, Inc., Pleasanton, CA (2016)
 Q-Chem 4.4.2 for Intel X86 Linux

User input:
--------------------------------------------------------------
$comment
OPTIMIZATION
$end

$rem
JOBTYPE OPT
EXCHANGE omegaB97X-D
BASIS cc-pVTZ
$end

$molecule
0 1
C          0.00000        0.00000        0.00000
C          1.38599        0.00000        0.00000
C         -0.68515       -1.20581        0.00000
C          2.08055       -1.19709        0.02226
C          0.00742       -2.40411        0.01179
C          1.40063       -2.41271        0.04151
C          2.15950       -3.67324        0.15696
C          3.15000       -3.81753        1.08952
C          1.92849       -4.81544       -0.65861
N          3.90172       -4.92812        1.27968
N          1.02636       -4.93526       -1.63501
C          2.72047       -5.99481       -0.47371
C          3.72589       -5.99344        0.54686
S          1.20518       -6.42345       -2.22449
N          2.39935       -6.98227       -1.31015
C          4.58521       -7.13898        0.84639
N          4.32915       -8.09446        1.68388
S          6.11080       -7.28220        0.02305
C          5.34526       -8.99320        1.72144
C          6.41007       -8.73680        0.90119
C          7.59534       -9.54512        0.71535
S          9.13276       -8.86156        0.30450
C          7.72788      -10.90219        0.82224
C          9.91562      -10.38018        0.26076
S          6.62207      -12.20717        1.16101
C          9.04293      -11.38880        0.56156
C          7.91804      -13.36664        0.94583
C          9.10925      -12.82519        0.64721
H         -0.54342        0.93472        0.00000
H          1.93260        0.93382       -0.01501
H         -1.76734       -1.21268        0.00047
H          3.16263       -1.19509        0.00785
H         -0.53593       -3.33924        0.01382
H          3.36185       -2.99842        1.76492
H          5.28492       -9.84023        2.38885
H         10.95918      -10.45197        0.00965
H          7.68433      -14.41361        1.05129
H         10.00017      -13.40823        0.47454
$end

$opt
CONSTRAINT
tors 4 6 7 8 47.06187
tors 10 13 16 18 -90.00000
tors 18 20 21 22 32.71647
ENDCONSTRAINT
$end
--------------------------------------------------------------

   16   -2579.8522475810      4.34E-09 Convergence criterion met
 Total energy in the final basis set = -2579.8522475810
   12   -2579.8536788200      9.04E-09 Convergence criterion met
 Total energy in the final basis set = -2579.8536788200
   12   -2579.8539515153      7.35E-09 Convergence criterion met
 Total energy in the final basis set = -2579.8539515153
   11   -2579.8539939396      7.23E-09 Convergence criterion met
 Total energy in the final basis set = -2579.8539939396
   11   -2579.8540091156      4.75E-09 Convergence criterion met
 Total energy in the final basis set = -2579.8540091156
   10   -2579.8540126201      4.50E-09 Convergence criterion met
 Total energy in the final basis set = -2579.8540126201
    9   -2579.8540138548      6.52E-09 Convergence criterion met
 Total energy in the final basis set = -2579.8540138548

             Standard Nuclear Orientation (Angstroms)
    I     Atom           X                Y                Z
 ----------------------------------------------------------------
    1      C       8.2399021364     0.8708444646    -0.1853695052
    2      C       7.4164047731     1.9251789568     0.1756053119
    3      C       7.6810663249    -0.3366439453    -0.5768310365
    4      C       6.0401119888     1.7731559183     0.1417646194
    5      C       6.3061535509    -0.4918894680    -0.6070259990
    6      C       5.4703991078     0.5660447141    -0.2561011115
    7      C       4.0020065468     0.4217949944    -0.2992631693
    8      C       3.1990044742     1.3642289544    -0.8793557064
    9      C       3.3184130523    -0.6996959799     0.2533690953
   10      N       1.8379210384     1.3224432645    -0.9575293638
   11      N       3.8454162928    -1.7536473993     0.8822000205
   12      C       1.8949564157    -0.7520264075     0.1785150084
   13      C       1.1930388192     0.3120706709    -0.4589819575
   14      S       2.6047675130    -2.6851186818     1.3141284750
   15      N       1.3642618614    -1.8348884941     0.7485141771
   16      C      -0.2841991634     0.2662204335    -0.5869159042
   17      N      -0.9024565424    -0.3092251214    -1.5656124740
   18      S      -1.3148088572     0.9560229514     0.6173671819
   19      C      -2.2537489164    -0.2001353138    -1.4163714416
   20      C      -2.6896561448     0.4538913242    -0.3014349094
   21      C      -4.0556092920     0.6913547080     0.1165649823
   22      S      -4.5218631330     2.0927049362     1.0169653420
   23      C      -5.1670318263    -0.0685645549    -0.1268378967
   24      C      -6.1690760555     1.6426249042     1.0727994472
   25      S      -5.4477377896    -1.5845209350    -0.9375983478
   26      C      -6.3757944361     0.4626747037     0.4149393653
   27      C      -7.1505448524    -1.4883964581    -0.5435320666
   28      C      -7.5036618581    -0.3933247374     0.1483361355
   29      H       9.3147209404     0.9873726170    -0.1561135157
   30      H       7.8443414673     2.8651567796     0.4959945686
   31      H       8.3201288535    -1.1624546956    -0.8576496451
   32      H       5.3980437276     2.5909333367     0.4410995317
   33      H       5.8766403894    -1.4356179754    -0.9113077074
   34      H       3.6488114254     2.2350893290    -1.3387832784
   35      H      -2.9048268429    -0.6072309703    -2.1753324747
   36      H      -6.8822089977     2.2619271814     1.5888596821
   37      H      -7.7996034183    -2.2854626250    -0.8678519672
   38      H      -8.5142771399    -0.1866566770     0.4642552582
 ----------------------------------------------------------------

    9   -2579.8540142509      5.48E-09 Convergence criterion met
 Total energy in the final basis set = -2579.8540142509
 Final energy is   -2579.85401425090
 **  OPTIMIZATION CONVERGED  **

                    Orbital Energies (a.u.)
 --------------------------------------------------------------

 Alpha MOs
 -- Occupied --
-89.154 -89.090 -89.090 -89.077 -14.491 -14.487 -14.456 -14.443
-10.364 -10.364 -10.360 -10.357 -10.342 -10.341 -10.336 -10.331
-10.329 -10.328 -10.326 -10.322 -10.313 -10.312 -10.305 -10.299
-10.297 -10.297 -10.296 -10.296  -8.164  -8.105  -8.104  -8.092
 -6.114  -6.109  -6.108  -6.054  -6.054  -6.051  -6.050  -6.048
 -6.047  -6.042  -6.038  -6.034  -1.150  -1.086  -1.064  -1.022
 -1.014  -0.976  -0.958  -0.926  -0.920  -0.902  -0.877  -0.860
 -0.857  -0.835  -0.828  -0.802  -0.776  -0.746  -0.737  -0.712
 -0.709  -0.694  -0.691  -0.660  -0.651  -0.635  -0.634  -0.617
 -0.607  -0.598  -0.576  -0.566  -0.560  -0.550  -0.544  -0.530
 -0.527  -0.523  -0.517  -0.516  -0.506  -0.504  -0.494  -0.487
 -0.480  -0.476  -0.470  -0.455  -0.451  -0.438  -0.438  -0.434
 -0.432  -0.424  -0.423  -0.404  -0.390  -0.375  -0.371  -0.363
 -0.359  -0.353  -0.341  -0.335  -0.323  -0.316  -0.276

          Ground-State Mulliken Net Atomic Charges

     Atom                 Charge (a.u.)
  ----------------------------------------
      1 C                    -0.123650
      2 C                    -0.109352
      3 C                    -0.108447
      4 C                    -0.149764
      5 C                    -0.121793
      6 C                     0.118746
      7 C                     0.015455
      8 C                    -0.100410
      9 C                     0.025890
     10 N                    -0.135490
     11 N                    -0.278107
     12 C                     0.007267
     13 C                     0.043805
     14 S                     0.416240
     15 N                    -0.248044
     16 C                     0.055971
     17 N                    -0.160998
     18 S                     0.110490
     19 C                    -0.152862
     20 C                    -0.014147
     21 C                     0.001177
     22 S                     0.131237
     23 C                    -0.051542
     24 C                    -0.222498
     25 S                     0.057015
     26 C                     0.043628
     27 C                    -0.145724
     28 C                    -0.173477
     29 H                     0.118522
     30 H                     0.116132
     31 H                     0.116294
     32 H                     0.128729
     33 H                     0.116267
     34 H                     0.136047
     35 H                     0.146806
     36 H                     0.130312
     37 H                     0.132557
     38 H                     0.127718
  ----------------------------------------
  Sum of atomic charges =     0.000000

                    Cartesian Multipole Moments
 -----------------------------------------------------------------
    Charge (ESU x 10^10)
                 0.0000
    Dipole Moment (Debye)
         X      -0.3598      Y      -0.0909      Z       1.7230
       Tot       1.7625
    Quadrupole Moments (Debye-Ang)
        XX    -137.7238     XY       1.8481     YY    -177.1222
        XZ      -3.3158     YZ       4.9825     ZZ    -189.8838

 Total job time:  5718.06s(wall), 85508.79s(cpu)
        *  Thank you very much for using Q-Chem.  Have a nice day.  *
