 Q-Chem 4.4, Q-Chem, Inc., Pleasanton, CA (2016)
 Q-Chem 4.4.2 for Intel X86 Linux

User input:
--------------------------------------------------------------
$comment
SP
$end

$rem
MEM_STATIC 5000
MEM_TOTAL 20000
JOBTYPE SP
EXCHANGE B3LYP
BASIS 6-31g(d,p)
$end

$molecule
0 1
C          26.323000     -8.325000     -1.066000
C          25.285000     -9.179000     -0.712000
N          26.501000     -7.177000     -0.430000
C          24.460000     -8.814000      0.343000
C          25.593000     -6.795000      0.450000
C          24.566000     -7.517000      0.880000
C          23.481000     -6.987000      1.774000
C          23.739000     -6.308000      2.976000
C          22.140000     -7.111000      1.386000
N          22.756000     -5.887000      3.862000
N          21.783000     -7.475000      0.137000
C          21.162000     -6.663000      2.291000
C          21.418000     -6.067000      3.556000
S          20.140000     -7.439000      0.249000
N          19.927000     -6.812000      1.719000
C          20.421000     -5.946000      4.659000
S          18.660000     -6.145000      4.582000
C          20.681000     -5.638000      5.981000
C          18.328000     -5.872000      6.381000
S          22.169000     -5.149000      6.662000
C          19.591000     -5.584000      6.876000
C          17.066000     -5.826000      7.089000
C          21.352000     -4.814000      8.217000
C          19.972000     -4.993000      8.155000
N          16.060000     -6.091000      6.310000
S          16.680000     -5.629000      8.786000
C          14.915000     -6.289000      7.047000
C          15.052000     -6.186000      8.399000
C          27.192000     -8.696000     -2.302000
H          25.226000    -10.210000     -1.048000
H          23.668000     -9.485000      0.664000
H          25.700000     -5.806000      0.894000
H          24.758000     -6.277000      3.359000
H          21.909000     -4.216000      8.927000
H          19.299000     -4.880000      8.997000
H          14.067000     -6.667000      6.492000
H          14.376000     -6.062000      9.235000
H          26.624000     -8.932000     -3.210000
C          28.068000     -9.954000     -1.969000
H          27.759000     -7.796000     -2.571000
H          27.453000    -10.861000     -1.927000
H          28.485000     -9.816000     -0.964000
C          29.306000    -10.251000     -2.936000
H          29.790000    -11.209000     -2.710000
C          30.404000     -9.249000     -2.573000
H          28.949000    -10.158000     -3.969000
H          30.658000     -9.542000     -1.547000
H          29.963000     -8.247000     -2.500000
C          31.617000     -9.293000     -3.439000
H          32.098000    -10.274000     -3.528000
C          32.624000     -8.278000     -2.976000
H          31.360000     -9.100000     -4.488000
H          32.235000     -7.254000     -2.923000
H          33.487000     -8.183000     -3.647000
H          33.003000     -8.631000     -2.009000
C          21.342000     -7.665000     12.846000
C          21.714000     -6.550000     12.111000
N          22.056000     -8.790000     12.618000
C          22.716000     -6.586000     11.132000
C          23.187000     -8.756000     11.802000
C          23.519000     -7.708000     10.974000
C          24.666000     -7.616000      9.958000
C          24.684000     -6.711000      8.923000
C          25.777000     -8.452000     10.013000
N          25.635000     -6.684000      7.983000
N          25.927000     -9.294000     11.033000
C          26.818000     -8.369000      9.077000
C          26.717000     -7.448000      7.987000
S          27.334000    -10.044000     10.717000
N          27.693000     -9.328000      9.266000
C          27.777000     -7.291000      6.945000
S          29.343000     -8.084000      7.130000
C          27.853000     -6.420000      5.894000
C          30.045000     -7.213000      5.721000
S          26.592000     -5.359000      5.371000
C          29.060000     -6.381000      5.259000
C          31.388000     -7.381000      5.320000
C          27.801000     -4.891000      4.098000
C          29.068000     -5.466000      4.198000
N          32.140000     -7.990000      6.222000
S          32.209000     -6.688000      3.988000
C          33.425000     -7.964000      5.846000
C          33.685000     -7.375000      4.662000
C          20.073000     -7.673000     13.778000
H          21.159000     -5.629000     12.266000
H          22.958000     -5.676000     10.590000
H          23.768000     -9.669000     11.925000
H          23.858000     -6.028000      8.731000
H          27.495000     -4.192000      3.331000
H          29.823000     -5.145000      3.489000
H          34.130000     -8.623000      6.336000
H          34.603000     -7.277000      4.097000
H          19.264000     -7.043000     13.389000
C          20.698000     -7.275000     15.136000
H          19.626000     -8.675000     13.805000
H          21.302000     -6.363000     15.052000
H          21.301000     -8.146000     15.422000
C          19.612000     -6.817000     16.065000
H          19.051000     -6.003000     15.590000
C          20.182000     -6.465000     17.431000
H          18.869000     -7.618000     16.160000
H          20.940000     -7.236000     17.617000
H          19.393000     -6.695000     18.157000
C          20.734000     -5.008000     17.714000
H          21.690000     -4.848000     17.201000
C          21.079000     -4.856000     19.168000
H          20.006000     -4.211000     17.519000
H          21.859000     -4.126000     19.416000
H          21.515000     -5.734000     19.661000
H          20.207000     -4.512000     19.737000
$end

--------------------------------------------------------------

             Standard Nuclear Orientation (Angstroms)
    I     Atom           X                Y                Z
 ----------------------------------------------------------------
    1      C      -7.0547622775    -2.6804988553    -0.7018192843
    2      C      -6.2456311542    -3.2045637542    -1.7031877515
    3      N      -6.5313082628    -2.2598737020     0.4397385876
    4      C      -4.8746786736    -3.2474672670    -1.4898251856
    5      C      -5.2476244537    -2.4761998273     0.6636735912
    6      C      -4.3703579154    -2.9576191967    -0.2078491059
    7      C      -2.9533864051    -3.3187177444     0.1373473277
    8      C      -2.0800808370    -2.4474046101     0.8085848467
    9      C      -2.4716525702    -4.6005104060    -0.1612177152
   10      N      -0.7424574217    -2.7228356636     1.0604326849
   11      N      -3.2885218621    -5.6076621241    -0.5331262749
   12      C      -1.1189986708    -4.8629497457     0.1174685268
   13      C      -0.2035879322    -3.9472151133     0.7043503399
   14      S      -2.2117649352    -6.8384114758    -0.7309634648
   15      N      -0.8494539318    -6.1707167791    -0.1853532359
   16      C       1.2817806099    -4.0739378052     0.6506786195
   17      S       2.2535761582    -5.4908589387     0.2095449506
   18      C       2.2085339737    -3.0936951298     0.9513453784
   19      C       3.9094663086    -4.6841461081     0.3780567270
   20      S       1.9111118896    -1.5516825534     1.6227344744
   21      C       3.5772601789    -3.4140028223     0.8247256437
   22      C       5.2319716793    -5.2530316551     0.2251751433
   23      C       3.6706636925    -1.2814940690     1.7921884082
   24      C       4.4283705142    -2.3907298536     1.4237303421
   25      N       5.1874701914    -6.4953357191    -0.1540375018
   26      S       6.8309731663    -4.5438693138     0.3140403127
   27      C       6.4362404831    -6.9317154769    -0.5329088064
   28      C       7.4380476574    -6.0112148020    -0.4532665232
   29      C      -8.5963160313    -2.7123941275    -0.9094071349
   30      H      -6.5895609344    -3.3598013246    -2.7214959579
   31      H      -4.2190490917    -3.6145890284    -2.2746292781
   32      H      -4.8513516181    -2.2135561046     1.6438226179
   33      H      -2.3831066100    -1.4139284947     0.9701815669
   34      H       3.9657252797    -0.4660490297     2.4402169937
   35      H       5.5117642638    -2.4199258420     1.4155097859
   36      H       6.4624708874    -7.9027677542    -1.0087054443
   37      H       8.5196804685    -6.0474440358    -0.4508366074
   38      H      -9.0022997582    -3.6904553866    -1.1946392981
   39      C      -8.9942729414    -1.7025833658    -2.0419889303
   40      H      -9.0509101736    -2.5122973864     0.0689360870
   41      H      -8.6917856110    -2.0778966501    -3.0270165206
   42      H      -8.4316163698    -0.7755247013    -1.8778614949
   43      C     -10.5353176379    -1.2868276221    -2.1329306975
   44      H     -10.7506051176    -0.6789763851    -3.0202097826
   45      C     -10.7953790097    -0.2932319915    -0.9986852190
   46      H     -11.1308694600    -2.2050141095    -2.0591838238
   47      H     -10.1655580708     0.5580228141    -1.2845730308
   48      H     -10.3638252566    -0.6894626800    -0.0710125398
   49      C     -12.2136680575     0.1407666175    -0.8458376333
   50      H     -12.6795750569     0.5568625844    -1.7466360648
   51      C     -12.3384758883     1.1222040550     0.2854654038
   52      H     -12.8708704697    -0.7175677973    -0.6586318059
   53      H     -11.9515260434     0.7527759449     1.2428047841
   54      H     -13.3772595283     1.3859027721     0.5208938127
   55      H     -11.8368813671     2.0417112815    -0.0404922573
   56      C       7.0373696603     1.7893690704    -1.1727791305
   57      C       6.3533641232     1.5324465783     0.0053385454
   58      N       6.3059072183     2.3180220282    -2.1792053554
   59      C       4.9726668861     1.7306249887     0.1400287713
   60      C       4.9849201255     2.7105331432    -1.9621774191
   61      C       4.2437654136     2.3717369405    -0.8531152810
   62      C       2.7608684107     2.6498862799    -0.5703107128
   63      C       2.0279104270     1.9508993634     0.3596161040
   64      C       2.0477553390     3.6368498213    -1.2438199667
   65      N       0.7155832850     2.1267362818     0.5483191786
   66      N       2.6750873231     4.4533448656    -2.0874160931
   67      C       0.6908234667     3.8808927259    -0.9872172492
   68      C      -0.0127519003     3.0531505378    -0.0564291031
   69      S       1.4997763145     5.4401625691    -2.6229904138
   70      N       0.2119091778     4.7746447299    -1.8196086591
   71      C      -1.4570674047     3.2408665259     0.2793214465
   72      S      -2.3348384175     4.6616531407    -0.2919170715
   73      C      -2.2411707842     2.5810364423     1.1842104735
   74      C      -3.7778592141     4.2777591891     0.7115979580
   75      S      -1.7849124678     1.1703932431     2.0737525540
   76      C      -3.4635320851     3.1430592841     1.4112747273
   77      C      -4.9186552007     5.1084806642     0.7456618388
   78      C      -3.4677268475     1.3063168543     2.7452393635
   79      C      -4.2100349191     2.4194521896     2.3504958363
   80      N      -4.7199959301     6.3063100404     0.2205634864
   81      S      -6.3913138763     4.8817355691     1.5873132435
   82      C      -5.7850163575     7.0885146824     0.4377371201
   83      C      -6.8156550073     6.5190456730     1.0933788065
   84      C       8.5358723813     1.3561631583    -1.3869548357
   85      H       6.9093902159     1.1036918749     0.8343713485
   86      H       4.4972217059     1.5075459506     1.0911416055
   87      H       4.6347459412     3.3280729482    -2.7881808270
   88      H       2.4449289106     1.1195452324     0.9258094396
   89      H      -3.8165496797     0.5338971474     3.4177097555
   90      H      -5.1895811361     2.5539381881     2.7956359546
   91      H      -5.8905310742     8.0034210327    -0.1307864193
   92      H      -7.8029553716     6.8902825296     1.3362248211
   93      H       8.7806283271     0.4233495087    -0.8647908556
   94      C       9.2824312275     2.6377542518    -0.9472195082
   95      H       8.7154622314     1.1130046547    -2.4420204393
   96      H       8.9537579323     2.9783942627     0.0425048211
   97      H       9.0529870855     3.3678526556    -1.7335767467
   98      C      10.7198979601     2.3038218342    -0.6744933943
   99      H      10.7680169100     1.4972113109     0.0671305201
  100      C      11.5007137776     3.5511735800    -0.2882288718
  101      H      11.1526767306     1.8499783720    -1.5741620264
  102      H      11.1100398596     4.3334191679    -0.9508499777
  103      H      12.5240563470     3.3917788837    -0.6485902411
  104      C      11.5539137953     4.0234279847     1.2223298114
  105      H      10.5918868862     4.4504968061     1.5302607258
  106      C      12.5174299283     5.1654113677     1.3764583762
  107      H      11.9223232574     3.2569551950     1.9151587447
  108      H      12.3268466671     5.8635571663     2.2005181219
  109      H      12.5514556400     5.8903360679     0.5534423193
  110      H      13.5286713738     4.7919040796     1.5773664261
 ----------------------------------------------------------------

    9   -5663.4855155717      9.95E-06 Convergence criterion met
 Total energy in the final basis set = -5663.4855155717

                    Orbital Energies (a.u.)
 --------------------------------------------------------------

 Alpha MOs
 -- Occupied --
-88.986 -88.981 -88.931 -88.929 -88.922 -88.912 -88.912 -88.908
-14.386 -14.383 -14.380 -14.377 -14.357 -14.344 -14.342 -14.335
-14.324 -14.322 -10.274 -10.274 -10.264 -10.263 -10.258 -10.253
-10.249 -10.249 -10.248 -10.246 -10.240 -10.236 -10.236 -10.234
-10.233 -10.232 -10.230 -10.230 -10.230 -10.227 -10.227 -10.226
-10.223 -10.223 -10.221 -10.219 -10.218 -10.214 -10.214 -10.212
-10.210 -10.205 -10.204 -10.204 -10.204 -10.202 -10.192 -10.191
-10.191 -10.190 -10.186 -10.184 -10.180 -10.180 -10.178 -10.174
-10.172 -10.170 -10.169 -10.168  -8.042  -8.037  -7.993  -7.990
 -7.979  -7.971  -7.971  -7.968  -6.007  -6.002  -6.001  -6.000
 -5.996  -5.994  -5.957  -5.954  -5.953  -5.951  -5.949  -5.947
 -5.944  -5.940  -5.936  -5.936  -5.935  -5.933  -5.933  -5.931
 -5.929  -5.928  -5.928  -5.925  -1.041  -1.038  -0.980  -0.980
 -0.961  -0.952  -0.943  -0.924  -0.918  -0.909  -0.909  -0.905
 -0.839  -0.838  -0.833  -0.831  -0.812  -0.811  -0.810  -0.808
 -0.805  -0.803  -0.799  -0.796  -0.789  -0.778  -0.769  -0.769
 -0.756  -0.753  -0.750  -0.745  -0.717  -0.717  -0.712  -0.710
 -0.698  -0.696  -0.675  -0.672  -0.650  -0.649  -0.646  -0.642
 -0.635  -0.635  -0.626  -0.621  -0.613  -0.612  -0.605  -0.601
 -0.596  -0.594  -0.586  -0.584  -0.581  -0.577  -0.569  -0.568
 -0.549  -0.547  -0.543  -0.538  -0.529  -0.527  -0.522  -0.519
 -0.508  -0.506  -0.504  -0.496  -0.495  -0.482  -0.477  -0.475
 -0.474  -0.472  -0.467  -0.466  -0.462  -0.461  -0.455  -0.451
 -0.447  -0.446  -0.441  -0.439  -0.438  -0.436  -0.435  -0.432
 -0.430  -0.427  -0.425  -0.424  -0.422  -0.417  -0.414  -0.414
 -0.412  -0.411  -0.405  -0.404  -0.400  -0.400  -0.398  -0.396
 -0.393  -0.393  -0.390  -0.388  -0.387  -0.385  -0.384  -0.381
 -0.377  -0.375  -0.370  -0.367  -0.365  -0.363  -0.361  -0.358
 -0.353  -0.352  -0.351  -0.351  -0.346  -0.344  -0.339  -0.338
 -0.334  -0.333  -0.332  -0.330  -0.329  -0.328  -0.328  -0.322
 -0.313  -0.312  -0.310  -0.308  -0.308  -0.303  -0.300  -0.299
 -0.296  -0.293  -0.292  -0.292  -0.286  -0.284  -0.282  -0.278
 -0.272  -0.267  -0.265  -0.262  -0.259  -0.258  -0.249  -0.245
 -0.242  -0.239  -0.236  -0.232  -0.199  -0.193

          Ground-State Mulliken Net Atomic Charges

     Atom                 Charge (a.u.)
  ----------------------------------------
      1 C                     0.266440
      2 C                    -0.107497
      3 N                    -0.482483
      4 C                    -0.059171
      5 C                     0.068309
      6 C                     0.071033
      7 C                    -0.005412
      8 C                     0.060829
      9 C                     0.225501
     10 N                    -0.534240
     11 N                    -0.539731
     12 C                     0.179063
     13 C                     0.315229
     14 S                     0.602267
     15 N                    -0.524490
     16 C                    -0.215914
     17 S                     0.336031
     18 C                    -0.123264
     19 C                    -0.225768
     20 S                     0.314739
     21 C                     0.134543
     22 C                     0.061211
     23 C                    -0.322676
     24 C                    -0.078902
     25 N                    -0.413543
     26 S                     0.266077
     27 C                     0.118758
     28 C                    -0.312307
     29 C                    -0.225920
     30 H                     0.091760
     31 H                     0.097965
     32 H                     0.086116
     33 H                     0.134284
     34 H                     0.129089
     35 H                     0.111913
     36 H                     0.119214
     37 H                     0.144055
     38 H                     0.110095
     39 C                    -0.194158
     40 H                     0.116217
     41 H                     0.089326
     42 H                     0.102961
     43 C                    -0.182896
     44 H                     0.093880
     45 C                    -0.160065
     46 H                     0.088875
     47 H                     0.090439
     48 H                     0.097296
     49 C                    -0.173067
     50 H                     0.089202
     51 C                    -0.312560
     52 H                     0.088327
     53 H                     0.103029
     54 H                     0.091828
     55 H                     0.100623
     56 C                     0.267126
     57 C                    -0.126968
     58 N                    -0.503676
     59 C                    -0.069341
     60 C                     0.049655
     61 C                     0.079843
     62 C                     0.068762
     63 C                     0.059707
     64 C                     0.204473
     65 N                    -0.555078
     66 N                    -0.546248
     67 C                     0.213242
     68 C                     0.346184
     69 S                     0.587553
     70 N                    -0.563556
     71 C                    -0.232491
     72 S                     0.349112
     73 C                    -0.103042
     74 C                    -0.239384
     75 S                     0.291281
     76 C                     0.172206
     77 C                     0.056795
     78 C                    -0.308326
     79 C                    -0.093764
     80 N                    -0.424588
     81 S                     0.272095
     82 C                     0.133467
     83 C                    -0.311744
     84 C                    -0.222581
     85 H                     0.070098
     86 H                     0.085837
     87 H                     0.126524
     88 H                     0.098018
     89 H                     0.118328
     90 H                     0.126598
     91 H                     0.114026
     92 H                     0.133869
     93 H                     0.099638
     94 C                    -0.176125
     95 H                     0.121415
     96 H                     0.105821
     97 H                     0.121684
     98 C                    -0.181908
     99 H                     0.087197
    100 C                    -0.177169
    101 H                     0.087478
    102 H                     0.095310
    103 H                     0.088200
    104 C                    -0.171755
    105 H                     0.100146
    106 C                    -0.323578
    107 H                     0.097856
    108 H                     0.095553
    109 H                     0.102442
    110 H                     0.101324
  ----------------------------------------
  Sum of atomic charges =     0.000000

                    Cartesian Multipole Moments
 -----------------------------------------------------------------
    Charge (ESU x 10^10)
                 0.0000
    Dipole Moment (Debye)
         X       0.4382      Y      -0.3596      Z       0.5523
       Tot       0.7914
    Quadrupole Moments (Debye-Ang)
        XX    -380.1949     XY     -22.9694     YY    -435.9621
        XZ      13.3331     YZ      13.3212     ZZ    -444.1215

 Total job time:  87.35s(wall), 954.19s(cpu)
        *  Thank you very much for using Q-Chem.  Have a nice day.  *
