 Q-Chem 4.4, Q-Chem, Inc., Pleasanton, CA (2016)
 Q-Chem 4.4.2 for Intel X86 Linux

User input:
--------------------------------------------------------------
$comment
SP
$end

$rem
MEM_STATIC 5000
MEM_TOTAL 20000
JOBTYPE SP
EXCHANGE B3LYP
BASIS 6-31g(d,p)
$end

$molecule
0 1
C         -14.559000    -10.274000     11.127000
C         -15.190000     -9.307000     11.896000
N         -14.766000    -10.363000      9.779000
C         -15.900000     -8.267000     11.284000
C         -15.589000     -9.437000      9.249000
C         -16.031000     -8.236000      9.918000
C         -16.831000     -7.237000      9.122000
C         -18.130000     -6.749000      9.527000
C         -16.351000     -6.666000      7.944000
N         -18.836000     -5.861000      8.808000
N         -15.143000     -6.937000      7.412000
C         -17.077000     -5.697000      7.201000
C         -18.365000     -5.329000      7.659000
S         -15.070000     -6.096000      6.004000
N         -16.454000     -5.280000      6.077000
C         -18.992000     -4.123000      7.065000
S         -18.184000     -2.658000      6.425000
C         -20.331000     -4.013000      6.893000
C         -19.776000     -1.949000      6.029000
S         -21.527000     -5.083000      7.365000
C         -20.802000     -2.831000      6.344000
C         -19.930000     -0.517000      5.696000
C         -22.663000     -4.063000      6.536000
C         -22.163000     -2.827000      6.191000
N         -21.135000     -0.008000      5.520000
S         -18.581000      0.612000      5.520000
C         -21.126000      1.259000      5.125000
C         -19.834000      1.770000      4.961000
C         -13.911000    -11.509000     11.799000
H         -15.049000     -9.298000     12.973000
H         -16.170000     -7.411000     11.894000
H         -15.686000     -9.399000      8.165000
H         -18.640000     -6.991000     10.458000
H         -23.697000     -4.377000      6.481000
H         -22.695000     -1.979000      5.773000
H         -22.044000      1.832000      5.151000
H         -19.484000      2.787000      4.840000
H         -14.264000    -11.623000     12.831000
C         -12.345000    -11.584000     11.724000
H         -14.296000    -12.412000     11.309000
H         -12.042000    -12.498000     12.251000
H         -11.877000    -10.735000     12.237000
C         -11.805000    -11.498000     10.284000
H         -12.254000    -12.305000      9.691000
C         -10.250000    -11.494000     10.124000
H         -12.190000    -10.586000      9.813000
H          -9.941000    -12.357000     10.725000
H          -9.820000    -10.661000     10.693000
C          -9.696000    -11.404000      8.689000
H         -10.178000    -12.229000      8.149000
C          -8.125000    -11.394000      8.649000
H          -9.941000    -10.461000      8.185000
H          -7.765000    -12.378000      8.974000
H          -7.720000    -10.660000      9.356000
H          -7.629000    -11.192000      7.691000
C         -16.319000    -10.159000      3.068000
C         -16.873000     -8.997000      3.552000
N         -16.437000    -11.365000      3.667000
C         -17.557000     -8.994000      4.742000
C         -17.119000    -11.383000      4.857000
C         -17.761000    -10.275000      5.438000
C         -18.485000    -10.286000      6.798000
C         -19.452000     -9.283000      7.136000
C         -18.301000    -11.234000      7.838000
N         -20.054000     -9.218000      8.361000
N         -17.278000    -12.138000      7.853000
C         -18.977000    -11.188000      9.075000
C         -19.898000    -10.153000      9.305000
S         -17.328000    -12.861000      9.274000
N         -18.593000    -12.145000      9.985000
C         -20.533000    -10.036000     10.609000
S         -20.649000    -11.205000     11.905000
C         -21.033000     -8.860000     11.073000
C         -21.456000    -10.097000     13.021000
S         -21.293000     -7.419000     10.251000
C         -21.594000     -8.879000     12.409000
C         -21.917000    -10.392000     14.333000
C         -22.107000     -6.753000     11.655000
C         -22.228000     -7.658000     12.717000
N         -22.197000     -9.410000     15.145000
S         -22.007000    -12.025000     14.877000
C         -22.540000     -9.929000     16.413000
C         -22.276000    -11.308000     16.500000
C         -15.350000    -10.140000      1.891000
H         -16.646000     -8.074000      3.027000
H         -17.946000     -8.123000      5.262000
H         -17.215000    -12.322000      5.401000
H         -19.651000     -8.499000      6.407000
H         -22.415000     -5.719000     11.576000
H         -22.894000     -7.488000     13.555000
H         -22.715000     -9.289000     17.268000
H         -22.285000    -12.042000     17.296000
H         -15.191000     -9.100000      1.582000
C         -15.706000    -11.092000      0.737000
H         -14.455000    -10.593000      2.335000
H         -16.269000    -11.951000      1.123000
H         -14.731000    -11.470000      0.409000
C         -16.546000    -10.276000     -0.321000
H         -17.563000    -10.001000     -0.014000
C         -16.601000    -11.123000     -1.599000
H         -15.895000     -9.438000     -0.599000
H         -17.190000    -12.039000     -1.471000
H         -15.570000    -11.410000     -1.841000
C         -17.082000    -10.417000     -2.852000
H         -16.645000     -9.411000     -2.830000
C         -18.637000    -10.358000     -2.921000
H         -16.848000    -11.050000     -3.716000
H         -18.834000     -9.974000     -3.930000
H         -18.806000     -9.650000     -2.101000
H         -19.150000    -11.311000     -2.740000
$end

--------------------------------------------------------------

             Standard Nuclear Orientation (Angstroms)
    I     Atom           X                Y                Z
 ----------------------------------------------------------------
    1      C       3.6903416379    -2.5556658477    -2.6599512222
    2      C       3.8421416937    -1.2205261023    -3.0048709276
    3      N       2.6136025631    -2.9900180183    -1.9389483396
    4      C       2.7966127242    -0.3122816313    -2.7994319958
    5      C       1.7033350129    -2.0494606203    -1.6188393454
    6      C       1.6367668839    -0.7262126960    -2.1932169346
    7      C       0.4624549060     0.1449305432    -1.8275424407
    8      C       0.5949783092     1.4735697977    -1.2737145985
    9      C      -0.8566012688    -0.2524678131    -2.0426943736
   10      N      -0.4586956658     2.2401780607    -0.9481014453
   11      N      -1.2091223246    -1.4291202498    -2.5967223047
   12      C      -1.9733059274     0.5705564615    -1.7366098287
   13      C      -1.7319424100     1.8345835940    -1.1466004552
   14      S      -2.8499492692    -1.4705818564    -2.5644442436
   15      N      -3.1699501113    -0.0003279607    -1.9964707027
   16      C      -2.8554194828     2.8020624584    -1.0998573955
   17      S      -4.2183148310     2.9704526539    -2.2500095645
   18      C      -3.0024752995     3.6930151497    -0.0903115131
   19      C      -4.8661364486     4.3303744991    -1.2882919725
   20      S      -1.9774584119     3.9723935471     1.2017365090
   21      C      -4.0817954722     4.5589797481    -0.1647378470
   22      C      -5.9121691096     5.2305727195    -1.8180917802
   23      C      -3.1765653362     5.0667126568     1.8204006102
   24      C      -4.1547522636     5.4032303494     0.9112102134
   25      N      -6.2835433915     6.2892017340    -1.1227733263
   26      S      -6.7266096850     5.0009501990    -3.3703089194
   27      C      -7.2996261289     6.9513732323    -1.6617536389
   28      C      -7.7681453745     6.3647016974    -2.8422565939
   29      C       4.8941626603    -3.5260431906    -2.7367350639
   30      H       4.7369580140    -0.8975007775    -3.5291317334
   31      H       2.8592434924     0.6518264727    -3.2937081846
   32      H       0.7754054754    -2.3738805566    -1.1502163857
   33      H       1.5301103204     2.0092533765    -1.1188074485
   34      H      -3.0094554325     5.5266070483     2.7854645608
   35      H      -4.9411282699     6.1436457576     1.0124515095
   36      H      -7.5478644922     7.9385563247    -1.2935468261
   37      H      -8.4334410127     6.7442709105    -3.6069388326
   38      H       5.8384973074    -2.9729802127    -2.8073213018
   39      C       4.8049793894    -4.6386194065    -3.8402868334
   40      H       4.9856445167    -4.0416622446    -1.7726281917
   41      H       5.7283574464    -5.2287112747    -3.7762669077
   42      H       4.7584426038    -4.2040110828    -4.8462410732
   43      C       3.5247068769    -5.4889198368    -3.7378784746
   44      H       3.4805039123    -5.9394424748    -2.7380912720
   45      C       3.3218934275    -6.5755709302    -4.8431825532
   46      H       2.6529852181    -4.8245551752    -3.7609207396
   47      H       4.2797299891    -7.1084756479    -4.8396212190
   48      H       3.3326953435    -6.1048312000    -5.8335549200
   49      C       2.0430723259    -7.4306389286    -4.7553400346
   50      H       2.0545517340    -7.8507720466    -3.7414833454
   51      C       1.9372515780    -8.4782610086    -5.9219723446
   52      H       1.1209242145    -6.8513967335    -4.8872920722
   53      H       2.7261059300    -9.2282572085    -5.7852408140
   54      H       2.1185725737    -8.0023653797    -6.8931963389
   55      H       1.0015897808    -9.0408222945    -6.0344258943
   56      C      -3.0738154627    -4.3888498609     1.6925102759
   57      C      -3.2701511993    -3.0872442741     1.2941496668
   58      N      -1.9144610285    -4.8617845585     2.2018147700
   59      C      -2.2420005561    -2.1794917200     1.3475964218
   60      C      -0.8750660470    -3.9689234489     2.2651007190
   61      C      -0.9569590908    -2.6070515357     1.9245314583
   62      C       0.2234006841    -1.6171070568     1.9501777151
   63      C       0.0076289407    -0.2007782687     2.0030674010
   64      C       1.6015704207    -1.9549719878     1.9245756551
   65      N       1.0282768973     0.7061502030     1.9481811943
   66      N       2.0583947653    -3.2098342546     1.6406703725
   67      C       2.6457057659    -1.0068136931     1.9307586246
   68      C       2.3198956962     0.3586144912     1.9734162386
   69      S       3.6455155498    -3.1023828570     1.5224679502
   70      N       3.9109091435    -1.5322892296     1.8101730795
   71      C       3.3803252806     1.3510709043     1.8848195980
   72      S       5.1057516664     1.1663494956     2.1048532056
   73      C       3.1573225740     2.6183923481     1.4461418678
   74      C       5.4807632995     2.8412192998     1.6823056769
   75      S       1.6997331562     3.4081401027     1.1787534366
   76      C       4.3148865713     3.4862358759     1.3632491442
   77      C       6.7627941778     3.4554559299     1.6827408419
   78      C       2.5556822860     4.9118027805     0.8894134310
   79      C       3.9421206523     4.8117903802     1.0605746892
   80      N       6.9277388598     4.5845729473     1.0503200856
   81      S       8.1050716361     2.6671438344     2.4227275072
   82      C       8.2885993886     4.9592771865     1.1002135148
   83      C       9.0944971074     3.9268344637     1.6135329972
   84      C      -4.1150194950    -5.4658920966     1.4087406764
   85      H      -4.2192351828    -2.8410427133     0.8275584284
   86      H      -2.2580854626    -1.1613008473     0.9689268793
   87      H       0.0930579245    -4.3048473363     2.6349170486
   88      H      -1.0199013531     0.1595616950     2.0089500786
   89      H       1.9445077977     5.7534717172     0.5922263758
   90      H       4.5834082866     5.6813973244     1.1456272172
   91      H       8.6697463132     5.8143697032     0.5572643370
   92      H      10.1602369432     3.7618774180     1.7106966501
   93      H      -4.9426955018    -5.0168083601     0.8469237797
   94      C      -4.5567033766    -6.2854007761     2.6327001826
   95      H      -3.5353121693    -6.1812111799     0.8123951176
   96      H      -3.7447496292    -6.3210393755     3.3697938011
   97      H      -4.6700460967    -7.2993715762     2.2325631506
   98      C      -5.8509073840    -5.6058995599     3.2277918430
   99      H      -5.6978704715    -4.6387113455     3.7230591056
  100      C      -6.4663082967    -6.6038596058     4.2172742651
  101      H      -6.5644540845    -5.6008616564     2.3946323590
  102      H      -5.8394543050    -6.7574599088     5.1037402938
  103      H      -6.5588069586    -7.5632874480     3.6930260290
  104      C      -7.8804090230    -6.3071410730     4.6777992354
  105      H      -8.4232179872    -5.9377113049     3.7989539277
  106      C      -7.9041533668    -5.2670557487     5.8370773403
  107      H      -8.2754089586    -7.2001548764     5.1762391996
  108      H      -8.9514276377    -5.2732027959     6.1649871072
  109      H      -7.5893791404    -4.3853319200     5.2663713948
  110      H      -7.2160006281    -5.4746205110     6.6662345496
 ----------------------------------------------------------------

   10   -5663.4981872221      3.79E-06 Convergence criterion met
 Total energy in the final basis set = -5663.4981872221

                    Orbital Energies (a.u.)
 --------------------------------------------------------------

 Alpha MOs
 -- Occupied --
-88.990 -88.986 -88.927 -88.925 -88.922 -88.920 -88.908 -88.900
-14.387 -14.383 -14.379 -14.376 -14.351 -14.349 -14.342 -14.338
-14.335 -14.332 -10.272 -10.264 -10.263 -10.259 -10.255 -10.254
-10.254 -10.250 -10.245 -10.244 -10.242 -10.239 -10.238 -10.235
-10.233 -10.232 -10.232 -10.232 -10.231 -10.231 -10.230 -10.227
-10.227 -10.226 -10.223 -10.223 -10.219 -10.218 -10.218 -10.218
-10.217 -10.209 -10.204 -10.202 -10.198 -10.197 -10.193 -10.192
-10.190 -10.182 -10.182 -10.180 -10.179 -10.178 -10.172 -10.171
-10.170 -10.168 -10.167 -10.166  -8.046  -8.041  -7.986  -7.985
 -7.984  -7.979  -7.970  -7.961  -6.011  -6.006  -6.005  -6.003
 -6.000  -5.999  -5.950  -5.950  -5.947  -5.947  -5.946  -5.944
 -5.944  -5.943  -5.942  -5.940  -5.940  -5.936  -5.934  -5.931
 -5.926  -5.925  -5.921  -5.918  -1.041  -1.038  -0.973  -0.966
 -0.957  -0.954  -0.937  -0.934  -0.924  -0.911  -0.907  -0.900
 -0.851  -0.844  -0.831  -0.825  -0.811  -0.807  -0.805  -0.801
 -0.800  -0.798  -0.797  -0.796  -0.785  -0.778  -0.768  -0.764
 -0.750  -0.748  -0.742  -0.740  -0.726  -0.716  -0.708  -0.707
 -0.694  -0.692  -0.674  -0.668  -0.653  -0.651  -0.642  -0.642
 -0.633  -0.633  -0.627  -0.627  -0.612  -0.610  -0.596  -0.596
 -0.595  -0.591  -0.582  -0.580  -0.575  -0.574  -0.564  -0.554
 -0.553  -0.543  -0.541  -0.538  -0.523  -0.521  -0.511  -0.508
 -0.507  -0.505  -0.501  -0.498  -0.488  -0.485  -0.479  -0.473
 -0.473  -0.471  -0.470  -0.469  -0.459  -0.456  -0.456  -0.450
 -0.445  -0.436  -0.436  -0.434  -0.433  -0.432  -0.430  -0.428
 -0.428  -0.425  -0.423  -0.420  -0.419  -0.417  -0.416  -0.414
 -0.411  -0.408  -0.406  -0.405  -0.402  -0.401  -0.396  -0.395
 -0.392  -0.391  -0.387  -0.386  -0.384  -0.383  -0.380  -0.379
 -0.377  -0.376  -0.375  -0.372  -0.365  -0.363  -0.362  -0.358
 -0.352  -0.351  -0.349  -0.346  -0.345  -0.345  -0.341  -0.341
 -0.337  -0.333  -0.330  -0.329  -0.326  -0.323  -0.321  -0.320
 -0.313  -0.310  -0.309  -0.302  -0.302  -0.299  -0.298  -0.297
 -0.291  -0.290  -0.290  -0.286  -0.286  -0.284  -0.282  -0.280
 -0.273  -0.270  -0.268  -0.268  -0.255  -0.253  -0.250  -0.250
 -0.246  -0.240  -0.234  -0.228  -0.192  -0.191

          Ground-State Mulliken Net Atomic Charges

     Atom                 Charge (a.u.)
  ----------------------------------------
      1 C                     0.266046
      2 C                    -0.120418
      3 N                    -0.460702
      4 C                    -0.080660
      5 C                     0.072452
      6 C                     0.047023
      7 C                    -0.000149
      8 C                     0.073218
      9 C                     0.232568
     10 N                    -0.485131
     11 N                    -0.552714
     12 C                     0.177365
     13 C                     0.248632
     14 S                     0.607371
     15 N                    -0.551585
     16 C                    -0.186336
     17 S                     0.309129
     18 C                    -0.120645
     19 C                    -0.254824
     20 S                     0.299413
     21 C                     0.198414
     22 C                     0.071047
     23 C                    -0.322806
     24 C                    -0.057438
     25 N                    -0.430735
     26 S                     0.249780
     27 C                     0.136551
     28 C                    -0.321344
     29 C                    -0.231347
     30 H                     0.093983
     31 H                     0.102078
     32 H                     0.120191
     33 H                     0.131530
     34 H                     0.125101
     35 H                     0.128196
     36 H                     0.118775
     37 H                     0.128905
     38 H                     0.097326
     39 C                    -0.184096
     40 H                     0.117715
     41 H                     0.089840
     42 H                     0.093407
     43 C                    -0.172464
     44 H                     0.091479
     45 C                    -0.175386
     46 H                     0.111503
     47 H                     0.086060
     48 H                     0.082861
     49 C                    -0.173330
     50 H                     0.097322
     51 C                    -0.325316
     52 H                     0.099977
     53 H                     0.101834
     54 H                     0.101922
     55 H                     0.099149
     56 C                     0.281333
     57 C                    -0.116579
     58 N                    -0.494039
     59 C                    -0.083817
     60 C                     0.080110
     61 C                     0.040200
     62 C                     0.038424
     63 C                     0.048968
     64 C                     0.190667
     65 N                    -0.553486
     66 N                    -0.522549
     67 C                     0.184716
     68 C                     0.326388
     69 S                     0.630194
     70 N                    -0.561840
     71 C                    -0.201278
     72 S                     0.323632
     73 C                    -0.158716
     74 C                    -0.256407
     75 S                     0.344231
     76 C                     0.166163
     77 C                     0.095138
     78 C                    -0.336000
     79 C                    -0.049010
     80 N                    -0.443738
     81 S                     0.249724
     82 C                     0.108391
     83 C                    -0.300115
     84 C                    -0.230550
     85 H                     0.092612
     86 H                     0.100692
     87 H                     0.119945
     88 H                     0.118686
     89 H                     0.131519
     90 H                     0.120570
     91 H                     0.120949
     92 H                     0.133235
     93 H                     0.087505
     94 C                    -0.171914
     95 H                     0.121384
     96 H                     0.124138
     97 H                     0.094777
     98 C                    -0.179389
     99 H                     0.102979
    100 C                    -0.166659
    101 H                     0.091207
    102 H                     0.086521
    103 H                     0.085807
    104 C                    -0.185336
    105 H                     0.088326
    106 C                    -0.311045
    107 H                     0.088901
    108 H                     0.100183
    109 H                     0.100348
    110 H                     0.103175
  ----------------------------------------
  Sum of atomic charges =     0.000000

                    Cartesian Multipole Moments
 -----------------------------------------------------------------
    Charge (ESU x 10^10)
                 0.0000
    Dipole Moment (Debye)
         X       0.4485      Y       2.6124      Z      -1.6977
       Tot       3.1477
    Quadrupole Moments (Debye-Ang)
        XX    -393.5722     XY      -1.3105     YY    -437.2881
        XZ       7.5469     YZ      -2.4434     ZZ    -442.2825

 Total job time:  109.65s(wall), 1186.75s(cpu)
        *  Thank you very much for using Q-Chem.  Have a nice day.  *
