 Q-Chem 4.4, Q-Chem, Inc., Pleasanton, CA (2016)
 Q-Chem 4.4.2 for Intel X86 Linux

User input:
--------------------------------------------------------------
$comment
SP
$end

$rem
MEM_STATIC 5000
MEM_TOTAL 20000
JOBTYPE SP
EXCHANGE B3LYP
BASIS 6-31g(d,p)
$end

$molecule
0 1
C           0.089000    -17.962000     12.594000
C           0.525000    -17.131000     13.617000
N           0.721000    -18.072000     11.400000
C           1.698000    -16.386000     13.345000
C           1.845000    -17.407000     11.185000
C           2.401000    -16.442000     12.112000
C           3.617000    -15.586000     11.877000
C           3.715000    -14.279000     12.386000
C           4.702000    -16.054000     11.026000
N           4.705000    -13.469000     12.051000
N           4.913000    -17.212000     10.447000
C           5.731000    -15.133000     10.769000
C           5.719000    -13.772000     11.255000
S           6.410000    -17.247000      9.742000
N           6.739000    -15.700000     10.043000
C           6.676000    -12.714000     10.916000
S           7.745000    -12.760000      9.500000
C           6.911000    -11.597000     11.678000
C           8.244000    -11.072000      9.819000
S           6.598000    -11.393000     13.374000
C           7.860000    -10.794000     11.076000
C           9.019000    -10.203000      8.976000
C           7.672000     -9.976000     13.141000
C           8.394000     -9.861000     11.964000
N           9.121000    -10.697000      7.728000
S           9.935000     -8.766000      9.314000
C           9.730000     -9.835000      6.857000
C          10.154000     -8.711000      7.541000
C          -1.216000    -18.757000     12.774000
H           0.016000    -17.171000     14.575000
H           2.096000    -15.761000     14.139000
H           2.345000    -17.691000     10.261000
H           2.849000    -13.840000     12.878000
H           7.912000     -9.292000     13.944000
H           9.204000     -9.192000     11.697000
H           9.791000    -10.173000      5.831000
H          10.829000     -7.972000      7.132000
H          -1.018000    -19.810000     13.008000
C          -2.091000    -18.554000     11.557000
H          -1.739000    -18.288000     13.616000
H          -1.591000    -19.221000     10.845000
H          -2.148000    -17.471000     11.390000
C          -3.557000    -19.034000     11.846000
H          -3.686000    -20.092000     12.107000
C          -4.474000    -18.616000     10.664000
H          -3.951000    -18.501000     12.720000
H          -4.122000    -19.161000      9.779000
H          -4.197000    -17.577000     10.445000
C          -5.953000    -18.869000     10.833000
H          -6.459000    -18.705000      9.874000
C          -6.663000    -17.982000     11.764000
H          -6.106000    -19.935000     11.042000
H          -7.743000    -17.984000     11.575000
H          -6.243000    -16.992000     11.545000
H          -6.463000    -18.293000     12.797000
C          11.838000    -12.256000      9.648000
C          11.275000    -11.719000     10.858000
N          11.627000    -13.577000      9.404000
C          10.667000    -12.619000     11.777000
C          10.941000    -14.378000     10.218000
C          10.450000    -13.966000     11.427000
C           9.541000    -14.805000     12.276000
C           8.543000    -14.247000     13.012000
C           9.587000    -16.239000     12.331000
N           7.623000    -14.881000     13.766000
N          10.573000    -17.004000     11.760000
C           8.719000    -16.995000     13.127000
C           7.646000    -16.267000     13.771000
S          10.337000    -18.525000     12.335000
N           8.980000    -18.287000     13.255000
C           6.495000    -16.937000     14.452000
S           5.794000    -18.338000     13.837000
C           5.627000    -16.327000     15.306000
C           4.409000    -18.289000     14.877000
S           5.699000    -14.848000     16.139000
C           4.519000    -17.130000     15.572000
C           3.353000    -19.192000     14.999000
C           4.150000    -15.235000     16.904000
C           3.624000    -16.427000     16.475000
N           2.743000    -19.325000     16.137000
S           2.941000    -20.186000     13.587000
C           1.720000    -20.215000     15.929000
C           1.662000    -20.766000     14.635000
C          12.686000    -11.501000      8.701000
H          11.400000    -10.668000     11.101000
H          10.330000    -12.112000     12.676000
H          10.751000    -15.378000      9.830000
H           8.528000    -13.160000     13.078000
H           3.758000    -14.483000     17.577000
H           2.593000    -16.721000     16.637000
H           1.010000    -20.352000     16.734000
H           0.882000    -21.412000     14.255000
H          12.251000    -11.781000      7.734000
C          14.190000    -11.784000      8.675000
H          12.489000    -10.421000      8.705000
H          14.599000    -11.246000      7.810000
H          14.418000    -12.852000      8.570000
C          15.002000    -11.126000      9.831000
H          14.476000    -11.360000     10.764000
C          15.097000     -9.602000      9.828000
H          16.000000    -11.537000     10.024000
H          14.156000     -9.142000      9.503000
H          15.591000     -9.347000      8.882000
C          15.737000     -8.920000     11.045000
H          15.607000     -7.833000     10.964000
C          17.222000     -9.314000     11.281000
H          15.145000     -9.222000     11.917000
H          17.865000     -9.142000     10.409000
H          17.340000    -10.375000     11.534000
H          17.707000     -8.844000     12.146000
$end

--------------------------------------------------------------

             Standard Nuclear Orientation (Angstroms)
    I     Atom           X                Y                Z
 ----------------------------------------------------------------
    1      C      -6.9237263517    -0.9513112702     0.2171518790
    2      C      -6.3384969291    -0.6633944375    -1.0083261585
    3      N      -6.2135438259    -1.2402967530     1.3348674828
    4      C      -4.9228832533    -0.6832739573    -1.0324244070
    5      C      -4.8908851646    -1.2021679202     1.3041061786
    6      C      -4.1180434517    -0.9920548008     0.0965225733
    7      C      -2.6173501425    -1.0386508862    -0.0146772315
    8      C      -1.9725135703    -1.5227710969    -1.1665224540
    9      C      -1.7766558589    -0.6689737496     1.1153767213
   10      N      -0.6649566236    -1.7148901141    -1.2090678938
   11      N      -2.0728856522    -0.1592236705     2.2871824930
   12      C      -0.3954753636    -0.8663171683     0.9525055623
   13      C       0.1890465860    -1.4548748648    -0.2309617707
   14      S      -0.6957637573     0.2338288488     3.1168233814
   15      N       0.3057021372    -0.4020338465     2.0283401730
   16      C       1.5955588972    -1.8234159439    -0.4207895647
   17      S       2.7486077135    -2.0539616274     0.9085937944
   18      C       2.2088995717    -1.9707968529    -1.6396620291
   19      C       3.9606493485    -2.6806128040    -0.2482853600
   20      S       1.7147813560    -1.2874016671    -3.1578251326
   21      C       3.5312728029    -2.3332063044    -1.4729214309
   22      C       5.2181927472    -3.3135395558     0.0422715659
   23      C       3.3806489653    -1.7616488535    -3.6221835228
   24      C       4.2771305661    -2.1366554639    -2.6344949173
   25      N       5.2996632654    -3.6652202571     1.3390472748
   26      S       6.6488659273    -3.5541646386    -0.9135227745
   27      C       6.4199576441    -4.3958708838     1.6282810327
   28      C       7.2107826272    -4.4945302668     0.4987368006
   29      C      -8.4572460347    -1.0210901067     0.3215467811
   30      H      -6.9749991962    -0.3513197696    -1.8304692516
   31      H      -4.4288087275    -0.4162593409    -1.9619719085
   32      H      -4.4330575166    -1.2942345817     2.2871369892
   33      H      -2.5733065790    -1.9668938991    -1.9580675869
   34      H       3.7703640442    -1.6087297723    -4.6196818496
   35      H       5.3487317822    -2.2937394455    -2.6786022451
   36      H       6.5023347597    -4.7399738991     2.6507526097
   37      H       8.2327329520    -4.8475415360     0.5039882305
   38      H      -8.8717389920    -0.1172621765     0.7842126009
   39      C      -8.8476616622    -2.3027596929     1.0235593947
   40      H      -8.8242872639    -1.1052071433    -0.7083362512
   41      H      -8.6260694176    -2.0304874552     2.0621149810
   42      H      -8.3129230226    -3.1139702986     0.5136388709
   43      C     -10.3779132912    -2.5927907135     0.8304559014
   44      H     -11.0745436438    -1.8398097353     1.2201375641
   45      C     -10.7013733791    -4.0122389567     1.3720066897
   46      H     -10.6106053074    -2.6321551861    -0.2407610999
   47      H     -10.5078238061    -3.9933742918     2.4519773778
   48      H      -9.8985506637    -4.6523199950     0.9847303645
   49      C     -12.1036307326    -4.5217019537     1.1393421906
   50      H     -12.2553221598    -5.4390804625     1.7207365341
   51      C     -12.4329936467    -4.9162578982    -0.2366940289
   52      H     -12.8141754689    -3.8059872016     1.5709954905
   53      H     -13.3024945882    -5.5835457908    -0.2653293445
   54      H     -11.5350964445    -5.4511782876    -0.5715100847
   55      H     -12.6271682954    -4.0219210496    -0.8418946625
   56      C       6.4080398949    -0.1659913567     1.1782108685
   57      C       5.9692419472    -0.1023797717    -0.1903094738
   58      N       5.6089614323     0.4207247221     2.1089825126
   59      C       4.8210195992     0.6804373348    -0.4952813040
   60      C       4.4663006407     1.0400722116     1.8165308025
   61      C       4.0246599660     1.2195773239     0.5338627125
   62      C       2.6687639223     1.7674874266     0.1986859858
   63      C       1.9694309595     1.3198344468    -0.8781632222
   64      C       1.9688205565     2.7308456860     1.0008811919
   65      N       0.7271034190     1.6776476260    -1.2595606668
   66      N       2.5204480747     3.3981721329     2.0657025358
   67      C       0.6999016118     3.2169996248     0.6661050584
   68      C       0.0421054204     2.5699528318    -0.4495488387
   69      S       1.4370893408     4.5692955996     2.4588509548
   70      N       0.2379169474     4.2438791706     1.3631398985
   71      C      -1.3978127295     2.7888386703    -0.7904105574
   72      S      -2.5751587904     2.9589232678     0.4001164194
   73      C      -1.9850396038     2.4434851702    -1.9697050745
   74      C      -3.9174310468     2.8076239243    -0.6850746689
   75      S      -1.3387506409     2.0232168458    -3.4837061022
   76      C      -3.3743812335     2.5303360319    -1.8961132005
   77      C      -5.2854489833     2.9019779403    -0.4300192923
   78      C      -2.9854782906     1.9048693991    -4.1229845467
   79      C      -3.9467445546     2.1402683436    -3.1731764047
   80      N      -6.0894204118     3.3240302284    -1.3575616408
   81      S      -5.8563980735     2.5061135883     1.2036368989
   82      C      -7.3579591428     3.2375852331    -0.8425570284
   83      C      -7.4305202525     2.8126014029     0.4974148480
   84      C       7.6895127390    -0.7486727300     1.6301486595
   85      H       6.5593803908    -0.5633139862    -0.9767897770
   86      H       4.6180023360     0.7014548921    -1.5616589356
   87      H       3.8761740955     1.3516752867     2.6775175529
   88      H       2.4953877830     0.6617895956    -1.5684504042
   89      H      -3.0656497846     1.6123574938    -5.1622661816
   90      H      -4.9926716151     1.8850033690    -3.3016963518
   91      H      -8.1820362846     3.4189240270    -1.5199838555
   92      H      -8.3374483613     2.5987948274     1.0468547024
   93      H       7.3736521383    -1.3527336980     2.4892507651
   94      C       8.8124995303     0.1952981998     2.0667268887
   95      H       8.0715188651    -1.5322790713     0.9628725385
   96      H       9.5994539974    -0.4304612808     2.5072694396
   97      H       8.4825397869     0.9293261862     2.8123558065
   98      C       9.5990270253     0.8641261789     0.8993847650
   99      H       8.8547642194     1.2758434635     0.2076602872
  100      C      10.4526258373    -0.0532237620     0.0267747982
  101      H      10.1893921395     1.7526800562     1.1525942419
  102      H       9.9610143877    -1.0191200845    -0.1407616963
  103      H      11.1832739565    -0.5022989854     0.7112174690
  104      C      11.0950168772     0.5462982334    -1.2316846285
  105      H      11.5535651464    -0.2558603572    -1.8243945749
  106      C      12.0939744295     1.7012873804    -0.9414418355
  107      H      10.2729453255     0.9317888978    -1.8462147836
  108      H      12.8928551348     1.4245432819    -0.2424287293
  109      H      11.6045692699     2.5796254698    -0.5025126950
  110      H      12.5683378212     2.1523499612    -1.8222777571
 ----------------------------------------------------------------

   11   -5663.4622494168      6.45E-06 Convergence criterion met
 Total energy in the final basis set = -5663.4622494168

                    Orbital Energies (a.u.)
 --------------------------------------------------------------

 Alpha MOs
 -- Occupied --
-88.989 -88.985 -88.940 -88.925 -88.923 -88.920 -88.919 -88.904
-14.387 -14.383 -14.379 -14.369 -14.352 -14.344 -14.340 -14.337
-14.324 -14.319 -10.269 -10.268 -10.263 -10.262 -10.255 -10.255
-10.252 -10.251 -10.237 -10.237 -10.234 -10.233 -10.233 -10.232
-10.232 -10.231 -10.230 -10.230 -10.228 -10.227 -10.226 -10.226
-10.224 -10.224 -10.222 -10.218 -10.218 -10.217 -10.216 -10.210
-10.209 -10.208 -10.206 -10.202 -10.200 -10.198 -10.198 -10.197
-10.187 -10.185 -10.183 -10.181 -10.177 -10.177 -10.176 -10.175
-10.175 -10.170 -10.169 -10.166  -8.044  -8.040  -8.000  -7.986
 -7.981  -7.981  -7.977  -7.965  -6.009  -6.006  -6.004  -6.001
 -6.000  -5.998  -5.964  -5.961  -5.956  -5.949  -5.946  -5.946
 -5.945  -5.943  -5.943  -5.942  -5.941  -5.938  -5.938  -5.937
 -5.933  -5.930  -5.926  -5.922  -1.033  -1.033  -0.977  -0.966
 -0.961  -0.949  -0.936  -0.931  -0.924  -0.922  -0.902  -0.893
 -0.853  -0.845  -0.830  -0.824  -0.812  -0.808  -0.808  -0.807
 -0.806  -0.804  -0.796  -0.795  -0.790  -0.782  -0.770  -0.765
 -0.756  -0.746  -0.746  -0.738  -0.726  -0.720  -0.713  -0.710
 -0.696  -0.696  -0.677  -0.672  -0.661  -0.647  -0.641  -0.640
 -0.636  -0.631  -0.623  -0.617  -0.617  -0.612  -0.603  -0.599
 -0.593  -0.592  -0.587  -0.582  -0.579  -0.572  -0.564  -0.560
 -0.550  -0.547  -0.543  -0.537  -0.525  -0.523  -0.522  -0.510
 -0.508  -0.502  -0.501  -0.499  -0.485  -0.481  -0.478  -0.473
 -0.473  -0.470  -0.465  -0.463  -0.459  -0.456  -0.451  -0.450
 -0.447  -0.443  -0.442  -0.442  -0.440  -0.439  -0.435  -0.433
 -0.429  -0.424  -0.422  -0.420  -0.419  -0.418  -0.418  -0.414
 -0.413  -0.409  -0.407  -0.404  -0.403  -0.399  -0.397  -0.395
 -0.393  -0.392  -0.391  -0.389  -0.386  -0.385  -0.384  -0.380
 -0.378  -0.377  -0.376  -0.373  -0.372  -0.365  -0.362  -0.359
 -0.352  -0.351  -0.349  -0.346  -0.343  -0.342  -0.341  -0.338
 -0.337  -0.337  -0.334  -0.329  -0.328  -0.327  -0.320  -0.317
 -0.315  -0.312  -0.310  -0.305  -0.304  -0.298  -0.297  -0.296
 -0.295  -0.293  -0.291  -0.290  -0.290  -0.284  -0.280  -0.277
 -0.275  -0.268  -0.266  -0.259  -0.256  -0.247  -0.244  -0.243
 -0.241  -0.238  -0.231  -0.227  -0.195  -0.190

          Ground-State Mulliken Net Atomic Charges

     Atom                 Charge (a.u.)
  ----------------------------------------
      1 C                     0.271748
      2 C                    -0.109094
      3 N                    -0.482014
      4 C                    -0.110450
      5 C                     0.084328
      6 C                     0.035132
      7 C                     0.010795
      8 C                     0.082583
      9 C                     0.325377
     10 N                    -0.532171
     11 N                    -0.608968
     12 C                     0.148052
     13 C                     0.336535
     14 S                     0.603920
     15 N                    -0.564859
     16 C                    -0.208712
     17 S                     0.350204
     18 C                    -0.114289
     19 C                    -0.204683
     20 S                     0.314197
     21 C                     0.160733
     22 C                     0.050195
     23 C                    -0.313744
     24 C                    -0.078975
     25 N                    -0.428349
     26 S                     0.266021
     27 C                     0.138463
     28 C                    -0.327151
     29 C                    -0.235282
     30 H                     0.095797
     31 H                     0.100888
     32 H                     0.118888
     33 H                     0.119014
     34 H                     0.112084
     35 H                     0.105834
     36 H                     0.129768
     37 H                     0.121650
     38 H                     0.105604
     39 C                    -0.156301
     40 H                     0.089443
     41 H                     0.125455
     42 H                     0.099393
     43 C                    -0.187075
     44 H                     0.084930
     45 C                    -0.171803
     46 H                     0.086359
     47 H                     0.089439
     48 H                     0.083670
     49 C                    -0.174200
     50 H                     0.088377
     51 C                    -0.302126
     52 H                     0.086543
     53 H                     0.099275
     54 H                     0.100080
     55 H                     0.099893
     56 C                     0.293638
     57 C                    -0.133205
     58 N                    -0.496483
     59 C                    -0.101528
     60 C                     0.099325
     61 C                     0.058649
     62 C                     0.102124
     63 C                     0.056528
     64 C                     0.193546
     65 N                    -0.526120
     66 N                    -0.547389
     67 C                     0.225387
     68 C                     0.255061
     69 S                     0.592961
     70 N                    -0.562976
     71 C                    -0.220696
     72 S                     0.323764
     73 C                    -0.095474
     74 C                    -0.221404
     75 S                     0.272322
     76 C                     0.144777
     77 C                     0.065802
     78 C                    -0.315650
     79 C                    -0.047616
     80 N                    -0.424984
     81 S                     0.287501
     82 C                     0.109702
     83 C                    -0.304662
     84 C                    -0.231979
     85 H                     0.083117
     86 H                     0.105967
     87 H                     0.118601
     88 H                     0.106110
     89 H                     0.128453
     90 H                     0.108589
     91 H                     0.109936
     92 H                     0.126552
     93 H                     0.126775
     94 C                    -0.181645
     95 H                     0.102576
     96 H                     0.092041
     97 H                     0.115893
     98 C                    -0.175549
     99 H                     0.087777
    100 C                    -0.179284
    101 H                     0.095022
    102 H                     0.078563
    103 H                     0.081758
    104 C                    -0.173222
    105 H                     0.093969
    106 C                    -0.321844
    107 H                     0.095840
    108 H                     0.105826
    109 H                     0.107215
    110 H                     0.099627
  ----------------------------------------
  Sum of atomic charges =     0.000000

                    Cartesian Multipole Moments
 -----------------------------------------------------------------
    Charge (ESU x 10^10)
                 0.0000
    Dipole Moment (Debye)
         X       1.2002      Y      -0.9243      Z      -2.1275
       Tot       2.6117
    Quadrupole Moments (Debye-Ang)
        XX    -393.7946     XY     -14.9584     YY    -454.2399
        XZ      -5.3851     YZ       7.5654     ZZ    -433.7570

 Total job time:  145.04s(wall), 1540.82s(cpu)
        *  Thank you very much for using Q-Chem.  Have a nice day.  *
