 Q-Chem 4.4, Q-Chem, Inc., Pleasanton, CA (2016)
 Q-Chem 4.4.2 for Intel X86 Linux

User input:
--------------------------------------------------------------
$comment
SP
$end

$rem
MEM_STATIC 5000
MEM_TOTAL 20000
JOBTYPE SP
EXCHANGE B3LYP
BASIS 6-31g(d,p)
$end

$molecule
0 1
C           4.472000    -28.449000     -2.330000
C           5.698000    -28.190000     -2.947000
N           3.955000    -27.536000     -1.433000
C           6.520000    -27.097000     -2.528000
C           4.703000    -26.453000     -1.088000
C           6.013000    -26.184000     -1.616000
C           6.885000    -25.002000     -1.113000
C           8.326000    -25.191000     -1.070000
C           6.434000    -23.771000     -0.655000
N           9.174000    -24.330000     -0.542000
N           5.121000    -23.479000     -0.664000
C           7.307000    -22.800000     -0.167000
C           8.683000    -23.091000     -0.203000
S           5.096000    -22.100000      0.172000
N           6.656000    -21.767000      0.301000
C           9.648000    -22.112000      0.430000
S           9.429000    -20.366000      0.562000
C          10.923000    -22.449000      0.849000
C          11.110000    -20.194000      1.182000
S          11.751000    -24.001000      0.770000
C          11.726000    -21.355000      1.234000
C          11.570000    -18.943000      1.524000
C          13.221000    -23.116000      1.355000
C          13.009000    -21.746000      1.478000
N          11.124000    -17.896000      0.946000
S          12.714000    -18.705000      2.805000
C          11.945000    -16.781000      1.270000
C          12.940000    -17.043000      2.211000
C           3.757000    -29.696000     -2.622000
H           6.088000    -28.834000     -3.730000
H           7.473000    -26.870000     -2.997000
H           4.257000    -25.834000     -0.310000
H           8.801000    -26.137000     -1.327000
H          14.125000    -23.668000      1.577000
H          13.706000    -20.970000      1.773000
H          11.803000    -15.856000      0.726000
H          13.602000    -16.290000      2.617000
H           4.414000    -30.553000     -2.426000
C           3.148000    -29.819000     -3.956000
H           2.954000    -29.794000     -1.882000
H           3.872000    -29.421000     -4.679000
H           2.225000    -29.227000     -3.977000
C           2.877000    -31.244000     -4.264000
H           3.796000    -31.826000     -4.118000
C           2.488000    -31.467000     -5.777000
H           2.283000    -31.722000     -3.475000
H           2.309000    -32.520000     -6.030000
H           3.420000    -31.436000     -6.356000
C           1.452000    -30.589000     -6.475000
H           0.569000    -30.451000     -5.840000
C           1.085000    -31.047000     -7.832000
H           1.836000    -29.563000     -6.543000
H           0.306000    -31.819000     -7.830000
H           1.931000    -31.440000     -8.410000
H           0.707000    -30.216000     -8.440000
C           3.208000    -19.081000      0.334000
C           2.226000    -19.123000      1.338000
N           3.051000    -19.811000     -0.790000
C           1.200000    -20.027000      1.257000
C           1.973000    -20.557000     -0.907000
C           1.002000    -20.750000      0.076000
C          -0.186000    -21.641000     -0.134000
C          -0.607000    -22.058000     -1.419000
C          -0.829000    -22.314000      0.932000
N          -1.659000    -22.837000     -1.641000
N          -0.373000    -22.238000      2.164000
C          -1.825000    -23.191000      0.728000
C          -2.322000    -23.406000     -0.577000
S          -1.184000    -23.297000      2.986000
N          -2.201000    -23.889000      1.875000
C          -3.524000    -24.192000     -0.836000
S          -4.864000    -24.604000      0.269000
C          -3.862000    -24.792000     -2.074000
C          -5.720000    -25.624000     -0.807000
S          -3.051000    -24.729000     -3.581000
C          -4.988000    -25.616000     -2.010000
C          -6.791000    -26.440000     -0.434000
C          -4.266000    -25.904000     -4.234000
C          -5.243000    -26.246000     -3.319000
N          -7.299000    -27.317000     -1.316000
S          -7.790000    -26.230000      1.026000
C          -8.471000    -27.876000     -0.872000
C          -8.894000    -27.391000      0.340000
C           4.426000    -18.294000      0.548000
H           2.303000    -18.430000      2.170000
H           0.387000    -19.876000      1.961000
H           1.893000    -21.058000     -1.870000
H          -0.048000    -21.760000     -2.305000
H          -4.186000    -26.123000     -5.291000
H          -6.017000    -26.964000     -3.566000
H          -8.999000    -28.664000     -1.393000
H          -9.777000    -27.684000      0.893000
H           4.026000    -17.273000      0.561000
C           5.641000    -18.423000     -0.438000
H           4.857000    -18.426000      1.548000
H           5.253000    -18.144000     -1.425000
H           5.856000    -19.491000     -0.571000
C           6.950000    -17.692000     -0.101000
H           7.620000    -18.303000      0.516000
C           6.906000    -16.228000      0.485000
H           7.460000    -17.533000     -1.059000
H           6.231000    -16.140000      1.346000
H           6.482000    -15.605000     -0.312000
C           8.245000    -15.731000      0.897000
H           8.542000    -16.204000      1.841000
C           8.287000    -14.195000      1.045000
H           9.054000    -16.056000      0.232000
H           7.820000    -13.781000      1.947000
H           7.925000    -13.707000      0.132000
H           9.357000    -13.952000      1.069000
$end

--------------------------------------------------------------

             Standard Nuclear Orientation (Angstroms)
    I     Atom           X                Y                Z
 ----------------------------------------------------------------
    1      C       1.3120928671    -5.4053248377    -0.6467376681
    2      C       0.1952893724    -5.9741998943    -0.0303148228
    3      N       1.2758290898    -4.0803246276    -1.0321288740
    4      C      -1.0494528782    -5.2727482340     0.0365903183
    5      C       0.1132623612    -3.3857717371    -0.9000195108
    6      C      -1.0970449692    -3.9458465746    -0.3626952676
    7      C      -2.4354818875    -3.1595221699    -0.3344544057
    8      C      -3.6679141782    -3.9093768524    -0.5157817447
    9      C      -2.5916471883    -1.7872841277    -0.1891920410
   10      N      -4.8598254854    -3.3609847553    -0.6492828447
   11      N      -1.5213245149    -0.9951659765     0.0012606022
   12      C      -3.8441122206    -1.1774548354    -0.2397249701
   13      C      -4.9648549326    -2.0141869088    -0.3919360435
   14      S      -2.1794582734     0.4698524439    -0.1461944206
   15      N      -3.7417854064     0.1248772060    -0.1816347196
   16      C      -6.3258185441    -1.3775425219    -0.5730905979
   17      S      -6.8480894618     0.1761627437     0.0804643243
   18      C      -7.4065253785    -2.0209695639    -1.1500042654
   19      C      -8.5303183143    -0.1480954751    -0.4715390230
   20      S      -7.5202222541    -3.6567273999    -1.7917973178
   21      C      -8.6293029596    -1.3245884752    -1.0513211035
   22      C      -9.4996270572     0.8034835364    -0.2513051793
   23      C      -9.2923113736    -3.3311767807    -1.9919646147
   24      C      -9.6688078692    -2.0869173603    -1.4949315336
   25      N      -9.4280018905     1.5991610080     0.7441726942
   26      S     -10.8244159281     1.0336620378    -1.3459710210
   27      C     -10.6661207169     2.2796655939     0.9060902047
   28      C     -11.6038630015     2.0309800930    -0.0953811775
   29      C       2.5024800688    -6.2242148824    -0.8995130720
   30      H       0.2209929184    -6.9814623143     0.3755013240
   31      H      -1.9294864138    -5.6899118430     0.5174380068
   32      H       0.1489284234    -2.3767822155    -1.3099330106
   33      H      -3.6784310718    -4.9796803431    -0.7180929720
   34      H      -9.9215729810    -4.0703458062    -2.4703608742
   35      H     -10.6545945456    -1.6383532213    -1.4499332908
   36      H     -10.8253892658     2.8612784479     1.8050256960
   37      H     -12.5658031762     2.5216428820    -0.1587067458
   38      H       2.2225647926    -7.1141873562    -1.4775359384
   39      C       3.3060326869    -6.6120698260     0.2707167057
   40      H       3.1538392535    -5.6557323148    -1.5737324596
   41      H       2.6031748784    -6.8982628200     1.0640599298
   42      H       3.9056611944    -5.7498763649     0.5867896224
   43      C       4.1691680354    -7.7704739512    -0.0639880191
   44      H       3.5500140019    -8.5714751750    -0.4878350696
   45      C       4.8414806010    -8.4064481453     1.2141949251
   46      H       4.7765680998    -7.5770556940    -0.9570140766
   47      H       5.4639813051    -9.2819771990     0.9888047091
   48      H       4.0758170062    -9.0177224572     1.7090979207
   49      C       5.5321438865    -7.5442696069     2.2682425493
   50      H       6.1772331519    -6.7948006779     1.7948355743
   51      C       6.2549101124    -8.3146723103     3.3026460766
   52      H       4.7844218565    -6.9101018259     2.7616987190
   53      H       7.2677084297    -8.6027956228     2.9959646047
   54      H       5.7367355048    -9.2302125043     3.6149443785
   55      H       6.3562879278    -7.7342994982     4.2278481830
   56      C      -1.7090456702     3.7736457443     1.1063273601
   57      C      -0.9588515370     4.5722841481     0.2268448632
   58      N      -1.1025932381     2.7904208701     1.8037578544
   59      C       0.3426692267     4.2492031340    -0.0526463888
   60      C       0.1880725987     2.6019543769     1.6278286674
   61      C       0.9920731052     3.2656702418     0.7007669455
   62      C       2.4544548404     2.9691593844     0.5496181051
   63      C       3.1985438332     2.2844547811     1.5395000056
   64      C       3.1418887781     3.1404631179    -0.6754629584
   65      N       4.4950220071     2.0151108055     1.4424064043
   66      N       2.5109866538     3.5138424710    -1.7682055485
   67      C       4.4243124769     2.7757019542    -0.8338919652
   68      C       5.1591389346     2.2778727513     0.2654056114
   69      S       3.5422403917     3.3456881109    -2.9357353508
   70      N       4.8681982405     2.8461839958    -2.1538111713
   71      C       6.5995761041     2.0517245807     0.2047527839
   72      S       7.8059986918     2.7468783742    -0.9122408344
   73      C       7.3348564721     1.2035633430     1.0689710986
   74      C       9.1527378050     1.8483981204    -0.3555191855
   75      S       6.8076831869     0.2878951153     2.4167021637
   76      C       8.6724452691     1.0472632711     0.6983304400
   77      C      10.3901503322     1.8021925866    -1.0025905001
   78      C       8.4760919452    -0.4080365642     2.5405985425
   79      C       9.3556456334     0.1102883636     1.6097695685
   80      N      11.3355398218     0.9500678130    -0.5721963980
   81      S      10.9848990306     2.9986242859    -2.1809479055
   82      C      12.5502980572     1.1831420215    -1.1665362360
   83      C      12.5524832293     2.2529857615    -2.0259125197
   84      C      -3.1574491788     3.9752508979     1.2071819010
   85      H      -1.4335229609     5.4397346012    -0.2210599825
   86      H       0.9087587021     5.0076372962    -0.5852872880
   87      H       0.6085387985     1.8364816876     2.2774668258
   88      H       2.7097563475     1.9211364546     2.4424770748
   89      H       8.6533807863    -1.0534476083     3.3912590218
   90      H      10.3803888044    -0.2389423896     1.5502018380
   91      H      13.4228294969     0.5597564116    -1.0207683792
   92      H      13.3828885860     2.6216760262    -2.6139953645
   93      H      -3.2073994189     4.9735204975     1.6583723044
   94      C      -4.0523144956     2.9468298711     1.9860453399
   95      H      -3.6468870952     4.0963676154     0.2330329049
   96      H      -3.6626318135     2.9310630665     3.0109613439
   97      H      -3.7980543810     1.9403437528     1.6298494840
   98      C      -5.5792919570     3.1150926045     1.9481179766
   99      H      -6.0339892412     2.5908700439     1.0987940768
  100      C      -6.2160757148     4.5538021558     2.0632234628
  101      H      -5.9570819885     2.6311522096     2.8570851851
  102      H      -5.7734113218     5.2671761622     1.3562328249
  103      H      -5.9608457708     4.9085728332     3.0692599641
  104      C      -7.6878302252     4.5516972360     1.8543976253
  105      H      -7.9109694865     4.4324241831     0.7871315812
  106      C      -8.3641246247     5.8314372113     2.3909192753
  107      H      -8.1865271500     3.6709140685     2.2761243009
  108      H      -8.2462925061     6.7353502037     1.7808816585
  109      H      -8.0930298282     6.0033009954     3.4395981828
  110      H      -9.4317034936     5.5800412731     2.4309247843
 ----------------------------------------------------------------

   10   -5663.4957305427      3.27E-06 Convergence criterion met
 Total energy in the final basis set = -5663.4957305427

                    Orbital Energies (a.u.)
 --------------------------------------------------------------

 Alpha MOs
 -- Occupied --
-88.989 -88.985 -88.927 -88.923 -88.923 -88.916 -88.909 -88.905
-14.386 -14.379 -14.377 -14.375 -14.353 -14.349 -14.344 -14.339
-14.329 -14.328 -10.271 -10.263 -10.262 -10.258 -10.248 -10.248
-10.246 -10.246 -10.244 -10.241 -10.238 -10.237 -10.236 -10.234
-10.232 -10.231 -10.229 -10.229 -10.229 -10.228 -10.227 -10.226
-10.225 -10.225 -10.224 -10.222 -10.222 -10.221 -10.218 -10.214
-10.213 -10.209 -10.204 -10.199 -10.198 -10.197 -10.196 -10.194
-10.183 -10.179 -10.177 -10.175 -10.174 -10.174 -10.171 -10.169
-10.168 -10.167 -10.166 -10.165  -8.046  -8.041  -7.988  -7.984
 -7.983  -7.975  -7.968  -7.965  -6.011  -6.006  -6.005  -6.004
 -6.000  -5.999  -5.952  -5.948  -5.948  -5.948  -5.945  -5.945
 -5.944  -5.941  -5.940  -5.939  -5.936  -5.932  -5.931  -5.929
 -5.929  -5.925  -5.924  -5.921  -1.058  -1.054  -0.974  -0.964
 -0.957  -0.956  -0.949  -0.924  -0.917  -0.912  -0.912  -0.907
 -0.843  -0.838  -0.835  -0.828  -0.820  -0.813  -0.810  -0.803
 -0.802  -0.802  -0.799  -0.796  -0.787  -0.786  -0.768  -0.765
 -0.752  -0.747  -0.744  -0.736  -0.719  -0.717  -0.711  -0.709
 -0.694  -0.691  -0.678  -0.676  -0.658  -0.654  -0.654  -0.645
 -0.637  -0.634  -0.625  -0.622  -0.611  -0.609  -0.603  -0.599
 -0.598  -0.588  -0.588  -0.578  -0.578  -0.577  -0.567  -0.555
 -0.550  -0.548  -0.540  -0.539  -0.524  -0.521  -0.513  -0.510
 -0.507  -0.503  -0.501  -0.492  -0.489  -0.487  -0.481  -0.479
 -0.472  -0.471  -0.468  -0.466  -0.460  -0.460  -0.449  -0.449
 -0.447  -0.444  -0.443  -0.437  -0.437  -0.436  -0.433  -0.432
 -0.430  -0.429  -0.428  -0.420  -0.418  -0.414  -0.414  -0.413
 -0.410  -0.408  -0.406  -0.400  -0.398  -0.395  -0.394  -0.392
 -0.391  -0.391  -0.389  -0.386  -0.386  -0.385  -0.381  -0.379
 -0.377  -0.376  -0.374  -0.372  -0.365  -0.359  -0.356  -0.356
 -0.354  -0.351  -0.349  -0.347  -0.346  -0.345  -0.342  -0.341
 -0.338  -0.337  -0.334  -0.331  -0.330  -0.318  -0.318  -0.316
 -0.316  -0.311  -0.311  -0.304  -0.302  -0.302  -0.300  -0.298
 -0.298  -0.291  -0.290  -0.289  -0.286  -0.281  -0.280  -0.277
 -0.274  -0.272  -0.269  -0.261  -0.255  -0.252  -0.250  -0.246
 -0.241  -0.239  -0.230  -0.228  -0.193  -0.192

          Ground-State Mulliken Net Atomic Charges

     Atom                 Charge (a.u.)
  ----------------------------------------
      1 C                     0.271351
      2 C                    -0.115765
      3 N                    -0.489260
      4 C                    -0.094931
      5 C                     0.086931
      6 C                     0.054809
      7 C                     0.018068
      8 C                     0.058642
      9 C                     0.181216
     10 N                    -0.497958
     11 N                    -0.538674
     12 C                     0.269845
     13 C                     0.263234
     14 S                     0.639951
     15 N                    -0.567449
     16 C                    -0.236460
     17 S                     0.358902
     18 C                    -0.137854
     19 C                    -0.262599
     20 S                     0.283124
     21 C                     0.223416
     22 C                     0.068364
     23 C                    -0.325748
     24 C                    -0.061083
     25 N                    -0.438659
     26 S                     0.249380
     27 C                     0.103910
     28 C                    -0.299004
     29 C                    -0.241847
     30 H                     0.086801
     31 H                     0.102367
     32 H                     0.117008
     33 H                     0.109405
     34 H                     0.128192
     35 H                     0.105513
     36 H                     0.119156
     37 H                     0.133315
     38 H                     0.105659
     39 C                    -0.156020
     40 H                     0.118818
     41 H                     0.093243
     42 H                     0.114280
     43 C                    -0.188794
     44 H                     0.088509
     45 C                    -0.187396
     46 H                     0.094536
     47 H                     0.084768
     48 H                     0.089246
     49 C                    -0.162971
     50 H                     0.095913
     51 C                    -0.323439
     52 H                     0.097062
     53 H                     0.105821
     54 H                     0.099847
     55 H                     0.099972
     56 C                     0.274874
     57 C                    -0.121590
     58 N                    -0.488410
     59 C                    -0.052844
     60 C                     0.063708
     61 C                     0.054215
     62 C                     0.040926
     63 C                     0.066644
     64 C                     0.218277
     65 N                    -0.520041
     66 N                    -0.529774
     67 C                     0.173972
     68 C                     0.282517
     69 S                     0.608432
     70 N                    -0.540561
     71 C                    -0.217295
     72 S                     0.316919
     73 C                    -0.104979
     74 C                    -0.204585
     75 S                     0.276547
     76 C                     0.118043
     77 C                     0.064289
     78 C                    -0.311475
     79 C                    -0.044724
     80 N                    -0.446802
     81 S                     0.266639
     82 C                     0.135417
     83 C                    -0.307912
     84 C                    -0.251428
     85 H                     0.088160
     86 H                     0.107245
     87 H                     0.096662
     88 H                     0.113434
     89 H                     0.128191
     90 H                     0.128539
     91 H                     0.119077
     92 H                     0.133594
     93 H                     0.119187
     94 C                    -0.187060
     95 H                     0.117006
     96 H                     0.101365
     97 H                     0.111647
     98 C                    -0.202448
     99 H                     0.118092
    100 C                    -0.165558
    101 H                     0.099090
    102 H                     0.082745
    103 H                     0.083879
    104 C                    -0.181795
    105 H                     0.095740
    106 C                    -0.322055
    107 H                     0.107536
    108 H                     0.102963
    109 H                     0.101362
    110 H                     0.089743
  ----------------------------------------
  Sum of atomic charges =     0.000000

                    Cartesian Multipole Moments
 -----------------------------------------------------------------
    Charge (ESU x 10^10)
                 0.0000
    Dipole Moment (Debye)
         X      -0.2194      Y       0.4653      Z      -1.8856
       Tot       1.9545
    Quadrupole Moments (Debye-Ang)
        XX    -369.1856     XY      -3.3901     YY    -412.8556
        XZ      -3.0342     YZ     -12.4633     ZZ    -444.4524

 Total job time:  96.43s(wall), 1054.40s(cpu)
        *  Thank you very much for using Q-Chem.  Have a nice day.  *
