 Q-Chem 4.4, Q-Chem, Inc., Pleasanton, CA (2016)
 Q-Chem 4.4.2 for Intel X86 Linux

User input:
--------------------------------------------------------------
$comment
SP
$end

$rem
MEM_STATIC 5000
MEM_TOTAL 20000
JOBTYPE SP
EXCHANGE B3LYP
BASIS 6-31g(d,p)
$end

$molecule
0 1
C         -10.265000    -19.979000     10.346000
C          -9.053000    -20.635000      9.931000
N         -11.183000    -19.414000      9.463000
C          -8.750000    -20.646000      8.546000
C         -10.902000    -19.660000      8.160000
C          -9.754000    -20.171000      7.650000
C          -9.460000    -20.309000      6.198000
C          -8.220000    -19.898000      5.627000
C         -10.477000    -20.759000      5.319000
N          -7.988000    -20.032000      4.299000
N         -11.674000    -21.069000      5.734000
C         -10.230000    -20.830000      3.936000
C          -8.942000    -20.489000      3.428000
S         -12.446000    -21.555000      4.386000
N         -11.324000    -21.255000      3.237000
C          -8.570000    -20.826000      2.091000
S          -9.041000    -22.228000      1.103000
C          -7.684000    -20.106000      1.360000
C          -8.061000    -21.748000     -0.229000
S          -6.890000    -18.595000      1.840000
C          -7.462000    -20.613000      0.123000
C          -7.826000    -22.447000     -1.469000
C          -6.090000    -18.698000      0.217000
C          -6.462000    -19.811000     -0.523000
N          -8.362000    -23.598000     -1.530000
S          -6.928000    -21.929000     -2.873000
C          -7.981000    -24.205000     -2.716000
C          -7.243000    -23.470000     -3.576000
C         -10.639000    -19.843000     11.769000
H          -8.303000    -21.000000     10.626000
H          -7.818000    -21.101000      8.222000
H         -11.551000    -19.177000      7.431000
H          -7.407000    -19.530000      6.252000
H          -5.442000    -17.881000     -0.074000
H          -5.947000    -19.971000     -1.464000
H          -8.268000    -25.244000     -2.811000
H          -6.948000    -23.673000     -4.597000
H          -9.729000    -19.920000     12.377000
C         -11.763000    -20.777000     12.220000
H         -10.919000    -18.795000     11.933000
H         -11.401000    -21.812000     12.242000
H         -12.526000    -20.722000     11.434000
C         -12.287000    -20.317000     13.606000
H         -11.420000    -20.243000     14.274000
C         -13.262000    -21.444000     14.189000
H         -12.859000    -19.401000     13.411000
H         -12.894000    -22.458000     13.988000
H         -14.189000    -21.373000     13.607000
C         -13.557000    -21.334000     15.659000
H         -14.385000    -22.001000     15.931000
C         -13.939000    -19.921000     16.092000
H         -12.609000    -21.617000     16.133000
H         -13.050000    -19.284000     16.170000
H         -14.399000    -20.008000     17.084000
H         -14.693000    -19.431000     15.463000
C           3.208000    -19.081000      0.334000
C           2.226000    -19.123000      1.338000
N           3.051000    -19.811000     -0.790000
C           1.200000    -20.027000      1.257000
C           1.973000    -20.557000     -0.907000
C           1.002000    -20.750000      0.076000
C          -0.186000    -21.641000     -0.134000
C          -0.607000    -22.058000     -1.419000
C          -0.829000    -22.314000      0.932000
N          -1.659000    -22.837000     -1.641000
N          -0.373000    -22.238000      2.164000
C          -1.825000    -23.191000      0.728000
C          -2.322000    -23.406000     -0.577000
S          -1.184000    -23.297000      2.986000
N          -2.201000    -23.889000      1.875000
C          -3.524000    -24.192000     -0.836000
S          -4.864000    -24.604000      0.269000
C          -3.862000    -24.792000     -2.074000
C          -5.720000    -25.624000     -0.807000
S          -3.051000    -24.729000     -3.581000
C          -4.988000    -25.616000     -2.010000
C          -6.791000    -26.440000     -0.434000
C          -4.266000    -25.904000     -4.234000
C          -5.243000    -26.246000     -3.319000
N          -7.299000    -27.317000     -1.316000
S          -7.790000    -26.230000      1.026000
C          -8.471000    -27.876000     -0.872000
C          -8.894000    -27.391000      0.340000
C           4.426000    -18.294000      0.548000
H           2.303000    -18.430000      2.170000
H           0.387000    -19.876000      1.961000
H           1.893000    -21.058000     -1.870000
H          -0.048000    -21.760000     -2.305000
H          -4.186000    -26.123000     -5.291000
H          -6.017000    -26.964000     -3.566000
H          -8.999000    -28.664000     -1.393000
H          -9.777000    -27.684000      0.893000
H           4.026000    -17.273000      0.561000
C           5.641000    -18.423000     -0.438000
H           4.857000    -18.426000      1.548000
H           5.253000    -18.144000     -1.425000
H           5.856000    -19.491000     -0.571000
C           6.950000    -17.692000     -0.101000
H           7.620000    -18.303000      0.516000
C           6.906000    -16.228000      0.485000
H           7.460000    -17.533000     -1.059000
H           6.231000    -16.140000      1.346000
H           6.482000    -15.605000     -0.312000
C           8.245000    -15.731000      0.897000
H           8.542000    -16.204000      1.841000
C           8.287000    -14.195000      1.045000
H           9.054000    -16.056000      0.232000
H           7.820000    -13.781000      1.947000
H           7.925000    -13.707000      0.132000
H           9.357000    -13.952000      1.069000
$end

--------------------------------------------------------------

             Standard Nuclear Orientation (Angstroms)
    I     Atom           X                Y                Z
 ----------------------------------------------------------------
    1      C      -8.6460831192    -4.0461542778    -0.3255761153
    2      C      -7.4524574723    -3.9597617254    -1.1251379590
    3      N      -8.8344926680    -3.3477790387     0.8653948615
    4      C      -6.3850429521    -3.1668331959    -0.6331566696
    5      C      -7.8428744451    -2.4645112541     1.1370882931
    6      C      -6.6382853519    -2.3676767836     0.5216915090
    7      C      -5.5432302033    -1.4526329449     0.9428007523
    8      C      -4.1919497726    -1.8877464517     1.0742520123
    9      C      -5.8536926222    -0.1273718672     1.3386873044
   10      N      -3.2203229347    -1.0290610537     1.4666353391
   11      N      -7.0735733063     0.3341547460     1.3429653869
   12      C      -4.8347817940     0.7249651470     1.8013765505
   13      C      -3.4852753349     0.2652912541     1.8300336450
   14      S      -6.9096000953     1.8796406324     1.8265666287
   15      N      -5.3132223258     1.9512882889     2.1664631281
   16      C      -2.4039998783     1.1809333069     2.0088212792
   17      S      -2.2491816926     2.8699748490     1.4733224478
   18      C      -1.2292459806     0.8417293639     2.5941852386
   19      C      -0.6506391780     3.0275761205     2.0936833655
   20      S      -0.8180704215    -0.7208391747     3.3244394558
   21      C      -0.3346159950     1.8583667746     2.6450533440
   22      C       0.2485977761     4.1504269238     1.9841161536
   23      C       0.7862117855     0.0513121299     3.6632594125
   24      C       0.8842471627     1.3615530689     3.2178262002
   25      N      -0.1907895818     5.1041134165     1.2677092697
   26      S       1.8257234155     4.3729637129     2.6976258556
   27      C       0.7970893453     6.0693813774     1.1556423741
   28      C       1.9304979167     5.8775245434     1.8648990028
   29      C      -9.7881410165    -4.9030580451    -0.7059978456
   30      H      -7.2789754773    -4.5681185485    -2.0074961477
   31      H      -5.4623096532    -3.1255382667    -1.2054179631
   32      H      -7.9103906995    -1.9485417283     2.0937219763
   33      H      -3.8971785699    -2.8998274497     0.7988977105
   34      H       1.5118333937    -0.5269977345     4.2210272696
   35      H       1.8514766288     1.8428375111     3.3134214180
   36      H       0.5821851755     6.8646725873     0.4540419969
   37      H       2.7671322374     6.5404052568     2.0418373348
   38      H      -9.4230532551    -5.6936111068    -1.3734031071
   39      C     -10.9956178975    -4.1414492864    -1.2547096832
   40      H     -10.0689284963    -5.4837047437     0.1814748597
   41      H     -10.7592753180    -3.7314874526    -2.2440662821
   42      H     -11.1376315280    -3.2878733019    -0.5807436846
   43      C     -12.2231606005    -5.0892818804    -1.2985763712
   44      H     -11.9223186891    -5.9866406397    -1.8532207631
   45      C     -13.3973318585    -4.3752419337    -2.1184006276
   46      H     -12.5297083419    -5.2163116653    -0.2525568131
   47      H     -13.0225530972    -3.8306126492    -2.9941522034
   48      H     -13.7917804298    -3.5907000254    -1.4611348376
   49      C     -14.5050177171    -5.2858018274    -2.5699952674
   50      H     -15.3578117160    -4.6964517143    -2.9303643000
   51      C     -15.0133627959    -6.2086661034    -1.4655095006
   52      H     -14.0378116081    -5.8859800940    -3.3605479222
   53      H     -14.3212253277    -7.0441239931    -1.3069855607
   54      H     -15.9766198750    -6.6080636171    -1.8058775746
   55      H     -15.2244004359    -5.7145042193    -0.5086792404
   56      C       8.1620806054    -4.1705791050    -0.1295463501
   57      C       6.7746085727    -4.3589066978    -0.2459855032
   58      N       8.6764734578    -2.9237488882    -0.1712525096
   59      C       5.9637450847    -3.3037550610    -0.5709600056
   60      C       7.8515849144    -1.9108215810    -0.3319577093
   61      C       6.4794586625    -2.0034802416    -0.5666126078
   62      C       5.6159369632    -0.7932624523    -0.7641681118
   63      C       6.0267733543     0.5056138724    -0.3814296202
   64      C       4.4385476379    -0.8197536563    -1.5488888219
   65      N       5.2839632860     1.5957125929    -0.5322506459
   66      N       4.0738382516    -1.9036109475    -2.1998699551
   67      C       3.7260689770     0.2882938596    -1.8084381626
   68      C       4.0958393173     1.5202013372    -1.2236879065
   69      S       2.8916392655    -1.4658773508    -3.1302896752
   70      N       2.7136967187     0.0965445364    -2.7478654391
   71      C       3.2544240126     2.7095278243    -1.3085630626
   72      S       1.5048839760     2.8340355545    -1.6401900900
   73      C       3.6966187588     4.0430659835    -1.1268275829
   74      C       1.4183211454     4.5433123974    -1.6825168038
   75      S       5.2472331182     4.6368980266    -0.7076645920
   76      C       2.7223434575     5.0019479212    -1.4136743483
   77      C       0.3044953713     5.2645669142    -2.1197925370
   78      C       4.6145815205     6.3200253182    -0.9314803120
   79      C       3.2722265138     6.3613835199    -1.2556570154
   80      N       0.3873154795     6.5982789379    -2.2593277209
   81      S      -1.3581619112     4.6336442860    -2.2256622596
   82      C      -0.8396438152     7.1716737302    -2.4806652491
   83      C      -1.8815416621     6.2787678494    -2.4643568292
   84      C       9.0431700175    -5.3378109768    -0.0298457710
   85      H       6.3684336994    -5.3511174788    -0.0758627875
   86      H       4.8981694253    -3.4810844967    -0.4592067718
   87      H       8.3409695369    -0.9396544661    -0.2860542650
   88      H       7.0147122576     0.6662486585     0.0480516819
   89      H       5.2995023529     7.1171374581    -0.6724326529
   90      H       2.7697884602     7.3027410476    -1.4480394663
   91      H      -0.9843078167     8.2215492364    -2.6997605436
   92      H      -2.9309693019     6.4906259307    -2.6229909436
   93      H       8.7549398947    -5.7453684920     0.9465917682
   94      C      10.6001047235    -5.1726610751    -0.1470713285
   95      H       8.7883043314    -6.1348587860    -0.7390307059
   96      H      10.8875594470    -4.4889609648     0.6606897384
   97      H      10.8094838848    -4.5708098118    -1.0406447299
   98      C      11.4787502497    -6.4329126811    -0.1811143715
   99      H      11.6247355700    -6.8100933610    -1.2005912084
  100      C      11.1525315261    -7.6463004017     0.7727721960
  101      H      12.4647354346    -6.1211440046     0.1846430720
  102      H      10.1017014228    -7.9574857325     0.7126907186
  103      H      11.3115966443    -7.2707479857     1.7909925410
  104      C      12.0013134978    -8.8364960119     0.5031844107
  105      H      11.6587555292    -9.3372029132    -0.4106102255
  106      C      12.0077701965    -9.8378759671     1.6779867331
  107      H      13.0335591582    -8.5834819921     0.2333996773
  108      H      11.1123474542   -10.4614530545     1.7896054084
  109      H      12.2803072034    -9.3360716937     2.6142949361
  110      H      12.8616797619   -10.4957125249     1.4715538933
 ----------------------------------------------------------------

    9   -5663.5135485930      8.64E-06 Convergence criterion met
 Total energy in the final basis set = -5663.5135485930

                    Orbital Energies (a.u.)
 --------------------------------------------------------------

 Alpha MOs
 -- Occupied --
-88.989 -88.986 -88.924 -88.922 -88.921 -88.920 -88.906 -88.905
-14.389 -14.385 -14.380 -14.374 -14.350 -14.349 -14.343 -14.335
-14.333 -14.325 -10.268 -10.262 -10.261 -10.260 -10.253 -10.250
-10.248 -10.245 -10.244 -10.243 -10.239 -10.236 -10.234 -10.229
-10.229 -10.229 -10.229 -10.228 -10.227 -10.226 -10.223 -10.223
-10.221 -10.220 -10.220 -10.219 -10.218 -10.217 -10.216 -10.212
-10.211 -10.209 -10.206 -10.201 -10.201 -10.200 -10.196 -10.191
-10.185 -10.183 -10.180 -10.179 -10.179 -10.178 -10.176 -10.175
-10.174 -10.173 -10.173 -10.169  -8.045  -8.042  -7.984  -7.982
 -7.982  -7.979  -7.966  -7.964  -6.010  -6.007  -6.004  -6.003
 -6.001  -6.000  -5.948  -5.946  -5.946  -5.945  -5.944  -5.943
 -5.942  -5.941  -5.940  -5.939  -5.939  -5.936  -5.931  -5.928
 -5.927  -5.925  -5.923  -5.920  -1.057  -1.045  -0.981  -0.962
 -0.955  -0.950  -0.946  -0.931  -0.920  -0.912  -0.911  -0.906
 -0.844  -0.839  -0.834  -0.832  -0.812  -0.812  -0.808  -0.806
 -0.805  -0.800  -0.798  -0.796  -0.791  -0.786  -0.768  -0.767
 -0.749  -0.749  -0.738  -0.736  -0.722  -0.719  -0.713  -0.708
 -0.693  -0.692  -0.676  -0.674  -0.661  -0.659  -0.653  -0.642
 -0.639  -0.637  -0.624  -0.624  -0.611  -0.610  -0.601  -0.597
 -0.592  -0.587  -0.584  -0.580  -0.579  -0.575  -0.561  -0.556
 -0.550  -0.542  -0.541  -0.538  -0.524  -0.523  -0.517  -0.509
 -0.507  -0.505  -0.502  -0.502  -0.488  -0.488  -0.481  -0.478
 -0.474  -0.474  -0.471  -0.468  -0.467  -0.461  -0.451  -0.449
 -0.448  -0.446  -0.444  -0.435  -0.434  -0.433  -0.433  -0.430
 -0.429  -0.427  -0.423  -0.421  -0.419  -0.417  -0.415  -0.412
 -0.411  -0.410  -0.407  -0.404  -0.397  -0.395  -0.395  -0.394
 -0.393  -0.393  -0.390  -0.388  -0.388  -0.385  -0.383  -0.377
 -0.376  -0.375  -0.371  -0.369  -0.366  -0.363  -0.357  -0.356
 -0.351  -0.349  -0.349  -0.347  -0.347  -0.344  -0.342  -0.338
 -0.337  -0.335  -0.333  -0.331  -0.327  -0.326  -0.322  -0.318
 -0.318  -0.315  -0.312  -0.306  -0.304  -0.302  -0.301  -0.300
 -0.300  -0.293  -0.291  -0.288  -0.287  -0.282  -0.280  -0.278
 -0.275  -0.271  -0.268  -0.265  -0.261  -0.253  -0.249  -0.247
 -0.243  -0.240  -0.229  -0.229  -0.194  -0.191

          Ground-State Mulliken Net Atomic Charges

     Atom                 Charge (a.u.)
  ----------------------------------------
      1 C                     0.240085
      2 C                    -0.115293
      3 N                    -0.477579
      4 C                    -0.083033
      5 C                     0.102544
      6 C                     0.056504
      7 C                     0.000806
      8 C                     0.068402
      9 C                     0.243116
     10 N                    -0.504000
     11 N                    -0.551750
     12 C                     0.185394
     13 C                     0.248941
     14 S                     0.596098
     15 N                    -0.541799
     16 C                    -0.193866
     17 S                     0.337616
     18 C                    -0.109337
     19 C                    -0.219099
     20 S                     0.255769
     21 C                     0.162601
     22 C                     0.090679
     23 C                    -0.297235
     24 C                    -0.096850
     25 N                    -0.436843
     26 S                     0.271687
     27 C                     0.111178
     28 C                    -0.300997
     29 C                    -0.225063
     30 H                     0.094337
     31 H                     0.103851
     32 H                     0.099324
     33 H                     0.116754
     34 H                     0.124311
     35 H                     0.120501
     36 H                     0.117186
     37 H                     0.141923
     38 H                     0.086834
     39 C                    -0.177666
     40 H                     0.117731
     41 H                     0.092328
     42 H                     0.119690
     43 C                    -0.177483
     44 H                     0.093048
     45 C                    -0.179498
     46 H                     0.110445
     47 H                     0.085319
     48 H                     0.088774
     49 C                    -0.172965
     50 H                     0.092050
     51 C                    -0.313540
     52 H                     0.091893
     53 H                     0.105782
     54 H                     0.095603
     55 H                     0.101398
     56 C                     0.287008
     57 C                    -0.126686
     58 N                    -0.494476
     59 C                    -0.047793
     60 C                     0.074523
     61 C                     0.048653
     62 C                     0.041767
     63 C                     0.062117
     64 C                     0.217213
     65 N                    -0.522006
     66 N                    -0.528688
     67 C                     0.175992
     68 C                     0.279657
     69 S                     0.607888
     70 N                    -0.539793
     71 C                    -0.220747
     72 S                     0.324442
     73 C                    -0.104423
     74 C                    -0.200102
     75 S                     0.267980
     76 C                     0.124752
     77 C                     0.068682
     78 C                    -0.317441
     79 C                    -0.048447
     80 N                    -0.456386
     81 S                     0.287031
     82 C                     0.128255
     83 C                    -0.301757
     84 C                    -0.247199
     85 H                     0.084851
     86 H                     0.105978
     87 H                     0.090786
     88 H                     0.111261
     89 H                     0.125286
     90 H                     0.126339
     91 H                     0.117212
     92 H                     0.132901
     93 H                     0.117602
     94 C                    -0.179338
     95 H                     0.113932
     96 H                     0.106529
     97 H                     0.107554
     98 C                    -0.197437
     99 H                     0.090967
    100 C                    -0.161904
    101 H                     0.099245
    102 H                     0.088409
    103 H                     0.089261
    104 C                    -0.177916
    105 H                     0.093034
    106 C                    -0.321486
    107 H                     0.092042
    108 H                     0.106005
    109 H                     0.103787
    110 H                     0.098482
  ----------------------------------------
  Sum of atomic charges =     0.000000

                    Cartesian Multipole Moments
 -----------------------------------------------------------------
    Charge (ESU x 10^10)
                 0.0000
    Dipole Moment (Debye)
         X      -0.4340      Y      -0.6662      Z      -1.5174
       Tot       1.7131
    Quadrupole Moments (Debye-Ang)
        XX    -452.1376     XY      -7.2138     YY    -402.6271
        XZ      25.2624     YZ       6.5491     ZZ    -446.3264

 Total job time:  92.72s(wall), 1000.33s(cpu)
        *  Thank you very much for using Q-Chem.  Have a nice day.  *
