 Q-Chem 4.4, Q-Chem, Inc., Pleasanton, CA (2016)
 Q-Chem 4.4.2 for Intel X86 Linux

User input:
--------------------------------------------------------------
$comment
SP
$end

$rem
MEM_STATIC 5000
MEM_TOTAL 20000
JOBTYPE SP
EXCHANGE B3LYP
BASIS 6-31g(d,p)
$end

$molecule
0 1
C          -3.703000    -19.840000      2.820000
C          -3.187000    -20.189000      1.553000
N          -3.555000    -18.578000      3.289000
C          -2.678000    -19.127000      0.765000
C          -3.108000    -17.582000      2.515000
C          -2.629000    -17.763000      1.211000
C          -1.922000    -16.644000      0.475000
C          -0.758000    -16.907000     -0.327000
C          -2.256000    -15.274000      0.599000
N           0.028000    -15.939000     -0.797000
N          -3.362000    -14.797000      1.268000
C          -1.398000    -14.300000      0.127000
C          -0.210000    -14.642000     -0.648000
S          -3.300000    -13.161000      1.156000
N          -1.845000    -13.029000      0.408000
C           0.708000    -13.546000     -1.144000
S           0.422000    -11.818000     -1.008000
C           1.961000    -13.809000     -1.630000
C           2.122000    -11.474000     -1.379000
S           2.875000    -15.283000     -1.616000
C           2.692000    -12.648000     -1.805000
C           2.772000    -10.223000     -1.092000
C           4.275000    -14.345000     -2.118000
C           4.096000    -12.992000     -2.080000
N           3.996000     -9.932000     -1.635000
S           2.056000     -9.064000     -0.017000
C           4.397000     -8.610000     -1.227000
C           3.377000     -7.939000     -0.482000
C          -4.248000    -20.787000      3.827000
H          -3.243000    -21.220000      1.218000
H          -2.143000    -19.412000     -0.136000
H          -3.063000    -16.613000      3.008000
H          -0.450000    -17.923000     -0.571000
H           5.185000    -14.924000     -2.208000
H           4.884000    -12.256000     -2.190000
H           5.306000     -8.151000     -1.592000
H           3.309000     -6.896000     -0.199000
H          -3.420000    -21.186000      4.426000
C          -5.125000    -21.968000      3.329000
H          -4.865000    -20.224000      4.540000
H          -4.627000    -22.690000      2.670000
H          -5.901000    -21.432000      2.768000
C          -5.886000    -22.623000      4.439000
H          -5.198000    -23.187000      5.081000
C          -7.039000    -23.604000      3.992000
H          -6.338000    -21.898000      5.127000
H          -6.736000    -24.252000      3.160000
H          -7.789000    -23.054000      3.411000
C          -7.674000    -24.391000      5.099000
H          -6.880000    -24.696000      5.791000
C          -8.486000    -25.696000      4.626000
H          -8.348000    -23.725000      5.653000
H          -9.233000    -25.345000      3.904000
H          -8.962000    -26.192000      5.481000
H          -7.854000    -26.385000      4.052000
C           3.208000    -19.081000      0.334000
C           2.226000    -19.123000      1.338000
N           3.051000    -19.811000     -0.790000
C           1.200000    -20.027000      1.257000
C           1.973000    -20.557000     -0.907000
C           1.002000    -20.750000      0.076000
C          -0.186000    -21.641000     -0.134000
C          -0.607000    -22.058000     -1.419000
C          -0.829000    -22.314000      0.932000
N          -1.659000    -22.837000     -1.641000
N          -0.373000    -22.238000      2.164000
C          -1.825000    -23.191000      0.728000
C          -2.322000    -23.406000     -0.577000
S          -1.184000    -23.297000      2.986000
N          -2.201000    -23.889000      1.875000
C          -3.524000    -24.192000     -0.836000
S          -4.864000    -24.604000      0.269000
C          -3.862000    -24.792000     -2.074000
C          -5.720000    -25.624000     -0.807000
S          -3.051000    -24.729000     -3.581000
C          -4.988000    -25.616000     -2.010000
C          -6.791000    -26.440000     -0.434000
C          -4.266000    -25.904000     -4.234000
C          -5.243000    -26.246000     -3.319000
N          -7.299000    -27.317000     -1.316000
S          -7.790000    -26.230000      1.026000
C          -8.471000    -27.876000     -0.872000
C          -8.894000    -27.391000      0.340000
C           4.426000    -18.294000      0.548000
H           2.303000    -18.430000      2.170000
H           0.387000    -19.876000      1.961000
H           1.893000    -21.058000     -1.870000
H          -0.048000    -21.760000     -2.305000
H          -4.186000    -26.123000     -5.291000
H          -6.017000    -26.964000     -3.566000
H          -8.999000    -28.664000     -1.393000
H          -9.777000    -27.684000      0.893000
H           4.026000    -17.273000      0.561000
C           5.641000    -18.423000     -0.438000
H           4.857000    -18.426000      1.548000
H           5.253000    -18.144000     -1.425000
H           5.856000    -19.491000     -0.571000
C           6.950000    -17.692000     -0.101000
H           7.620000    -18.303000      0.516000
C           6.906000    -16.228000      0.485000
H           7.460000    -17.533000     -1.059000
H           6.231000    -16.140000      1.346000
H           6.482000    -15.605000     -0.312000
C           8.245000    -15.731000      0.897000
H           8.542000    -16.204000      1.841000
C           8.287000    -14.195000      1.045000
H           9.054000    -16.056000      0.232000
H           7.820000    -13.781000      1.947000
H           7.925000    -13.707000      0.132000
H           9.357000    -13.952000      1.069000
$end

--------------------------------------------------------------

             Standard Nuclear Orientation (Angstroms)
    I     Atom           X                Y                Z
 ----------------------------------------------------------------
    1      C       2.3373977270    -2.3132383177     1.8191163948
    2      C       2.2245813734    -1.3459471146     0.7968805127
    3      N       1.2645758578    -3.0646964330     2.1638959444
    4      C       1.0092417087    -1.3370836573     0.0683615091
    5      C       0.1398117754    -3.0692661066     1.4387850032
    6      C      -0.0902898746    -2.2160233813     0.3517486274
    7      C      -1.4631057073    -2.1041953467    -0.2779951144
    8      C      -1.9877436840    -0.8287790308    -0.6846119051
    9      C      -2.3687903357    -3.1840908372    -0.4098779540
   10      N      -3.2642862105    -0.6480058971    -1.0214802062
   11      N      -2.0611795875    -4.4993105179    -0.1380345815
   12      C      -3.6922414867    -2.9512482219    -0.7290728278
   13      C      -4.1648480199    -1.6199896842    -1.0942122131
   14      S      -3.4304297437    -5.3607538063    -0.4136311536
   15      N      -4.4402117220    -4.1065592555    -0.7318910865
   16      C      -5.6238080570    -1.4045323162    -1.4332840828
   17      S      -6.8464172851    -2.6574021897    -1.5809991990
   18      C      -6.1765107412    -0.1541660143    -1.5137691992
   19      C      -8.1421347891    -1.4492050694    -1.4952503305
   20      S      -5.5137763134     1.3875285485    -1.0753299751
   21      C      -7.5551777962    -0.2132274001    -1.6070210312
   22      C      -9.5118511273    -1.7577761635    -1.1813537988
   23      C      -7.1257421963     2.0634549288    -1.2664778782
   24      C      -8.1143198745     1.1369052205    -1.4347449642
   25      N     -10.5005619857    -0.8316558598    -1.3874072420
   26      S      -9.9529650733    -3.2874271275    -0.4905944957
   27      C     -11.7737812667    -1.4066717076    -1.0363824035
   28      C     -11.6676033731    -2.7902991449    -0.6900193430
   29      C       3.4970100622    -2.4801858000     2.7330697691
   30      H       3.0668729661    -0.6966778068     0.5793575513
   31      H       0.8610268048    -0.4997983639    -0.6070914350
   32      H      -0.6340094924    -3.7377183089     1.8108163176
   33      H      -1.3625926307     0.0628132657    -0.7147007307
   34      H      -7.1932202805     3.1175214491    -1.0301910208
   35      H      -9.1771308845     1.3468466437    -1.4016186034
   36      H     -12.7018529829    -0.8699543221    -1.1806194921
   37      H     -12.4513557139    -3.5257892054    -0.5583051094
   38      H       3.3832319489    -1.7949717022     3.5822589006
   39      C       4.9263007898    -2.3230360739     2.1462768076
   40      H       3.4537155382    -3.4847520662     3.1746569075
   41      H       5.1716524788    -1.3336279795     1.7407608751
   42      H       4.9017347747    -3.0586115156     1.3323245483
   43      C       5.9828985258    -2.8531642687     3.0643243670
   44      H       6.0874309343    -2.1924415524     3.9338773945
   45      C       7.4146840890    -3.0367218506     2.4256728854
   46      H       5.7105257732    -3.8177326811     3.5100752633
   47      H       7.7006023583    -2.1878002851     1.7920168912
   48      H       7.3621491878    -3.7546349736     1.5983870629
   49      C       8.5046194065    -3.3938514086     3.3913552775
   50      H       8.3414936775    -2.8160430547     4.3088804830
   51      C       9.9983707139    -3.1230864609     2.8607976702
   52      H       8.3991516419    -4.4544234105     3.6536748904
   53      H      10.0946436854    -3.6826876671     1.9226761402
   54      H      10.7412157415    -3.4522744643     3.5979771079
   55      H      10.1454026793    -2.0754375172     2.5702218762
   56      C      -2.4856885230     3.2541428006     1.3089159365
   57      C      -1.8048207990     2.2337289251     1.9939551069
   58      N      -1.8876025213     3.8851874825     0.2769272040
   59      C      -0.4818104759     1.9950847350     1.7309995299
   60      C      -0.6649757035     3.5265119800    -0.0529584552
   61      C       0.1301868177     2.6075851390     0.6323655746
   62      C       1.5272585993     2.2758017775     0.1994276599
   63      C       2.0134348222     2.5726138329    -1.0959063835
   64      C       2.5264586948     1.8590097385     1.1108098879
   65      N       3.2397686562     2.2836580824    -1.5147606563
   66      N       2.2920612775     1.8007750381     2.4043332045
   67      C       3.8009113345     1.6638956955     0.7360273120
   68      C       4.1662428870     1.7923314806    -0.6227574781
   69      S       3.6832715764     1.5497622337     3.0799162684
   70      N       4.6710587038     1.4413832048     1.8025734887
   71      C       5.4827581888     1.4038415136    -1.1182814490
   72      S       6.6791550825     0.2935440418    -0.3956176289
   73      C       6.0723475417     1.8554917696    -2.3246331561
   74      C       7.9224527417     0.5440698088    -1.5455566581
   75      S       5.4362172978     2.8813117532    -3.5394461763
   76      C       7.3996597251     1.4518469633    -2.4866863514
   77      C       9.2344826202     0.0868878322    -1.3986272931
   78      C       7.0457074592     2.8227147297    -4.3697273389
   79      C       7.9599091017     2.0049786550    -3.7339120598
   80      N      10.1740363593     0.4635522454    -2.2820749096
   81      S       9.7554257986    -1.2256883170    -0.3125964200
   82      C      11.3420667403    -0.2395078608    -2.1251911431
   83      C      11.2865057359    -1.1979453150    -1.1446766755
   84      C      -3.8157036938     3.6675022325     1.7659527244
   85      H      -2.3483164916     1.6488386858     2.7294262758
   86      H      -0.0781007452     1.0807716498     2.1557771606
   87      H      -0.2850439059     4.0371319164    -0.9359585174
   88      H       1.3802922830     3.0882188759    -1.8167135455
   89      H       7.0971189422     3.3207419080    -5.3293813334
   90      H       8.9731904048     1.9003742774    -4.1052985497
   91      H      12.2482983866    -0.0355250911    -2.6804426472
   92      H      12.0791443505    -1.8656787036    -0.8329024808
   93      H      -4.4087103897     2.7707890983     1.5494842193
   94      C      -4.4923444306     4.9588252492     1.1831112538
   95      H      -3.8845441627     3.7781652260     2.8550806745
   96      H      -4.5665853882     4.7925320595     0.1017284098
   97      H      -3.7626304593     5.7767396005     1.2385335771
   98      C      -5.8207341477     5.4376681511     1.7893300548
   99      H      -5.6695454960     6.1190648151     2.6353504907
  100      C      -6.9366080263     4.3890273519     2.1685476196
  101      H      -6.3182119163     6.0170762487     1.0019628430
  102      H      -6.5504028488     3.5700856658     2.7889265970
  103      H      -7.2541878681     3.9413666578     1.2188861289
  104      C      -8.0873415986     5.0033897722     2.8813204180
  105      H      -7.8062801207     5.2245684200     3.9182188949
  106      C      -9.3444541232     4.1077652047     2.8592130799
  107      H      -8.3448976492     6.0033343381     2.5123939404
  108      H      -9.3401947041     3.2478151986     3.5400631694
  109      H      -9.5975078487     3.8192394636     1.8318505787
  110      H     -10.1621017926     4.7772247802     3.1555256944
 ----------------------------------------------------------------

   10   -5663.5192819897      3.88E-06 Convergence criterion met
 Total energy in the final basis set = -5663.5192819897

                    Orbital Energies (a.u.)
 --------------------------------------------------------------

 Alpha MOs
 -- Occupied --
-88.994 -88.991 -88.930 -88.929 -88.927 -88.925 -88.908 -88.907
-14.390 -14.384 -14.380 -14.379 -14.353 -14.350 -14.349 -14.347
-14.326 -14.323 -10.273 -10.273 -10.269 -10.267 -10.255 -10.254
-10.253 -10.250 -10.248 -10.245 -10.244 -10.243 -10.242 -10.241
-10.240 -10.239 -10.234 -10.232 -10.232 -10.232 -10.231 -10.229
-10.226 -10.225 -10.224 -10.223 -10.223 -10.220 -10.220 -10.216
-10.216 -10.213 -10.209 -10.204 -10.203 -10.202 -10.196 -10.192
-10.184 -10.184 -10.182 -10.181 -10.180 -10.180 -10.180 -10.179
-10.176 -10.176 -10.175 -10.172  -8.051  -8.046  -7.990  -7.990
 -7.987  -7.984  -7.968  -7.967  -6.015  -6.011  -6.010  -6.009
 -6.005  -6.003  -5.954  -5.954  -5.952  -5.951  -5.950  -5.948
 -5.948  -5.947  -5.947  -5.945  -5.944  -5.941  -5.933  -5.932
 -5.929  -5.928  -5.924  -5.923  -1.063  -1.027  -0.967  -0.961
 -0.960  -0.947  -0.944  -0.935  -0.916  -0.915  -0.911  -0.889
 -0.847  -0.845  -0.838  -0.829  -0.817  -0.810  -0.806  -0.805
 -0.803  -0.802  -0.796  -0.792  -0.791  -0.784  -0.772  -0.765
 -0.751  -0.749  -0.740  -0.738  -0.727  -0.723  -0.715  -0.708
 -0.695  -0.692  -0.680  -0.675  -0.663  -0.658  -0.657  -0.641
 -0.641  -0.632  -0.626  -0.624  -0.613  -0.610  -0.600  -0.593
 -0.591  -0.590  -0.585  -0.582  -0.581  -0.578  -0.576  -0.562
 -0.554  -0.550  -0.542  -0.539  -0.527  -0.518  -0.514  -0.509
 -0.507  -0.505  -0.504  -0.494  -0.491  -0.488  -0.482  -0.476
 -0.475  -0.473  -0.472  -0.466  -0.464  -0.462  -0.453  -0.451
 -0.450  -0.446  -0.440  -0.437  -0.435  -0.434  -0.434  -0.431
 -0.431  -0.427  -0.425  -0.424  -0.419  -0.418  -0.416  -0.412
 -0.411  -0.410  -0.406  -0.405  -0.401  -0.399  -0.398  -0.397
 -0.396  -0.394  -0.392  -0.390  -0.390  -0.389  -0.386  -0.382
 -0.380  -0.379  -0.378  -0.374  -0.369  -0.364  -0.359  -0.358
 -0.355  -0.353  -0.351  -0.350  -0.349  -0.348  -0.344  -0.343
 -0.340  -0.340  -0.335  -0.333  -0.330  -0.326  -0.323  -0.321
 -0.319  -0.309  -0.308  -0.307  -0.306  -0.305  -0.303  -0.301
 -0.300  -0.296  -0.292  -0.289  -0.284  -0.283  -0.282  -0.280
 -0.275  -0.270  -0.268  -0.267  -0.254  -0.250  -0.249  -0.248
 -0.245  -0.244  -0.232  -0.231  -0.195  -0.194

          Ground-State Mulliken Net Atomic Charges

     Atom                 Charge (a.u.)
  ----------------------------------------
      1 C                     0.268339
      2 C                    -0.111436
      3 N                    -0.489797
      4 C                    -0.108186
      5 C                     0.092404
      6 C                     0.048373
      7 C                     0.007134
      8 C                     0.065425
      9 C                     0.231986
     10 N                    -0.531897
     11 N                    -0.559971
     12 C                     0.183935
     13 C                     0.340240
     14 S                     0.613504
     15 N                    -0.569374
     16 C                    -0.218011
     17 S                     0.324126
     18 C                    -0.103444
     19 C                    -0.218377
     20 S                     0.294125
     21 C                     0.124382
     22 C                     0.061429
     23 C                    -0.309458
     24 C                    -0.054230
     25 N                    -0.446368
     26 S                     0.273571
     27 C                     0.112246
     28 C                    -0.307564
     29 C                    -0.236989
     30 H                     0.093727
     31 H                     0.098915
     32 H                     0.113569
     33 H                     0.122233
     34 H                     0.131581
     35 H                     0.129752
     36 H                     0.125190
     37 H                     0.134799
     38 H                     0.114242
     39 C                    -0.203193
     40 H                     0.124000
     41 H                     0.119544
     42 H                     0.102363
     43 C                    -0.177560
     44 H                     0.087194
     45 C                    -0.189561
     46 H                     0.094527
     47 H                     0.101363
     48 H                     0.089216
     49 C                    -0.176744
     50 H                     0.094343
     51 C                    -0.335200
     52 H                     0.096531
     53 H                     0.103292
     54 H                     0.103589
     55 H                     0.116154
     56 C                     0.294478
     57 C                    -0.123260
     58 N                    -0.493055
     59 C                    -0.057520
     60 C                     0.076179
     61 C                     0.041159
     62 C                     0.036727
     63 C                     0.059012
     64 C                     0.233719
     65 N                    -0.517160
     66 N                    -0.525880
     67 C                     0.149957
     68 C                     0.278547
     69 S                     0.613007
     70 N                    -0.543305
     71 C                    -0.224303
     72 S                     0.333226
     73 C                    -0.105483
     74 C                    -0.215756
     75 S                     0.277570
     76 C                     0.118599
     77 C                     0.053294
     78 C                    -0.311278
     79 C                    -0.044013
     80 N                    -0.446586
     81 S                     0.283567
     82 C                     0.135735
     83 C                    -0.317541
     84 C                    -0.255527
     85 H                     0.089983
     86 H                     0.115975
     87 H                     0.092242
     88 H                     0.115626
     89 H                     0.129803
     90 H                     0.129814
     91 H                     0.120285
     92 H                     0.135596
     93 H                     0.131950
     94 C                    -0.183838
     95 H                     0.113162
     96 H                     0.106283
     97 H                     0.108020
     98 C                    -0.197546
     99 H                     0.092236
    100 C                    -0.165552
    101 H                     0.096690
    102 H                     0.092828
    103 H                     0.087258
    104 C                    -0.178664
    105 H                     0.093699
    106 C                    -0.320945
    107 H                     0.091116
    108 H                     0.107863
    109 H                     0.104421
    110 H                     0.097605
  ----------------------------------------
  Sum of atomic charges =     0.000000

                    Cartesian Multipole Moments
 -----------------------------------------------------------------
    Charge (ESU x 10^10)
                 0.0000
    Dipole Moment (Debye)
         X       0.5364      Y      -1.4081      Z       1.8290
       Tot       2.3698
    Quadrupole Moments (Debye-Ang)
        XX    -366.6891     XY       1.1881     YY    -440.6445
        XZ     -12.9372     YZ       3.3256     ZZ    -445.1029

 Total job time:  104.54s(wall), 1159.57s(cpu)
        *  Thank you very much for using Q-Chem.  Have a nice day.  *
