 Q-Chem 4.4, Q-Chem, Inc., Pleasanton, CA (2016)
 Q-Chem 4.4.2 for Intel X86 Linux

User input:
--------------------------------------------------------------
$comment
SP
$end

$rem
MEM_STATIC 5000
MEM_TOTAL 20000
JOBTYPE SP
EXCHANGE B3LYP
BASIS 6-31g(d,p)
$end

$molecule
0 1
C         -12.677000    -25.925000      4.383000
C         -12.099000    -26.904000      3.495000
N         -13.477000    -24.999000      3.917000
C         -12.326000    -26.800000      2.136000
C         -13.625000    -24.810000      2.595000
C         -13.009000    -25.676000      1.676000
C         -13.021000    -25.310000      0.215000
C         -13.243000    -26.288000     -0.744000
C         -12.749000    -23.980000     -0.272000
N         -13.339000    -26.041000     -2.072000
N         -12.394000    -22.930000      0.478000
C         -12.803000    -23.633000     -1.638000
C         -13.148000    -24.724000     -2.553000
S         -12.189000    -21.692000     -0.540000
N         -12.725000    -22.333000     -1.962000
C         -13.219000    -24.605000     -4.012000
S         -14.343000    -25.379000     -5.135000
C         -12.241000    -24.080000     -4.745000
C         -13.602000    -24.675000     -6.579000
S         -10.770000    -23.401000     -4.167000
C         -12.429000    -24.052000     -6.130000
C         -13.991000    -24.982000     -7.972000
C         -10.423000    -22.938000     -5.939000
C         -11.352000    -23.425000     -6.831000
N         -15.129000    -25.573000     -8.038000
S         -13.166000    -24.681000     -9.445000
C         -15.343000    -25.989000     -9.342000
C         -14.388000    -25.633000    -10.229000
C         -12.650000    -26.085000      5.875000
H         -11.461000    -27.662000      3.939000
H         -11.824000    -27.535000      1.514000
H         -14.166000    -23.960000      2.183000
H         -13.477000    -27.318000     -0.479000
H          -9.522000    -22.425000     -6.248000
H         -11.327000    -23.232000     -7.897000
H         -16.246000    -26.527000     -9.602000
H         -14.451000    -25.653000    -11.309000
H         -13.626000    -26.379000      6.280000
C         -12.146000    -24.818000      6.609000
H         -11.975000    -26.937000      6.024000
H         -12.754000    -23.925000      6.415000
H         -11.163000    -24.542000      6.209000
C         -12.015000    -24.955000      8.143000
H         -12.994000    -24.978000      8.638000
C         -11.429000    -23.706000      8.716000
H         -11.538000    -25.925000      8.332000
H         -12.148000    -22.881000      8.635000
H         -10.626000    -23.338000      8.065000
C         -10.943000    -23.925000     10.104000
H         -10.313000    -24.801000     10.301000
C         -12.097000    -24.077000     11.097000
H         -10.332000    -23.058000     10.380000
H         -12.693000    -24.987000     10.949000
H         -12.817000    -23.251000     11.039000
H         -11.803000    -23.959000     12.147000
C           3.208000    -19.081000      0.334000
C           2.226000    -19.123000      1.338000
N           3.051000    -19.811000     -0.790000
C           1.200000    -20.027000      1.257000
C           1.973000    -20.557000     -0.907000
C           1.002000    -20.750000      0.076000
C          -0.186000    -21.641000     -0.134000
C          -0.607000    -22.058000     -1.419000
C          -0.829000    -22.314000      0.932000
N          -1.659000    -22.837000     -1.641000
N          -0.373000    -22.238000      2.164000
C          -1.825000    -23.191000      0.728000
C          -2.322000    -23.406000     -0.577000
S          -1.184000    -23.297000      2.986000
N          -2.201000    -23.889000      1.875000
C          -3.524000    -24.192000     -0.836000
S          -4.864000    -24.604000      0.269000
C          -3.862000    -24.792000     -2.074000
C          -5.720000    -25.624000     -0.807000
S          -3.051000    -24.729000     -3.581000
C          -4.988000    -25.616000     -2.010000
C          -6.791000    -26.440000     -0.434000
C          -4.266000    -25.904000     -4.234000
C          -5.243000    -26.246000     -3.319000
N          -7.299000    -27.317000     -1.316000
S          -7.790000    -26.230000      1.026000
C          -8.471000    -27.876000     -0.872000
C          -8.894000    -27.391000      0.340000
C           4.426000    -18.294000      0.548000
H           2.303000    -18.430000      2.170000
H           0.387000    -19.876000      1.961000
H           1.893000    -21.058000     -1.870000
H          -0.048000    -21.760000     -2.305000
H          -4.186000    -26.123000     -5.291000
H          -6.017000    -26.964000     -3.566000
H          -8.999000    -28.664000     -1.393000
H          -9.777000    -27.684000      0.893000
H           4.026000    -17.273000      0.561000
C           5.641000    -18.423000     -0.438000
H           4.857000    -18.426000      1.548000
H           5.253000    -18.144000     -1.425000
H           5.856000    -19.491000     -0.571000
C           6.950000    -17.692000     -0.101000
H           7.620000    -18.303000      0.516000
C           6.906000    -16.228000      0.485000
H           7.460000    -17.533000     -1.059000
H           6.231000    -16.140000      1.346000
H           6.482000    -15.605000     -0.312000
C           8.245000    -15.731000      0.897000
H           8.542000    -16.204000      1.841000
C           8.287000    -14.195000      1.045000
H           9.054000    -16.056000      0.232000
H           7.820000    -13.781000      1.947000
H           7.925000    -13.707000      0.132000
H           9.357000    -13.952000      1.069000
$end

--------------------------------------------------------------

             Standard Nuclear Orientation (Angstroms)
    I     Atom           X                Y                Z
 ----------------------------------------------------------------
    1      C      -5.3264566049     5.9464335652     0.2607150910
    2      C      -5.2441122156     5.0565831895     1.3931702603
    3      N      -5.8493798572     5.5357916908    -0.8673613795
    4      C      -5.6396161243     3.7406553691     1.2477858406
    5      C      -6.1378874008     4.2389027093    -1.0677394395
    6      C      -5.9886593589     3.3048951076    -0.0288295341
    7      C      -6.1154852860     1.8385396295    -0.3487323253
    8      C      -6.7907153869     0.9940102031     0.5209132109
    9      C      -5.5113333146     1.2235698998    -1.5049613801
   10      N      -7.0129850227    -0.3204515937     0.2830153466
   11      N      -4.7222066737     1.8374852325    -2.3945748405
   12      C      -5.6682898647    -0.1416058071    -1.8226734046
   13      C      -6.4876475175    -0.9168795275    -0.8877216971
   14      S      -4.2950401991     0.7146946282    -3.4752519717
   15      N      -5.2287889190    -0.5655588329    -3.0177310394
   16      C      -6.7487237625    -2.3550897452    -0.9938987377
   17      S      -8.2262260605    -3.2458728155    -0.6103971330
   18      C      -5.7841845539    -3.2572038523    -1.1528083123
   19      C      -7.5388384202    -4.8282926732    -1.0019052759
   20      S      -4.1005300105    -2.9475978111    -1.3213831559
   21      C      -6.1719136341    -4.5989886107    -1.2130812121
   22      C      -8.2232566448    -6.1250161692    -0.8119082531
   23      C      -3.9108089401    -4.7796417063    -1.6084076871
   24      C      -5.0770407316    -5.4911004125    -1.4363497964
   25      N      -9.4860208382    -5.9836596188    -0.6271762376
   26      S      -7.5918444889    -7.7193744601    -0.7947230893
   27      C     -10.0279981461    -7.2100117311    -0.2784799596
   28      C      -9.1639320105    -8.2487153282    -0.2822944897
   29      C      -5.1143660774     7.4264942600     0.3904492335
   30      H      -4.8218001127     5.4568852500     2.3097698174
   31      H      -5.5071452193     3.1068600110     2.1194898634
   32      H      -6.4349512864     3.8496064273    -2.0399155824
   33      H      -7.2983056147     1.3629494330     1.4109227644
   34      H      -2.9542391899    -5.2513201625    -1.7899145660
   35      H      -5.1619137580    -6.5605870171    -1.5887472105
   36      H     -11.0853999694    -7.2978288207    -0.0625111126
   37      H      -9.4017294881    -9.3040925082    -0.2622853020
   38      H      -6.0550874011     7.9880899166     0.3385771835
   39      C      -4.1188963496     7.9876016773    -0.6546629553
   40      H      -4.7349222004     7.5370267213     1.4139407670
   41      H      -4.4298085757     7.8200557767    -1.6938987124
   42      H      -3.1766381469     7.4312170758    -0.5835949968
   43      C      -3.7956391951     9.4924594549    -0.5132632337
   44      H      -4.6375418522    10.1239417457    -0.8237870370
   45      C      -2.7551677664     9.8841203075    -1.5111344592
   46      H      -3.6325607758     9.6794821378     0.5556511433
   47      H      -3.1734981319     9.8489806360    -2.5249943651
   48      H      -1.9913741450     9.0994162019    -1.5810828020
   49      C      -2.1503536084    11.1995078731    -1.1725249695
   50      H      -1.8129593903    11.3656241299    -0.1421582722
   51      C      -3.1175176113    12.3569674739    -1.4289427229
   52      H      -1.2569782568    11.3217437330    -1.7955216594
   53      H      -3.9902846946    12.3619691711    -0.7630053374
   54      H      -3.5327841900    12.3446003692    -2.4445414248
   55      H      -2.6373997610    13.3423905425    -1.4648345837
   56      C      11.0534379627    -0.8316301517    -0.8903141019
   57      C      10.2839502723     0.3039978555    -1.1941919124
   58      N      10.4923341898    -1.8661142103    -0.2300639308
   59      C       9.0225487753     0.4367586146    -0.6768005285
   60      C       9.2275162980    -1.7726721757     0.1217787710
   61      C       8.4163298260    -0.6485640232    -0.0354992285
   62      C       6.9873241209    -0.6206665575     0.4189118478
   63      C       6.2548905937    -1.7983185602     0.7000379561
   64      C       6.3409693375     0.5723279746     0.8210605022
   65      N       4.9869351308    -1.8098994199     1.0937178102
   66      N       6.9878246449     1.7169953252     0.8744540212
   67      C       5.0966014729     0.5774346602     1.3253258483
   68      C       4.3550755987    -0.6234261580     1.3911412970
   69      S       6.0214491964     2.7210148732     1.5906587683
   70      N       4.7043031778     1.8136220944     1.8373138122
   71      C       2.9389762735    -0.6493738105     1.7428093512
   72      S       1.7324384601     0.6640543046     1.6683641270
   73      C       2.2325979136    -1.7795379659     2.2230661517
   74      C       0.4333510799    -0.2014390079     2.3713614988
   75      S       2.7688981904    -3.3884192474     2.4610200026
   76      C       0.9267991401    -1.4949555946     2.6290839307
   77      C      -0.7691732711     0.3795990139     2.7816735781
   78      C       1.1524890238    -3.7735405009     3.1836277983
   79      C       0.2768734489    -2.7050278999     3.1664177300
   80      N      -1.6664792120    -0.3548763828     3.4602787210
   81      S      -1.4005417398     1.9497140054     2.2250644061
   82      C      -2.8691801320     0.2924415868     3.5932860269
   83      C      -2.9141330530     1.5150020276     2.9716565526
   84      C      12.4775998827    -0.8524757772    -1.2367492120
   85      H      10.7118308553     1.0644855579    -1.8399307614
   86      H       8.4249630463     1.2381154680    -1.1011877220
   87      H       8.8377109161    -2.6757409109     0.5879210495
   88      H       6.7309026932    -2.7747339124     0.6206242221
   89      H       0.9877526779    -4.8126327085     3.4381063245
   90      H      -0.7160134662    -2.7857669512     3.5945132561
   91      H      -3.6988173304    -0.0892221319     4.1739786520
   92      H      -3.7440975858     2.2091710801     2.9464533604
   93      H      12.4350711260    -0.8548948170    -2.3325573399
   94      C      13.4123503084    -1.9917448643    -0.6951131822
   95      H      12.9970979890     0.0816968586    -0.9905212604
   96      H      12.9823772958    -2.9298011940    -1.0662297823
   97      H      13.2479349827    -2.0776981314     0.3866065766
   98      C      14.9230591474    -1.9003276206    -0.9612197233
   99      H      15.4501969393    -1.3444105365    -0.1763681807
  100      C      15.4469089740    -1.4202758427    -2.3696797510
  101      H      15.2970949493    -2.9307948416    -0.9240777615
  102      H      14.9829094110    -0.4793832478    -2.6923491337
  103      H      15.1244373346    -2.1902062798    -3.0812506638
  104      C      16.9222705321    -1.2424411995    -2.4065187567
  105      H      17.1980020304    -0.3198219686    -1.8813331745
  106      C      17.4795661105    -1.2122301342    -3.8457800012
  107      H      17.4663428425    -1.9922922180    -1.8199697212
  108      H      17.3211637526    -0.2841966384    -4.4085868274
  109      H      17.1529592891    -2.0959447409    -4.4071475084
  110      H      18.5601378341    -1.3603484056    -3.7235068325
 ----------------------------------------------------------------

    9   -5663.5035905487      7.69E-06 Convergence criterion met
 Total energy in the final basis set = -5663.5035905487

                    Orbital Energies (a.u.)
 --------------------------------------------------------------

 Alpha MOs
 -- Occupied --
-88.990 -88.989 -88.928 -88.928 -88.924 -88.915 -88.908 -88.906
-14.391 -14.387 -14.387 -14.375 -14.353 -14.350 -14.345 -14.337
-14.328 -14.326 -10.272 -10.269 -10.267 -10.263 -10.263 -10.262
-10.249 -10.247 -10.246 -10.242 -10.238 -10.238 -10.237 -10.233
-10.232 -10.232 -10.231 -10.230 -10.230 -10.229 -10.229 -10.229
-10.227 -10.226 -10.222 -10.222 -10.221 -10.219 -10.219 -10.218
-10.214 -10.212 -10.207 -10.206 -10.206 -10.202 -10.200 -10.192
-10.188 -10.186 -10.180 -10.179 -10.178 -10.176 -10.175 -10.175
-10.173 -10.173 -10.172 -10.169  -8.047  -8.045  -7.991  -7.988
 -7.984  -7.974  -7.968  -7.966  -6.012  -6.010  -6.006  -6.005
 -6.005  -6.003  -5.955  -5.952  -5.951  -5.949  -5.949  -5.947
 -5.945  -5.945  -5.941  -5.938  -5.935  -5.932  -5.931  -5.930
 -5.929  -5.927  -5.924  -5.922  -1.059  -1.046  -0.982  -0.965
 -0.957  -0.950  -0.946  -0.941  -0.917  -0.913  -0.909  -0.908
 -0.844  -0.838  -0.835  -0.833  -0.814  -0.814  -0.814  -0.809
 -0.805  -0.804  -0.801  -0.800  -0.791  -0.790  -0.770  -0.770
 -0.752  -0.750  -0.745  -0.738  -0.720  -0.715  -0.713  -0.711
 -0.697  -0.694  -0.677  -0.674  -0.662  -0.658  -0.655  -0.646
 -0.639  -0.635  -0.631  -0.625  -0.614  -0.612  -0.602  -0.598
 -0.592  -0.590  -0.585  -0.584  -0.579  -0.577  -0.569  -0.561
 -0.551  -0.544  -0.542  -0.539  -0.525  -0.524  -0.520  -0.519
 -0.511  -0.507  -0.506  -0.503  -0.489  -0.489  -0.482  -0.478
 -0.474  -0.473  -0.472  -0.471  -0.464  -0.462  -0.452  -0.450
 -0.449  -0.447  -0.442  -0.437  -0.437  -0.435  -0.434  -0.432
 -0.431  -0.430  -0.425  -0.422  -0.418  -0.418  -0.416  -0.415
 -0.413  -0.412  -0.410  -0.409  -0.403  -0.399  -0.397  -0.395
 -0.395  -0.393  -0.392  -0.391  -0.389  -0.389  -0.384  -0.384
 -0.379  -0.378  -0.376  -0.376  -0.367  -0.363  -0.361  -0.359
 -0.357  -0.352  -0.351  -0.349  -0.347  -0.345  -0.343  -0.341
 -0.339  -0.335  -0.333  -0.333  -0.327  -0.327  -0.326  -0.322
 -0.320  -0.317  -0.309  -0.307  -0.305  -0.303  -0.302  -0.301
 -0.300  -0.295  -0.293  -0.291  -0.290  -0.287  -0.283  -0.281
 -0.275  -0.272  -0.270  -0.268  -0.258  -0.252  -0.249  -0.245
 -0.242  -0.237  -0.233  -0.230  -0.199  -0.192

          Ground-State Mulliken Net Atomic Charges

     Atom                 Charge (a.u.)
  ----------------------------------------
      1 C                     0.284651
      2 C                    -0.135127
      3 N                    -0.480200
      4 C                    -0.057626
      5 C                     0.100999
      6 C                     0.018505
      7 C                     0.042765
      8 C                     0.054071
      9 C                     0.222113
     10 N                    -0.479900
     11 N                    -0.533021
     12 C                     0.197556
     13 C                     0.184632
     14 S                     0.606133
     15 N                    -0.517105
     16 C                    -0.189460
     17 S                     0.331944
     18 C                    -0.098676
     19 C                    -0.231441
     20 S                     0.238980
     21 C                     0.136325
     22 C                     0.079902
     23 C                    -0.295224
     24 C                    -0.067988
     25 N                    -0.421305
     26 S                     0.271537
     27 C                     0.115535
     28 C                    -0.309951
     29 C                    -0.216078
     30 H                     0.089784
     31 H                     0.093703
     32 H                     0.115279
     33 H                     0.114695
     34 H                     0.123514
     35 H                     0.117559
     36 H                     0.114754
     37 H                     0.135698
     38 H                     0.122650
     39 C                    -0.180651
     40 H                     0.085134
     41 H                     0.115651
     42 H                     0.090279
     43 C                    -0.169131
     44 H                     0.097822
     45 C                    -0.171987
     46 H                     0.087483
     47 H                     0.097434
     48 H                     0.083461
     49 C                    -0.169335
     50 H                     0.097414
     51 C                    -0.326087
     52 H                     0.086495
     53 H                     0.106396
     54 H                     0.096581
     55 H                     0.097275
     56 C                     0.286326
     57 C                    -0.126227
     58 N                    -0.493744
     59 C                    -0.047392
     60 C                     0.074945
     61 C                     0.049158
     62 C                     0.042087
     63 C                     0.063416
     64 C                     0.217137
     65 N                    -0.519837
     66 N                    -0.526559
     67 C                     0.174206
     68 C                     0.279996
     69 S                     0.607633
     70 N                    -0.542486
     71 C                    -0.217913
     72 S                     0.315568
     73 C                    -0.106133
     74 C                    -0.206085
     75 S                     0.273833
     76 C                     0.118666
     77 C                     0.065467
     78 C                    -0.311835
     79 C                    -0.044643
     80 N                    -0.447259
     81 S                     0.268151
     82 C                     0.138979
     83 C                    -0.305564
     84 C                    -0.247313
     85 H                     0.085134
     86 H                     0.105065
     87 H                     0.091328
     88 H                     0.112471
     89 H                     0.128245
     90 H                     0.130802
     91 H                     0.121543
     92 H                     0.118708
     93 H                     0.118001
     94 C                    -0.179725
     95 H                     0.114123
     96 H                     0.106757
     97 H                     0.107610
     98 C                    -0.197219
     99 H                     0.090983
    100 C                    -0.161593
    101 H                     0.099263
    102 H                     0.088216
    103 H                     0.089249
    104 C                    -0.177604
    105 H                     0.093019
    106 C                    -0.321933
    107 H                     0.091995
    108 H                     0.106087
    109 H                     0.103887
    110 H                     0.098594
  ----------------------------------------
  Sum of atomic charges =     0.000000

                    Cartesian Multipole Moments
 -----------------------------------------------------------------
    Charge (ESU x 10^10)
                 0.0000
    Dipole Moment (Debye)
         X       1.2173      Y       0.4110      Z      -0.0995
       Tot       1.2886
    Quadrupole Moments (Debye-Ang)
        XX    -441.8516     XY      29.1373     YY    -401.2071
        XZ     -23.9047     YZ       7.7580     ZZ    -444.8066

 Total job time:  84.83s(wall), 922.24s(cpu)
        *  Thank you very much for using Q-Chem.  Have a nice day.  *
