 Q-Chem 4.4, Q-Chem, Inc., Pleasanton, CA (2016)
 Q-Chem 4.4.2 for Intel X86 Linux

User input:
--------------------------------------------------------------
$comment
SP
$end

$rem
MEM_STATIC 5000
MEM_TOTAL 20000
JOBTYPE SP
EXCHANGE B3LYP
BASIS 6-31g(d,p)
$end

$molecule
0 1
C           3.741000    -30.911000      1.263000
C           3.083000    -30.184000      2.182000
N           4.778000    -30.350000      0.610000
C           3.466000    -28.910000      2.533000
C           5.218000    -29.138000      0.985000
C           4.633000    -28.348000      2.055000
C           4.914000    -26.958000      2.437000
C           3.869000    -26.038000      2.676000
C           6.189000    -26.475000      2.520000
N           4.061000    -24.745000      2.996000
N           7.305000    -27.279000      2.408000
C           6.433000    -25.115000      2.828000
C           5.335000    -24.301000      3.037000
S           8.502000    -26.228000      2.548000
N           7.706000    -24.830000      2.885000
C           5.435000    -22.852000      3.360000
S           6.999000    -22.025000      3.360000
C           4.399000    -21.998000      3.801000
C           6.273000    -20.659000      4.131000
S           2.764000    -22.377000      4.217000
C           4.940000    -20.847000      4.290000
C           6.929000    -19.461000      4.583000
C           2.745000    -20.683000      5.007000
C           3.945000    -20.042000      4.927000
N           6.739000    -18.948000      5.766000
S           8.098000    -18.677000      3.551000
C           7.597000    -17.850000      5.956000
C           8.366000    -17.598000      4.870000
C           3.162000    -32.220000      0.680000
H           2.212000    -30.658000      2.625000
H           2.884000    -28.309000      3.225000
H           5.985000    -28.657000      0.381000
H           2.816000    -26.295000      2.572000
H           1.755000    -20.435000      5.366000
H           4.161000    -19.047000      5.301000
H           7.615000    -17.278000      6.874000
H           9.069000    -16.793000      4.703000
H           2.134000    -32.341000      1.045000
C           3.969000    -33.517000      0.831000
H           3.065000    -31.946000     -0.377000
H           4.002000    -33.797000      1.891000
H           4.983000    -33.316000      0.464000
C           3.296000    -34.629000      0.040000
H           2.245000    -34.687000      0.350000
C           3.983000    -35.966000      0.383000
H           3.263000    -34.410000     -1.034000
H           3.661000    -36.179000      1.410000
H           5.053000    -35.907000      0.150000
C           3.489000    -37.139000     -0.483000
H           2.407000    -37.162000     -0.663000
C           4.041000    -38.429000      0.147000
H           3.809000    -36.994000     -1.522000
H           5.091000    -38.384000      0.463000
H           3.972000    -39.210000     -0.621000
H           3.364000    -38.769000      0.940000
C           3.208000    -19.081000      0.334000
C           2.226000    -19.123000      1.338000
N           3.051000    -19.811000     -0.790000
C           1.200000    -20.027000      1.257000
C           1.973000    -20.557000     -0.907000
C           1.002000    -20.750000      0.076000
C          -0.186000    -21.641000     -0.134000
C          -0.607000    -22.058000     -1.419000
C          -0.829000    -22.314000      0.932000
N          -1.659000    -22.837000     -1.641000
N          -0.373000    -22.238000      2.164000
C          -1.825000    -23.191000      0.728000
C          -2.322000    -23.406000     -0.577000
S          -1.184000    -23.297000      2.986000
N          -2.201000    -23.889000      1.875000
C          -3.524000    -24.192000     -0.836000
S          -4.864000    -24.604000      0.269000
C          -3.862000    -24.792000     -2.074000
C          -5.720000    -25.624000     -0.807000
S          -3.051000    -24.729000     -3.581000
C          -4.988000    -25.616000     -2.010000
C          -6.791000    -26.440000     -0.434000
C          -4.266000    -25.904000     -4.234000
C          -5.243000    -26.246000     -3.319000
N          -7.299000    -27.317000     -1.316000
S          -7.790000    -26.230000      1.026000
C          -8.471000    -27.876000     -0.872000
C          -8.894000    -27.391000      0.340000
C           4.426000    -18.294000      0.548000
H           2.303000    -18.430000      2.170000
H           0.387000    -19.876000      1.961000
H           1.893000    -21.058000     -1.870000
H          -0.048000    -21.760000     -2.305000
H          -4.186000    -26.123000     -5.291000
H          -6.017000    -26.964000     -3.566000
H          -8.999000    -28.664000     -1.393000
H          -9.777000    -27.684000      0.893000
H           4.026000    -17.273000      0.561000
C           5.641000    -18.423000     -0.438000
H           4.857000    -18.426000      1.548000
H           5.253000    -18.144000     -1.425000
H           5.856000    -19.491000     -0.571000
C           6.950000    -17.692000     -0.101000
H           7.620000    -18.303000      0.516000
C           6.906000    -16.228000      0.485000
H           7.460000    -17.533000     -1.059000
H           6.231000    -16.140000      1.346000
H           6.482000    -15.605000     -0.312000
C           8.245000    -15.731000      0.897000
H           8.542000    -16.204000      1.841000
C           8.287000    -14.195000      1.045000
H           9.054000    -16.056000      0.232000
H           7.820000    -13.781000      1.947000
H           7.925000    -13.707000      0.132000
H           9.357000    -13.952000      1.069000
$end

--------------------------------------------------------------

             Standard Nuclear Orientation (Angstroms)
    I     Atom           X                Y                Z
 ----------------------------------------------------------------
    1      C       3.6226741351     5.8927200779    -0.0886574953
    2      C       3.3368277165     5.0671361035     0.9324972071
    3      N       2.6857090431     6.1082194966    -1.0331972864
    4      C       2.1012271257     4.4829025457     1.0903842866
    5      C       1.4498584902     5.6108762741    -0.8644011668
    6      C       1.0352735062     4.8143522513     0.2779183035
    7      C      -0.2207949620     4.0825178627     0.4869528241
    8      C      -0.2231898560     2.7482829771     0.9510191280
    9      C      -1.4353188188     4.6312858722     0.1876394882
   10      N      -1.3367619563     2.0142535402     1.1306603352
   11      N      -1.5919733168     5.9519407084    -0.1807979854
   12      C      -2.6280900582     3.8837472806     0.3375822258
   13      C      -2.5133172841     2.5834452786     0.7935678767
   14      S      -3.1671608495     6.0535028692    -0.4366873446
   15      N      -3.6958704502     4.5673553283     0.0252873784
   16      C      -3.6756324650     1.6760267580     0.9924272456
   17      S      -5.3065364781     2.1672783974     0.5140456751
   18      C      -3.6850549433     0.4260607719     1.6516610816
   19      C      -5.9615769931     0.8192970924     1.3750574782
   20      S      -2.4193689810    -0.3669114857     2.5229566936
   21      C      -4.9725021740     0.0591549949     1.9055562944
   22      C      -7.3505423441     0.4925568186     1.5590684753
   23      C      -3.7838627551    -1.4574071612     3.1885939237
   24      C      -5.0209682829    -1.0974774078     2.7444076050
   25      N      -7.8617351053     0.1817750493     2.7170212605
   26      S      -8.4439581954     0.5822335916     0.2016293966
   27      C      -9.2543347098     0.0243485534     2.5997555795
   28      C      -9.6924886139     0.2070250051     1.3313268388
   29      C       5.0688359303     6.3307977640    -0.4131802265
   30      H       4.1505392512     4.8717650557     1.6247902751
   31      H       1.9063385907     3.7637067811     1.8800455501
   32      H       0.7387804254     5.7047059432    -1.6829547563
   33      H       0.6883559150     2.1890556415     1.1560144801
   34      H      -3.3785536591    -2.2591638748     3.7914170395
   35      H      -5.9536660175    -1.5955247900     2.9864421910
   36      H      -9.8843425178    -0.2260767895     3.4427320379
   37      H     -10.6911731927     0.0950433418     0.9310616529
   38      H       5.7578264807     5.7651757169     0.2271429117
   39      C       5.4045438989     7.8286471234    -0.4157211267
   40      H       5.1892855687     5.9060224595    -1.4165703925
   41      H       5.3305405733     8.2140643833     0.6085181244
   42      H       4.6691317140     8.3276518643    -1.0587212720
   43      C       6.8239958280     8.0302000001    -0.9253157293
   44      H       7.4970043638     7.3955864011    -0.3350699410
   45      C       7.2232619629     9.5035161776    -0.7082604491
   46      H       6.9442009349     7.6858199082    -1.9594719480
   47      H       7.3479942345     9.5918902119     0.3782080919
   48      H       6.5187280281    10.1624450606    -1.2299065569
   49      C       8.5831682028     9.8599149209    -1.3356008308
   50      H       9.3673839785     9.1031840076    -1.2090427729
   51      C       8.9725444066    11.2514742012    -0.8086729977
   52      H       8.5104343955     9.8164691728    -2.4291127239
   53      H       8.1623872777    11.9916730712    -0.7971812902
   54      H       9.7485830419    11.6380776803    -1.4816126581
   55      H       9.4796846126    11.1490540569     0.1583311003
   56      C      -4.1244035367    -2.9978867876    -1.5155166720
   57      C      -3.6718641935    -3.4887076940    -0.2792290919
   58      N      -3.2416390039    -2.7632089017    -2.5087830357
   59      C      -2.3286483512    -3.5674875816    -0.0222895463
   60      C      -1.9662482321    -2.9952960121    -2.2811804160
   61      C      -1.4099249870    -3.3748406142    -1.0593664605
   62      C       0.0630954098    -3.5943913402    -0.8823540612
   63      C       0.9405384615    -3.7881859361    -1.9754653756
   64      C       0.7176112842    -3.3951940648     0.3564612662
   65      N       2.2463561694    -3.9952744977    -1.8538781987
   66      N       0.0690359150    -2.9439753576     1.4087386387
   67      C       2.0505853120    -3.4915114933     0.4855511349
   68      C       2.8415904491    -3.8838262442    -0.6174715346
   69      S       1.1650858206    -2.6248897379     2.4819324571
   70      N       2.5245766668    -3.0781786262     1.7300097066
   71      C       4.2616352161    -4.1949901363    -0.4896791562
   72      S       5.1909038614    -4.6546035338     0.9634499880
   73      C       5.2011150442    -4.1947157539    -1.5499930612
   74      C       6.7352920217    -4.6884297508     0.2254574425
   75      S       4.9665924968    -3.9145213998    -3.2230828073
   76      C       6.5210847315    -4.3765429087    -1.1309860081
   77      C       7.9401974766    -4.7901355337     0.9253751366
   78      C       6.7615273621    -4.0201907792    -3.4473634603
   79      C       7.4426647274    -4.3088703472    -2.2805584223
   80      N       9.1050074615    -4.6555235916     0.2694678839
   81      S       8.1197971659    -5.4004558832     2.5893925711
   82      C      10.1801865060    -4.9978134330     1.0505112162
   83      C       9.8381742503    -5.4447193043     2.3020705472
   84      C      -5.5453196057    -2.6833904914    -1.6909549937
   85      H      -4.4063840150    -3.7975455774     0.4579966495
   86      H      -2.0548193445    -4.1251520076     0.8684483855
   87      H      -1.3340381794    -2.8448353636    -3.1543596888
   88      H       0.5639309978    -3.7516962671    -2.9967960381
   89      H       7.1100879705    -3.9738708366    -4.4710675021
   90      H       8.5249617496    -4.3716004257    -2.2630343585
   91      H      11.2110467412    -4.8840399255     0.7413967319
   92      H      10.5067724965    -5.7595050491     3.0927875130
   93      H      -5.9983613542    -3.6800342983    -1.6272031612
   94      C      -6.0380721238    -1.9082006723    -2.9642725897
   95      H      -5.9763261360    -2.1380290064    -0.8424273150
   96      H      -5.7423789861    -2.5260588631    -3.8206433182
   97      H      -5.3996994659    -1.0242713518    -3.0895215654
   98      C      -7.5095076835    -1.4722994887    -3.0435099013
   99      H      -7.6739241141    -0.4824502636    -2.6007054874
  100      C      -8.6475285935    -2.4487275908    -2.5534848304
  101      H      -7.7385539644    -1.3822599539    -4.1124232202
  102      H      -8.4588028673    -2.8423906605    -1.5464585210
  103      H      -8.6143062485    -3.3055807141    -3.2374533976
  104      C      -9.9920701622    -1.8147892431    -2.5555198319
  105      H     -10.0801440739    -1.1288495568    -1.7041657735
  106      C     -11.1356026613    -2.8509085265    -2.5136360170
  107      H     -10.1499587199    -1.1305832183    -3.3976981498
  108      H     -11.3253723488    -3.3258911289    -1.5433432812
  109      H     -11.0217592099    -3.5874281792    -3.3182076233
  110      H     -12.0299207299    -2.2824622276    -2.7992738949
 ----------------------------------------------------------------

    9   -5663.5234827454      5.52E-06 Convergence criterion met
 Total energy in the final basis set = -5663.5234827454

                    Orbital Energies (a.u.)
 --------------------------------------------------------------

 Alpha MOs
 -- Occupied --
-88.989 -88.988 -88.926 -88.926 -88.925 -88.923 -88.906 -88.904
-14.386 -14.385 -14.384 -14.374 -14.351 -14.348 -14.346 -14.343
-14.325 -14.322 -10.270 -10.267 -10.261 -10.258 -10.252 -10.251
-10.247 -10.245 -10.244 -10.240 -10.240 -10.239 -10.234 -10.232
-10.232 -10.231 -10.229 -10.229 -10.228 -10.227 -10.227 -10.225
-10.225 -10.221 -10.220 -10.219 -10.218 -10.218 -10.212 -10.210
-10.208 -10.201 -10.201 -10.200 -10.199 -10.198 -10.188 -10.185
-10.183 -10.183 -10.178 -10.178 -10.176 -10.176 -10.175 -10.174
-10.174 -10.173 -10.173 -10.170  -8.045  -8.045  -7.987  -7.987
 -7.985  -7.983  -7.965  -7.964  -6.010  -6.009  -6.004  -6.004
 -6.003  -6.003  -5.951  -5.950  -5.949  -5.948  -5.947  -5.947
 -5.946  -5.944  -5.944  -5.943  -5.942  -5.940  -5.929  -5.929
 -5.926  -5.925  -5.921  -5.921  -1.057  -1.048  -0.973  -0.963
 -0.962  -0.955  -0.943  -0.938  -0.919  -0.914  -0.911  -0.906
 -0.843  -0.842  -0.841  -0.832  -0.811  -0.811  -0.809  -0.806
 -0.804  -0.802  -0.797  -0.797  -0.790  -0.783  -0.768  -0.768
 -0.751  -0.748  -0.742  -0.737  -0.727  -0.718  -0.712  -0.708
 -0.693  -0.692  -0.677  -0.675  -0.660  -0.656  -0.652  -0.650
 -0.636  -0.635  -0.624  -0.622  -0.610  -0.608  -0.596  -0.594
 -0.592  -0.588  -0.585  -0.582  -0.577  -0.575  -0.572  -0.560
 -0.555  -0.550  -0.544  -0.537  -0.527  -0.522  -0.516  -0.509
 -0.507  -0.505  -0.502  -0.501  -0.492  -0.486  -0.480  -0.480
 -0.478  -0.475  -0.473  -0.470  -0.460  -0.459  -0.451  -0.448
 -0.447  -0.446  -0.439  -0.436  -0.435  -0.431  -0.430  -0.429
 -0.427  -0.425  -0.423  -0.421  -0.417  -0.414  -0.414  -0.412
 -0.411  -0.407  -0.405  -0.402  -0.397  -0.395  -0.395  -0.394
 -0.392  -0.392  -0.390  -0.390  -0.388  -0.387  -0.385  -0.382
 -0.381  -0.377  -0.376  -0.371  -0.364  -0.363  -0.357  -0.356
 -0.355  -0.353  -0.351  -0.349  -0.346  -0.345  -0.344  -0.343
 -0.338  -0.337  -0.333  -0.332  -0.327  -0.326  -0.324  -0.322
 -0.317  -0.316  -0.314  -0.307  -0.306  -0.301  -0.301  -0.300
 -0.295  -0.293  -0.289  -0.289  -0.285  -0.284  -0.282  -0.279
 -0.279  -0.270  -0.267  -0.265  -0.256  -0.251  -0.246  -0.246
 -0.244  -0.240  -0.235  -0.227  -0.195  -0.190

          Ground-State Mulliken Net Atomic Charges

     Atom                 Charge (a.u.)
  ----------------------------------------
      1 C                     0.275111
      2 C                    -0.126198
      3 N                    -0.488098
      4 C                    -0.077195
      5 C                     0.100619
      6 C                     0.038923
      7 C                     0.028314
      8 C                     0.060935
      9 C                     0.175653
     10 N                    -0.537430
     11 N                    -0.523070
     12 C                     0.274635
     13 C                     0.325425
     14 S                     0.606625
     15 N                    -0.590602
     16 C                    -0.241013
     17 S                     0.333747
     18 C                    -0.106881
     19 C                    -0.211575
     20 S                     0.267589
     21 C                     0.150776
     22 C                     0.026531
     23 C                    -0.322288
     24 C                    -0.020608
     25 N                    -0.424697
     26 S                     0.275371
     27 C                     0.111793
     28 C                    -0.304838
     29 C                    -0.227513
     30 H                     0.080902
     31 H                     0.092454
     32 H                     0.104576
     33 H                     0.113787
     34 H                     0.126849
     35 H                     0.116298
     36 H                     0.119085
     37 H                     0.131710
     38 H                     0.089940
     39 C                    -0.167628
     40 H                     0.122629
     41 H                     0.092335
     42 H                     0.115211
     43 C                    -0.182308
     44 H                     0.087530
     45 C                    -0.160924
     46 H                     0.092066
     47 H                     0.095585
     48 H                     0.099666
     49 C                    -0.186004
     50 H                     0.087888
     51 C                    -0.318396
     52 H                     0.090145
     53 H                     0.106063
     54 H                     0.094640
     55 H                     0.106110
     56 C                     0.287150
     57 C                    -0.121903
     58 N                    -0.495077
     59 C                    -0.036351
     60 C                     0.075996
     61 C                     0.049339
     62 C                     0.041581
     63 C                     0.063574
     64 C                     0.219173
     65 N                    -0.520388
     66 N                    -0.523297
     67 C                     0.171790
     68 C                     0.279997
     69 S                     0.606741
     70 N                    -0.542966
     71 C                    -0.218018
     72 S                     0.315058
     73 C                    -0.106316
     74 C                    -0.203968
     75 S                     0.274812
     76 C                     0.118326
     77 C                     0.064237
     78 C                    -0.312183
     79 C                    -0.044692
     80 N                    -0.446928
     81 S                     0.264924
     82 C                     0.135169
     83 C                    -0.308224
     84 C                    -0.250147
     85 H                     0.084051
     86 H                     0.100154
     87 H                     0.090252
     88 H                     0.112494
     89 H                     0.128089
     90 H                     0.128261
     91 H                     0.118534
     92 H                     0.132973
     93 H                     0.115846
     94 C                    -0.180605
     95 H                     0.117756
     96 H                     0.106054
     97 H                     0.109079
     98 C                    -0.202644
     99 H                     0.098454
    100 C                    -0.159362
    101 H                     0.097466
    102 H                     0.090652
    103 H                     0.089434
    104 C                    -0.181256
    105 H                     0.088494
    106 C                    -0.322621
    107 H                     0.092413
    108 H                     0.105326
    109 H                     0.105972
    110 H                     0.097076
  ----------------------------------------
  Sum of atomic charges =     0.000000

                    Cartesian Multipole Moments
 -----------------------------------------------------------------
    Charge (ESU x 10^10)
                 0.0000
    Dipole Moment (Debye)
         X      -0.7738      Y      -1.4461      Z       2.7140
       Tot       3.1711
    Quadrupole Moments (Debye-Ang)
        XX    -371.8749     XY      -2.3908     YY    -447.8781
        XZ      11.7750     YZ     -13.4910     ZZ    -440.4502

 Total job time:  89.74s(wall), 988.47s(cpu)
        *  Thank you very much for using Q-Chem.  Have a nice day.  *
