 Q-Chem 4.4, Q-Chem, Inc., Pleasanton, CA (2016)
 Q-Chem 4.4.2 for Intel X86 Linux

User input:
--------------------------------------------------------------
$comment
SP
$end

$rem
MEM_STATIC 5000
MEM_TOTAL 20000
JOBTYPE SP
EXCHANGE B3LYP
BASIS 6-31g(d,p)
$end

$molecule
0 1
C           4.325000    -17.937000     -5.479000
C           3.807000    -18.458000     -4.323000
N           3.619000    -17.115000     -6.296000
C           2.482000    -18.161000     -4.010000
C           2.393000    -16.807000     -5.957000
C           1.751000    -17.319000     -4.867000
C           0.425000    -16.856000     -4.418000
C           0.075000    -15.522000     -4.595000
C          -0.539000    -17.688000     -3.857000
N          -1.148000    -14.998000     -4.224000
N          -0.422000    -19.013000     -3.735000
C          -1.795000    -17.218000     -3.572000
C          -2.063000    -15.824000     -3.569000
S          -1.860000    -19.554000     -3.321000
N          -2.711000    -18.179000     -3.200000
C          -3.312000    -15.262000     -3.133000
S          -4.258000    -15.989000     -1.871000
C          -3.836000    -14.086000     -3.522000
C          -5.214000    -14.435000     -1.657000
S          -3.262000    -12.864000     -4.626000
C          -4.830000    -13.637000     -2.690000
C          -6.106000    -14.044000     -0.495000
C          -4.654000    -11.867000     -4.197000
C          -5.373000    -12.381000     -3.203000
N          -6.210000    -12.722000     -0.258000
S          -6.623000    -15.108000      0.804000
C          -6.971000    -12.488000      0.882000
C          -7.320000    -13.644000      1.495000
C           5.770000    -18.154000     -5.939000
H           4.389000    -19.083000     -3.653000
H           2.100000    -18.413000     -3.025000
H           1.911000    -16.158000     -6.687000
H           0.781000    -14.868000     -5.105000
H          -4.770000    -10.905000     -4.678000
H          -6.130000    -11.862000     -2.628000
H          -7.197000    -11.475000      1.185000
H          -8.032000    -13.673000      2.308000
H           5.869000    -19.243000     -5.854000
C           6.908000    -17.438000     -5.140000
H           5.804000    -17.901000     -7.006000
H           7.918000    -17.727000     -5.454000
H           6.774000    -17.817000     -4.119000
C           6.772000    -15.888000     -5.049000
H           5.734000    -15.592000     -4.854000
C           7.120000    -15.180000     -6.307000
H           7.289000    -15.572000     -4.135000
H           6.414000    -15.240000     -7.144000
H           8.116000    -15.500000     -6.637000
C           7.035000    -13.628000     -6.069000
H           6.033000    -13.309000     -5.755000
C           7.447000    -12.786000     -7.278000
H           7.701000    -13.303000     -5.260000
H           7.624000    -11.744000     -6.986000
H           6.680000    -12.845000     -8.059000
H           8.440000    -13.135000     -7.590000
C           3.208000    -19.081000      0.334000
C           2.226000    -19.123000      1.338000
N           3.051000    -19.811000     -0.790000
C           1.200000    -20.027000      1.257000
C           1.973000    -20.557000     -0.907000
C           1.002000    -20.750000      0.076000
C          -0.186000    -21.641000     -0.134000
C          -0.607000    -22.058000     -1.419000
C          -0.829000    -22.314000      0.932000
N          -1.659000    -22.837000     -1.641000
N          -0.373000    -22.238000      2.164000
C          -1.825000    -23.191000      0.728000
C          -2.322000    -23.406000     -0.577000
S          -1.184000    -23.297000      2.986000
N          -2.201000    -23.889000      1.875000
C          -3.524000    -24.192000     -0.836000
S          -4.864000    -24.604000      0.269000
C          -3.862000    -24.792000     -2.074000
C          -5.720000    -25.624000     -0.807000
S          -3.051000    -24.729000     -3.581000
C          -4.988000    -25.616000     -2.010000
C          -6.791000    -26.440000     -0.434000
C          -4.266000    -25.904000     -4.234000
C          -5.243000    -26.246000     -3.319000
N          -7.299000    -27.317000     -1.316000
S          -7.790000    -26.230000      1.026000
C          -8.471000    -27.876000     -0.872000
C          -8.894000    -27.391000      0.340000
C           4.426000    -18.294000      0.548000
H           2.303000    -18.430000      2.170000
H           0.387000    -19.876000      1.961000
H           1.893000    -21.058000     -1.870000
H          -0.048000    -21.760000     -2.305000
H          -4.186000    -26.123000     -5.291000
H          -6.017000    -26.964000     -3.566000
H          -8.999000    -28.664000     -1.393000
H          -9.777000    -27.684000      0.893000
H           4.026000    -17.273000      0.561000
C           5.641000    -18.423000     -0.438000
H           4.857000    -18.426000      1.548000
H           5.253000    -18.144000     -1.425000
H           5.856000    -19.491000     -0.571000
C           6.950000    -17.692000     -0.101000
H           7.620000    -18.303000      0.516000
C           6.906000    -16.228000      0.485000
H           7.460000    -17.533000     -1.059000
H           6.231000    -16.140000      1.346000
H           6.482000    -15.605000     -0.312000
C           8.245000    -15.731000      0.897000
H           8.542000    -16.204000      1.841000
C           8.287000    -14.195000      1.045000
H           9.054000    -16.056000      0.232000
H           7.820000    -13.781000      1.947000
H           7.925000    -13.707000      0.132000
H           9.357000    -13.952000      1.069000
$end

--------------------------------------------------------------

             Standard Nuclear Orientation (Angstroms)
    I     Atom           X                Y                Z
 ----------------------------------------------------------------
    1      C      -5.4139112335    -2.4063806651     2.6781581379
    2      C      -4.4401404800    -2.5350386766     1.7235280337
    3      N      -5.6091872519    -1.2611204809     3.3794821623
    4      C      -3.5909718882    -1.4514478177     1.5077815317
    5      C      -4.8337310129    -0.2380198778     3.1249359439
    6      C      -3.7897889096    -0.2714503077     2.2465992821
    7      C      -3.0161400894     0.9241256181     1.8640921466
    8      C      -3.6577142505     2.1558508009     1.7961166378
    9      C      -1.6493759835     0.9138617739     1.6031486043
   10      N      -3.0162089231     3.3334316653     1.4648762076
   11      N      -0.8553689284    -0.1503021554     1.7491141072
   12      C      -0.9682807808     2.0807562926     1.3704954135
   13      C      -1.6680770204     3.2871149921     1.1058203086
   14      S       0.6382123473     0.3839490836     1.6237682405
   15      N       0.4039024286     1.9584448723     1.3146907851
   16      C      -1.0173926197     4.5049193811     0.7064416903
   17      S       0.4259877578     4.5035342067    -0.2593430513
   18      C      -1.4775426183     5.7542125332     0.8972337213
   19      C       0.1742777465     6.2729048314    -0.6843344189
   20      S      -2.9315384404     6.3573081028     1.6480651825
   21      C      -0.8519668285     6.6856756606     0.1079984120
   22      C       0.8365571301     7.0666098840    -1.7934815271
   23      C      -2.4575462709     7.9920771188     1.1805443942
   24      C      -1.3774965359     8.0166142964     0.4046039991
   25      N       0.1155368171     8.0909712789    -2.2889433731
   26      S       2.1909623858     6.5259047986    -2.7732827386
   27      C       0.7779673690     8.6828301703    -3.3586937255
   28      C       1.9146009556     8.0166732818    -3.6720706388
   29      C      -6.4353756447    -3.4998467439     3.0062684716
   30      H      -4.3137991785    -3.4401114382     1.1377548935
   31      H      -2.9281659118    -1.4596147380     0.6473894472
   32      H      -5.0621804095     0.6223781776     3.7525911513
   33      H      -4.7096705639     2.2042357923     2.0741432684
   34      H      -3.0993679302     8.8171075672     1.4592031765
   35      H      -1.0281216627     8.8610893139    -0.1766310160
   36      H       0.3598261683     9.5562804856    -3.8396266553
   37      H       2.6369382700     8.4082259427    -4.3746866918
   38      H      -5.7882974103    -4.3751486079     3.1407430252
   39      C      -7.5496639166    -3.8012219210     1.9509791038
   40      H      -6.8624777996    -3.2505910500     3.9856097544
   41      H      -8.1736091321    -4.6672477151     2.2017951558
   42      H      -6.9786351484    -4.0723967641     1.0540798060
   43      C      -8.4266824948    -2.5757229616     1.5531503539
   44      H      -7.8134509000    -1.6761672123     1.4196158453
   45      C      -9.4191819567    -2.1869601059     2.5869492996
   46      H      -8.8032709851    -2.7637725942     0.5405500158
   47      H      -9.0516213587    -1.6896196973     3.4925743460
   48      H     -10.0165295836    -3.0651246801     2.8613919953
   49      C     -10.3018286496    -1.0060639204     2.0401476767
   50      H      -9.7030365622    -0.1233191473     1.7821346892
   51      C     -11.4163736591    -0.5655495979     2.9910028462
   52      H     -10.8168467213    -1.2791315016     1.1107110291
   53      H     -12.1506506758     0.0594363482     2.4689043594
   54      H     -10.9922330610    -0.0309995286     3.8489608734
   55      H     -11.9888316968    -1.4645024100     3.2543840087
   56      C      -2.5557039801    -2.9658558784    -2.6005758754
   57      C      -1.5844851867    -2.4178660273    -3.4552952319
   58      N      -2.2234876698    -3.3076250496    -1.3381372999
   59      C      -0.2701120047    -2.3878937484    -3.0706164035
   60      C      -0.9807577651    -3.1234736777    -0.9457094007
   61      C       0.0748224694    -2.6923848665    -1.7496321616
   62      C       1.4704720790    -2.5336490506    -1.2239991071
   63      C       1.7584833559    -2.4546384542     0.1591718259
   64      C       2.6133190859    -2.6830429064    -2.0451666873
   65      N       2.9798404942    -2.3038127854     0.6575365100
   66      N       2.5071311159    -3.0324242970    -3.3093631748
   67      C       3.8607578607    -2.6434506153    -1.5501010821
   68      C       4.0699839762    -2.3630230726    -0.1812169286
   69      S       3.9664835206    -3.3336130773    -3.7935758114
   70      N       4.8424095362    -2.9971173766    -2.4750166513
   71      C       5.3973459391    -2.1136191719     0.3715840427
   72      S       6.8912982099    -1.6057490914    -0.4630078299
   73      C       5.7528566341    -2.2289060949     1.7380426301
   74      C       7.9325213894    -1.6954050647     0.8929892560
   75      S       4.7804166368    -2.6061287594     3.0962777030
   76      C       7.1215197203    -2.0845041645     1.9764906096
   77      C       9.3251279609    -1.6068978044     0.8234234446
   78      C       6.2790811115    -2.6027875367     4.1147337053
   79      C       7.4196324338    -2.2719291565     3.4087638665
   80      N      10.0631599400    -1.8406011632     1.9215165817
   81      S      10.2490427346    -0.8985682032    -0.5250392605
   82      C      11.3803289525    -1.5006961165     1.7405985016
   83      C      11.6500387541    -0.9568255088     0.5099241397
   84      C      -3.9055216192    -3.2216532941    -3.1117011274
   85      H      -1.8998748806    -2.0261320892    -4.4173117924
   86      H       0.3859171260    -1.7871774792    -3.6936346565
   87      H      -0.8160728659    -3.3612672824     0.1036251911
   88      H       0.9587367926    -2.5394500450     0.8936739897
   89      H       6.1241520649    -2.7328281127     5.1780758135
   90      H       8.3926337812    -2.2609111552     3.8870482816
   91      H      12.1567771803    -1.6844447003     2.4717165547
   92      H      12.6090129899    -0.6239223648     0.1345697582
   93      H      -4.2665204332    -2.2021177148    -3.2929111130
   94      C      -4.9332749281    -4.0535308752    -2.2650814808
   95      H      -3.9116873486    -3.6887671364    -4.1041484269
   96      H      -5.0502235835    -3.5080916893    -1.3209559031
   97      H      -4.4335491756    -4.9737623338    -1.9364688896
   98      C      -6.2860818372    -4.4215833364    -2.8942570146
   99      H      -6.2450607775    -5.3711971131    -3.4414872657
  100      C      -7.0640336125    -3.3610098596    -3.7652351635
  101      H      -6.9767094698    -4.5700553701    -2.0551297726
  102      H      -6.4332662737    -2.9120080139    -4.5431939714
  103      H      -7.3332550573    -2.5533326226    -3.0736490919
  104      C      -8.2714539874    -3.9275671376    -4.4216061628
  105      H      -7.9727544177    -4.5512891309    -5.2729717964
  106      C      -9.2569780722    -2.8365274899    -4.8920727029
  107      H      -8.8038804844    -4.6568699102    -3.7995366400
  108      H      -8.9789654280    -2.2904656211    -5.8018058534
  109      H      -9.5107856107    -2.1605891674    -4.0665752058
  110      H     -10.1911817489    -3.3782507956    -5.0878387635
 ----------------------------------------------------------------

   10   -5663.5177593931      9.32E-06 Convergence criterion met
 Total energy in the final basis set = -5663.5177593931

                    Orbital Energies (a.u.)
 --------------------------------------------------------------

 Alpha MOs
 -- Occupied --
-88.994 -88.984 -88.932 -88.930 -88.927 -88.918 -88.909 -88.898
-14.390 -14.381 -14.380 -14.374 -14.354 -14.348 -14.346 -14.344
-14.334 -14.318 -10.278 -10.275 -10.268 -10.255 -10.253 -10.251
-10.248 -10.246 -10.246 -10.244 -10.244 -10.241 -10.234 -10.234
-10.233 -10.233 -10.231 -10.229 -10.229 -10.228 -10.227 -10.227
-10.225 -10.219 -10.217 -10.217 -10.216 -10.212 -10.212 -10.211
-10.207 -10.203 -10.201 -10.200 -10.200 -10.197 -10.190 -10.187
-10.185 -10.183 -10.182 -10.181 -10.177 -10.177 -10.176 -10.174
-10.169 -10.169 -10.168 -10.164  -8.051  -8.040  -7.993  -7.991
 -7.988  -7.977  -7.969  -7.958  -6.016  -6.010  -6.009  -6.005
 -5.999  -5.998  -5.957  -5.955  -5.953  -5.952  -5.952  -5.949
 -5.948  -5.948  -5.944  -5.942  -5.938  -5.934  -5.933  -5.930
 -5.925  -5.923  -5.919  -5.914  -1.063  -1.044  -0.968  -0.961
 -0.960  -0.953  -0.943  -0.938  -0.917  -0.912  -0.911  -0.903
 -0.847  -0.841  -0.839  -0.830  -0.818  -0.809  -0.806  -0.804
 -0.803  -0.801  -0.800  -0.794  -0.792  -0.782  -0.773  -0.762
 -0.753  -0.745  -0.741  -0.734  -0.724  -0.723  -0.717  -0.706
 -0.697  -0.690  -0.681  -0.667  -0.665  -0.659  -0.650  -0.645
 -0.642  -0.630  -0.629  -0.621  -0.616  -0.606  -0.603  -0.595
 -0.592  -0.587  -0.587  -0.581  -0.574  -0.573  -0.565  -0.560
 -0.555  -0.551  -0.543  -0.530  -0.528  -0.521  -0.515  -0.512
 -0.507  -0.506  -0.497  -0.495  -0.494  -0.486  -0.486  -0.478
 -0.475  -0.474  -0.467  -0.467  -0.466  -0.456  -0.455  -0.453
 -0.445  -0.440  -0.438  -0.437  -0.435  -0.434  -0.432  -0.432
 -0.427  -0.425  -0.423  -0.421  -0.420  -0.418  -0.415  -0.414
 -0.412  -0.407  -0.406  -0.401  -0.399  -0.398  -0.397  -0.395
 -0.393  -0.393  -0.391  -0.390  -0.389  -0.387  -0.384  -0.384
 -0.382  -0.381  -0.376  -0.373  -0.366  -0.361  -0.356  -0.354
 -0.352  -0.350  -0.349  -0.348  -0.347  -0.343  -0.342  -0.341
 -0.338  -0.338  -0.329  -0.327  -0.326  -0.325  -0.322  -0.321
 -0.316  -0.311  -0.309  -0.309  -0.307  -0.306  -0.303  -0.298
 -0.295  -0.291  -0.290  -0.288  -0.287  -0.284  -0.279  -0.279
 -0.277  -0.273  -0.269  -0.261  -0.257  -0.255  -0.249  -0.247
 -0.245  -0.243  -0.234  -0.231  -0.196  -0.191

          Ground-State Mulliken Net Atomic Charges

     Atom                 Charge (a.u.)
  ----------------------------------------
      1 C                     0.258101
      2 C                    -0.122270
      3 N                    -0.477804
      4 C                    -0.061441
      5 C                     0.063469
      6 C                     0.052553
      7 C                     0.035832
      8 C                     0.058881
      9 C                     0.230443
     10 N                    -0.529113
     11 N                    -0.548374
     12 C                     0.168178
     13 C                     0.281850
     14 S                     0.624733
     15 N                    -0.545641
     16 C                    -0.225289
     17 S                     0.297223
     18 C                    -0.083977
     19 C                    -0.248132
     20 S                     0.276577
     21 C                     0.147281
     22 C                     0.044767
     23 C                    -0.308844
     24 C                    -0.027122
     25 N                    -0.426691
     26 S                     0.277323
     27 C                     0.134293
     28 C                    -0.310134
     29 C                    -0.224273
     30 H                     0.111007
     31 H                     0.116393
     32 H                     0.097359
     33 H                     0.114828
     34 H                     0.128358
     35 H                     0.116687
     36 H                     0.122849
     37 H                     0.125604
     38 H                     0.095082
     39 C                    -0.189485
     40 H                     0.116931
     41 H                     0.095053
     42 H                     0.087678
     43 C                    -0.168728
     44 H                     0.101171
     45 C                    -0.158689
     46 H                     0.087399
     47 H                     0.112909
     48 H                     0.082557
     49 C                    -0.188554
     50 H                     0.093220
     51 C                    -0.318428
     52 H                     0.084252
     53 H                     0.096611
     54 H                     0.102929
     55 H                     0.100142
     56 C                     0.285981
     57 C                    -0.125482
     58 N                    -0.502694
     59 C                    -0.047972
     60 C                     0.075788
     61 C                     0.048758
     62 C                     0.041245
     63 C                     0.050674
     64 C                     0.216079
     65 N                    -0.521744
     66 N                    -0.528620
     67 C                     0.174657
     68 C                     0.279858
     69 S                     0.610087
     70 N                    -0.540385
     71 C                    -0.216998
     72 S                     0.318359
     73 C                    -0.105950
     74 C                    -0.205039
     75 S                     0.275414
     76 C                     0.117459
     77 C                     0.062906
     78 C                    -0.310542
     79 C                    -0.044472
     80 N                    -0.446805
     81 S                     0.268913
     82 C                     0.135481
     83 C                    -0.306424
     84 C                    -0.247483
     85 H                     0.088964
     86 H                     0.108046
     87 H                     0.100879
     88 H                     0.124530
     89 H                     0.130217
     90 H                     0.129901
     91 H                     0.120566
     92 H                     0.134928
     93 H                     0.121280
     94 C                    -0.186814
     95 H                     0.116341
     96 H                     0.108658
     97 H                     0.106652
     98 C                    -0.200403
     99 H                     0.092186
    100 C                    -0.162543
    101 H                     0.101756
    102 H                     0.088575
    103 H                     0.091728
    104 C                    -0.178166
    105 H                     0.093095
    106 C                    -0.322225
    107 H                     0.092281
    108 H                     0.106572
    109 H                     0.105316
    110 H                     0.099095
  ----------------------------------------
  Sum of atomic charges =     0.000000

                    Cartesian Multipole Moments
 -----------------------------------------------------------------
    Charge (ESU x 10^10)
                 0.0000
    Dipole Moment (Debye)
         X       4.3356      Y       0.1110      Z      -4.9141
       Tot       6.5543
    Quadrupole Moments (Debye-Ang)
        XX    -405.0856     XY      13.7736     YY    -430.4282
        XZ       7.4370     YZ      -8.5998     ZZ    -427.7358

 Total job time:  101.37s(wall), 1118.32s(cpu)
        *  Thank you very much for using Q-Chem.  Have a nice day.  *
