 Q-Chem 4.4, Q-Chem, Inc., Pleasanton, CA (2016)
 Q-Chem 4.4.2 for Intel X86 Linux

User input:
--------------------------------------------------------------
$comment
SP
$end

$rem
MEM_STATIC 5000
MEM_TOTAL 20000
JOBTYPE SP
EXCHANGE B3LYP
BASIS 6-31g(d,p)
$end

$molecule
0 1
C          15.823000     15.778000    -14.767000
C          15.794000     17.142000    -14.345000
N          14.718000     15.028000    -14.571000
C          14.613000     17.714000    -13.781000
C          13.638000     15.615000    -13.968000
C          13.485000     16.944000    -13.598000
C          12.129000     17.447000    -13.077000
C          12.019000     18.472000    -12.106000
C          10.894000     17.002000    -13.505000
N          10.839000     18.914000    -11.542000
N          10.775000     16.176000    -14.556000
C           9.656000     17.419000    -12.980000
C           9.648000     18.396000    -11.954000
S           9.211000     15.856000    -14.703000
N           8.596000     16.782000    -13.509000
C           8.416000     18.892000    -11.295000
S           6.818000     18.151000    -11.325000
C           8.360000     20.156000    -10.705000
C           6.118000     19.505000    -10.534000
S           9.640000     21.364000    -10.468000
C           7.083000     20.440000    -10.294000
C           4.764000     19.552000    -10.146000
C           8.422000     22.333000     -9.640000
C           7.106000     21.756000     -9.661000
N           4.487000     20.336000     -9.153000
S           3.412000     18.576000    -10.628000
C           3.118000     20.368000     -8.878000
C           2.340000     19.512000     -9.615000
C          17.026000     15.226000    -15.404000
H          16.751000     17.655000    -14.341000
H          14.555000     18.744000    -13.442000
H          12.771000     14.957000    -13.928000
H          12.837000     19.134000    -11.826000
H           8.697000     23.340000     -9.352000
H           6.198000     22.273000     -9.373000
H           2.806000     21.022000     -8.074000
H           1.287000     19.338000     -9.793000
H          16.825000     14.271000    -15.905000
C          18.205000     15.036000    -14.508000
H          17.345000     15.943000    -16.171000
H          18.652000     16.007000    -14.259000
H          19.006000     14.652000    -15.151000
C          17.883000     14.212000    -13.255000
H          17.175000     13.427000    -13.548000
C          17.417000     14.852000    -11.951000
H          18.812000     13.734000    -12.921000
H          16.599000     15.547000    -12.177000
H          18.185000     15.471000    -11.472000
C          16.923000     13.811000    -10.883000
H          16.633000     14.375000     -9.988000
C          18.035000     12.726000    -10.470000
H          16.001000     13.324000    -11.223000
H          17.638000     12.113000     -9.652000
H          18.928000     13.315000    -10.226000
H          18.245000     11.960000    -11.227000
C          19.454000     18.889000    -10.124000
C          18.212000     18.248000    -10.291000
N          19.619000     20.133000    -10.636000
C          17.068000     18.942000    -10.749000
C          18.645000     20.811000    -11.196000
C          17.315000     20.266000    -11.299000
C          16.195000     21.085000    -11.888000
C          16.308000     21.946000    -12.979000
C          14.965000     21.176000    -11.168000
N          15.320000     22.716000    -13.477000
N          14.683000     20.533000     -9.990000
C          13.990000     22.101000    -11.600000
C          14.151000     22.840000    -12.784000
S          13.247000     21.169000     -9.502000
N          12.939000     22.126000    -10.765000
C          13.130000     23.748000    -13.314000
S          11.494000     23.993000    -12.576000
C          13.304000     24.753000    -14.214000
C          10.973000     25.242000    -13.773000
S          14.718000     25.223000    -15.156000
C          12.150000     25.493000    -14.491000
C           9.791000     26.006000    -13.723000
C          13.790000     26.560000    -15.799000
C          12.444000     26.541000    -15.420000
N           9.528000     27.003000    -14.572000
S           8.614000     25.687000    -12.452000
C           8.267000     27.512000    -14.231000
C           7.610000     26.831000    -13.240000
C          20.675000     18.208000     -9.488000
H          18.070000     17.250000     -9.885000
H          16.070000     18.515000    -10.754000
H          18.930000     21.773000    -11.618000
H          17.240000     21.958000    -13.542000
H          14.224000     27.158000    -16.590000
H          11.735000     27.264000    -15.806000
H           7.893000     28.309000    -14.859000
H           6.578000     26.858000    -12.915000
H          21.544000     18.875000     -9.434000
C          21.124000     16.963000    -10.212000
H          20.484000     18.058000     -8.418000
H          20.262000     16.303000    -10.371000
H          21.787000     16.433000     -9.517000
C          21.729000     17.260000    -11.570000
H          22.175000     18.261000    -11.615000
C          20.728000     17.036000    -12.755000
H          22.592000     16.583000    -11.552000
H          19.761000     17.503000    -12.534000
H          20.470000     15.973000    -12.835000
C          21.409000     17.417000    -14.104000
H          20.686000     17.817000    -14.825000
C          22.298000     16.329000    -14.678000
H          22.015000     18.306000    -13.887000
H          22.866000     15.741000    -13.947000
H          22.961000     16.661000    -15.487000
H          21.720000     15.512000    -15.127000
$end

--------------------------------------------------------------

             Standard Nuclear Orientation (Angstroms)
    I     Atom           X                Y                Z
 ----------------------------------------------------------------
    1      C       4.5754159662    -2.2403378166    -2.6386617528
    2      C       4.0011446893    -1.0785781391    -2.0387051274
    3      N       3.8294602629    -3.3640831988    -2.6905019362
    4      C       2.6571167781    -1.0866025202    -1.5554188943
    5      C       2.5703042704    -3.3283771747    -2.1540047167
    6      C       1.8984247046    -2.2347387687    -1.6257217567
    7      C       0.4221282298    -2.3621789685    -1.2164617978
    8      C      -0.1335351860    -1.6366583885    -0.1346004128
    9      C      -0.5191503928    -3.1446188556    -1.8553799286
   10      N      -1.4270881925    -1.7631428689     0.3307836174
   11      N      -0.2452880184    -3.7577952919    -3.0172973344
   12      C      -1.8541095832    -3.3082661544    -1.4391329807
   13      C      -2.3010115390    -2.5990553085    -0.2969562790
   14      S      -1.5559944701    -4.5957051863    -3.4046739034
   15      N      -2.5542131378    -4.1844676528    -2.1816529785
   16      C      -3.6693161536    -2.7119259104     0.2626182996
   17      S      -4.8585560084    -3.9676948532    -0.0725502101
   18      C      -4.2413588433    -1.6810522029     1.0102803625
   19      C      -6.0719406491    -3.1252487366     0.8032233076
   20      S      -3.5369237650    -0.1510864202     1.5731381816
   21      C      -5.5541296205    -1.9604154506     1.2911630112
   22      C      -7.3638767447    -3.6453131807     1.0188690793
   23      C      -5.0836687306     0.1437039128     2.3660742893
   24      C      -6.0759536077    -0.8607336588     2.0983022081
   25      N      -7.9831212136    -3.2049607442     2.0677065403
   26      S      -8.2071148426    -4.9463292290     0.2384136019
   27      C      -9.2757804757    -3.7242932787     2.1683830060
   28      C      -9.6187438656    -4.6609838962     1.2270138965
   29      C       5.9368838305    -2.1931259433    -3.1880780737
   30      H       4.6878721370    -0.2607856547    -1.8420967222
   31      H       2.1888440055    -0.2260934659    -1.0869855713
   32      H       2.0189655805    -4.2535857358    -2.3160780564
   33      H       0.3501586105    -0.7821099551     0.3360961839
   34      H      -5.2327504169     1.1138270789     2.8235168468
   35      H      -7.1292054046    -0.7706435645     2.3375540153
   36      H      -9.8653851191    -3.3822308451     3.0091181939
   37      H     -10.5118370203    -5.1733088633     0.8943327503
   38      H       6.1483197646    -3.0511343551    -3.8381114659
   39      C       7.0379513764    -2.0940684726    -2.1846863870
   40      H       6.0079327877    -1.2860034486    -3.8014456838
   41      H       7.0637591513    -1.0871430353    -1.7486977144
   42      H       7.9650557043    -2.0390913652    -2.7677482043
   43      C       6.9731294269    -3.1857718455    -1.1092093484
   44      H       6.6386109656    -4.1102722089    -1.5957630218
   45      C       6.2141366673    -3.0009133056     0.2011071443
   46      H       7.9901926101    -3.3422024973    -0.7294819034
   47      H       5.2096562606    -2.6246276345    -0.0283557200
   48      H       6.6550939240    -2.2390177746     0.8549403781
   49      C       6.0855156361    -4.3211799280     1.0429466042
   50      H       5.5445519595    -4.0693880176     1.9633704927
   51      C       7.4975440345    -4.9795112843     1.4393222180
   52      H       5.4431338931    -5.0431844476     0.5243830401
   53      H       7.3115862019    -5.8290584192     2.1072977790
   54      H       8.0805824928    -4.1579433522     1.8740615525
   55      H       8.0327027565    -5.4694933841     0.6162622663
   56      C       6.4343116559     1.1110905527     2.8140775313
   57      C       5.5442144326     0.1009267156     2.4034317531
   58      N       6.1457838501     2.3986994986     2.5046911904
   59      C       4.2546591379     0.3981117164     1.9045688289
   60      C       5.0257713525     2.7613439908     1.9250180260
   61      C       4.0137423875     1.7954982379     1.5793688460
   62      C       2.7072421905     2.2388011852     0.9722265792
   63      C       2.5546264736     3.2594150570     0.0344490110
   64      C       1.4911673549     1.7457199688     1.5357990310
   65      N       1.3825795108     3.6901064462    -0.4733490238
   66      N       1.3991463973     0.8472928236     2.5677960311
   67      C       0.2677092685     2.3112008308     1.1159708454
   68      C       0.2119454686     3.2542321863     0.0760284137
   69      S      -0.1994624556     0.8180139091     2.9529303977
   70      N      -0.7656596135     1.8029073259     1.8060704516
   71      C      -1.0410424318     3.8046479789    -0.4482508790
   72      S      -2.6914030820     3.3008429695     0.1027983356
   73      C      -1.2047884231     4.9454936942    -1.1707183898
   74      C      -3.5696462854     4.4631912146    -0.9657925275
   75      S      -0.0183481173     6.0577067894    -1.8511604754
   76      C      -2.5329398948     5.2491610126    -1.4867007117
   77      C      -4.9541581565     4.7209164758    -0.9608358634
   78      C      -1.3417047171     7.0541415971    -2.4151170197
   79      C      -2.6005170492     6.4782595431    -2.2164480177
   80      N      -5.5211861346     5.6858213440    -1.6898193114
   81      S      -6.0011196640     3.7752971273     0.0937762215
   82      C      -6.9003871470     5.6303033878    -1.4444515795
   83      C      -7.3115103444     4.5931226514    -0.6490115525
   84      C       7.7782759488     0.8225347095     3.4993464600
   85      H       5.7671176063    -0.9347380958     2.6457467827
   86      H       3.4974064608    -0.3558742905     1.7136984948
   87      H       4.9495096872     3.8191623701     1.6801559529
   88      H       3.4463586563     3.7101031107    -0.3984840006
   89      H      -1.1176746200     7.8987341564    -3.0539557508
   90      H      -3.5046855561     6.9481645754    -2.5853308876
   91      H      -7.5079997084     6.3328887521    -1.9982112576
   92      H      -8.2947579303     4.1835117356    -0.4571233494
   93      H       8.3218793414     1.7401279091     3.7552450173
   94      C       8.7142610507    -0.0237839746     2.6726188302
   95      H       7.5893196561     0.4270131265     4.5051989327
   96      H       8.1813134060    -0.9139101100     2.3154532229
   97      H       9.4822287666    -0.3885600578     3.3659138586
   98      C       9.2478093379     0.7081117301     1.4568668396
   99      H       9.2804919631     1.7939257501     1.6081340202
  100      C       8.4876024061     0.3466160113     0.1348198411
  101      H      10.3005334680     0.4013881242     1.4902514995
  102      H       7.4033832542     0.3812633877     0.2938399340
  103      H       8.6601005266    -0.7051540515    -0.1239409234
  104      C       9.0586293872     1.1814674735    -1.0507914877
  105      H       8.2865840590     1.4100838513    -1.7952715499
  106      C      10.3307193950     0.6129411350    -1.6525437744
  107      H       9.2644143363     2.1771662292    -0.6374120704
  108      H      11.0308326278     0.1541000623    -0.9439992583
  109      H      10.8685000021     1.3012263127    -2.3168701496
  110      H      10.1384875563    -0.2658162163    -2.2802430955
 ----------------------------------------------------------------

   10   -5663.5171049505      4.18E-06 Convergence criterion met
 Total energy in the final basis set = -5663.5171049505

                    Orbital Energies (a.u.)
 --------------------------------------------------------------

 Alpha MOs
 -- Occupied --
-88.992 -88.988 -88.928 -88.925 -88.923 -88.921 -88.911 -88.909
-14.386 -14.386 -14.383 -14.378 -14.354 -14.354 -14.348 -14.338
-14.328 -14.325 -10.270 -10.267 -10.265 -10.265 -10.259 -10.256
-10.255 -10.254 -10.246 -10.245 -10.244 -10.242 -10.241 -10.236
-10.235 -10.234 -10.234 -10.233 -10.230 -10.230 -10.230 -10.229
-10.229 -10.227 -10.227 -10.226 -10.223 -10.221 -10.220 -10.219
-10.216 -10.213 -10.211 -10.206 -10.202 -10.202 -10.202 -10.194
-10.185 -10.183 -10.181 -10.181 -10.180 -10.180 -10.179 -10.176
-10.176 -10.175 -10.173 -10.173  -8.047  -8.044  -7.988  -7.987
 -7.985  -7.979  -7.969  -7.969  -6.012  -6.009  -6.006  -6.005
 -6.004  -6.002  -5.952  -5.951  -5.949  -5.948  -5.948  -5.945
 -5.944  -5.944  -5.944  -5.942  -5.940  -5.935  -5.934  -5.934
 -5.930  -5.930  -5.926  -5.926  -1.046  -1.038  -0.977  -0.966
 -0.958  -0.950  -0.939  -0.932  -0.916  -0.910  -0.909  -0.902
 -0.843  -0.839  -0.835  -0.830  -0.814  -0.813  -0.813  -0.811
 -0.809  -0.804  -0.795  -0.793  -0.783  -0.777  -0.770  -0.768
 -0.750  -0.748  -0.740  -0.739  -0.726  -0.719  -0.708  -0.705
 -0.695  -0.694  -0.676  -0.675  -0.659  -0.656  -0.647  -0.646
 -0.640  -0.639  -0.628  -0.626  -0.617  -0.615  -0.600  -0.596
 -0.594  -0.593  -0.585  -0.583  -0.577  -0.576  -0.572  -0.557
 -0.553  -0.553  -0.540  -0.539  -0.526  -0.524  -0.518  -0.516
 -0.507  -0.505  -0.501  -0.500  -0.489  -0.485  -0.480  -0.476
 -0.474  -0.472  -0.472  -0.470  -0.465  -0.464  -0.450  -0.446
 -0.445  -0.444  -0.440  -0.435  -0.435  -0.434  -0.432  -0.429
 -0.429  -0.429  -0.425  -0.423  -0.422  -0.420  -0.417  -0.412
 -0.411  -0.409  -0.404  -0.401  -0.401  -0.399  -0.398  -0.397
 -0.395  -0.393  -0.390  -0.389  -0.388  -0.386  -0.384  -0.381
 -0.380  -0.377  -0.375  -0.372  -0.371  -0.368  -0.361  -0.356
 -0.354  -0.352  -0.352  -0.350  -0.349  -0.344  -0.343  -0.340
 -0.338  -0.336  -0.335  -0.335  -0.329  -0.329  -0.319  -0.315
 -0.313  -0.313  -0.312  -0.308  -0.305  -0.304  -0.304  -0.300
 -0.299  -0.295  -0.293  -0.290  -0.289  -0.283  -0.282  -0.278
 -0.277  -0.275  -0.268  -0.263  -0.256  -0.252  -0.249  -0.246
 -0.245  -0.241  -0.233  -0.231  -0.195  -0.194

          Ground-State Mulliken Net Atomic Charges

     Atom                 Charge (a.u.)
  ----------------------------------------
      1 C                     0.305917
      2 C                    -0.132689
      3 N                    -0.496416
      4 C                    -0.097846
      5 C                     0.060019
      6 C                     0.092271
      7 C                     0.054591
      8 C                     0.042741
      9 C                     0.198270
     10 N                    -0.538142
     11 N                    -0.533138
     12 C                     0.217668
     13 C                     0.301057
     14 S                     0.606677
     15 N                    -0.569647
     16 C                    -0.223954
     17 S                     0.329394
     18 C                    -0.128354
     19 C                    -0.221123
     20 S                     0.327892
     21 C                     0.179489
     22 C                     0.059935
     23 C                    -0.327235
     24 C                    -0.064387
     25 N                    -0.428421
     26 S                     0.252472
     27 C                     0.113177
     28 C                    -0.308319
     29 C                    -0.241380
     30 H                     0.094489
     31 H                     0.096481
     32 H                     0.109909
     33 H                     0.101346
     34 H                     0.130479
     35 H                     0.110534
     36 H                     0.113536
     37 H                     0.149563
     38 H                     0.118990
     39 C                    -0.197289
     40 H                     0.107454
     41 H                     0.101410
     42 H                     0.101161
     43 C                    -0.170684
     44 H                     0.106302
     45 C                    -0.193913
     46 H                     0.092275
     47 H                     0.097079
     48 H                     0.090405
     49 C                    -0.188342
     50 H                     0.089444
     51 C                    -0.323008
     52 H                     0.102611
     53 H                     0.101543
     54 H                     0.103880
     55 H                     0.110394
     56 C                     0.275252
     57 C                    -0.134579
     58 N                    -0.467290
     59 C                    -0.049492
     60 C                     0.087023
     61 C                    -0.001795
     62 C                     0.021899
     63 C                     0.050631
     64 C                     0.219121
     65 N                    -0.531635
     66 N                    -0.569618
     67 C                     0.215367
     68 C                     0.319983
     69 S                     0.645572
     70 N                    -0.574176
     71 C                    -0.229924
     72 S                     0.323934
     73 C                    -0.104081
     74 C                    -0.220690
     75 S                     0.287724
     76 C                     0.135585
     77 C                     0.071330
     78 C                    -0.307360
     79 C                    -0.068346
     80 N                    -0.445647
     81 S                     0.277078
     82 C                     0.120013
     83 C                    -0.306098
     84 C                    -0.224767
     85 H                     0.094891
     86 H                     0.122669
     87 H                     0.104493
     88 H                     0.114522
     89 H                     0.129120
     90 H                     0.128857
     91 H                     0.114246
     92 H                     0.138748
     93 H                     0.118231
     94 C                    -0.199623
     95 H                     0.103099
     96 H                     0.100394
     97 H                     0.091816
     98 C                    -0.173651
     99 H                     0.106576
    100 C                    -0.192921
    101 H                     0.095098
    102 H                     0.105705
    103 H                     0.100604
    104 C                    -0.175865
    105 H                     0.086890
    106 C                    -0.324644
    107 H                     0.098937
    108 H                     0.106843
    109 H                     0.103088
    110 H                     0.100294
  ----------------------------------------
  Sum of atomic charges =     0.000000

                    Cartesian Multipole Moments
 -----------------------------------------------------------------
    Charge (ESU x 10^10)
                 0.0000
    Dipole Moment (Debye)
         X      -3.2047      Y      -0.5365      Z       0.4177
       Tot       3.2760
    Quadrupole Moments (Debye-Ang)
        XX    -382.8861     XY       1.9636     YY    -442.1662
        XZ      -0.3122     YZ      -5.4292     ZZ    -449.1543

 Total job time:  106.36s(wall), 1193.71s(cpu)
        *  Thank you very much for using Q-Chem.  Have a nice day.  *
