 Q-Chem 4.4, Q-Chem, Inc., Pleasanton, CA (2016)
 Q-Chem 4.4.2 for Intel X86 Linux

User input:
--------------------------------------------------------------
$comment
SP
$end

$rem
MEM_STATIC 5000
MEM_TOTAL 20000
JOBTYPE SP
EXCHANGE B3LYP
BASIS 6-31g(d,p)
$end

$molecule
0 1
C         -10.666000      8.941000      0.122000
C          -9.790000      9.360000     -0.850000
N         -10.202000      8.335000      1.226000
C          -8.464000      8.857000     -0.801000
C          -8.921000      7.926000      1.230000
C          -7.966000      8.168000      0.297000
C          -6.531000      7.747000      0.351000
C          -5.526000      8.474000     -0.316000
C          -6.004000      6.713000      1.207000
N          -4.198000      8.278000     -0.271000
N          -6.795000      5.901000      1.956000
C          -4.603000      6.490000      1.211000
C          -3.715000      7.181000      0.378000
S          -5.712000      5.051000      2.837000
N          -4.312000      5.564000      2.132000
C          -2.252000      7.136000      0.365000
S          -1.078000      8.488000      0.175000
C          -1.553000      5.900000      0.380000
C           0.230000      7.358000      0.187000
S          -2.124000      4.241000      0.395000
C          -0.164000      6.085000      0.316000
C           1.590000      7.695000     -0.194000
C          -0.373000      3.782000      0.210000
C           0.479000      4.868000      0.275000
N           1.710000      8.706000     -1.048000
S           3.080000      6.948000      0.321000
C           3.077000      9.030000     -1.263000
C           3.900000      8.314000     -0.480000
C         -12.117000      9.469000      0.319000
H         -10.168000      9.971000     -1.664000
H          -7.864000      9.148000     -1.659000
H          -8.771000      7.341000      2.136000
H          -5.810000      9.244000     -1.032000
H          -0.193000      2.719000      0.128000
H           1.530000      4.745000      0.041000
H           3.244000      9.847000     -1.952000
H           4.977000      8.423000     -0.461000
H         -11.999000     10.492000      0.696000
C         -13.108000      8.619000      1.135000
H         -12.598000      9.628000     -0.655000
H         -12.791000      8.288000      2.132000
H         -13.257000      7.715000      0.531000
C         -14.439000      9.435000      1.237000
H         -14.341000     10.492000      1.514000
C         -15.410000      8.669000      2.219000
H         -15.026000      9.481000      0.312000
H         -15.130000      8.796000      3.272000
H         -15.273000      7.583000      2.144000
C         -16.885000      8.969000      2.056000
H         -17.092000     10.020000      2.295000
C         -17.790000      8.204000      3.053000
H         -17.271000      8.848000      1.036000
H         -17.557000      8.545000      4.070000
H         -17.779000      7.120000      2.886000
H         -18.838000      8.465000      2.863000
C           3.553000     -0.644000     -3.037000
C           3.143000      0.320000     -2.112000
N           2.895000     -0.830000     -4.177000
C           1.954000      1.006000     -2.358000
C           1.845000     -0.050000     -4.449000
C           1.296000      0.890000     -3.593000
C           0.261000      1.891000     -4.016000
C           0.365000      3.203000     -3.544000
C          -0.812000      1.672000     -4.912000
N          -0.352000      4.247000     -3.983000
N          -1.032000      0.573000     -5.587000
C          -1.741000      2.712000     -5.217000
C          -1.409000      4.036000     -4.806000
S          -2.397000      0.832000     -6.445000
N          -2.723000      2.420000     -6.087000
C          -2.211000      5.270000     -5.133000
S          -3.758000      5.361000     -6.025000
C          -1.921000      6.555000     -4.648000
C          -4.040000      7.048000     -5.540000
S          -0.658000      7.166000     -3.608000
C          -2.954000      7.463000     -4.888000
C          -5.391000      7.650000     -5.591000
C          -1.425000      8.752000     -3.722000
C          -2.648000      8.759000     -4.373000
N          -5.626000      8.831000     -5.082000
S          -6.858000      6.794000     -5.949000
C          -6.938000      9.208000     -5.062000
C          -7.813000      8.240000     -5.485000
C           4.786000     -1.460000     -2.796000
H           3.687000      0.392000     -1.174000
H           1.657000      1.698000     -1.577000
H           1.274000     -0.293000     -5.344000
H           1.145000      3.532000     -2.859000
H          -0.960000      9.553000     -3.162000
H          -3.342000      9.590000     -4.434000
H          -7.286000     10.143000     -4.644000
H          -8.888000      8.263000     -5.610000
H           5.602000     -0.818000     -3.150000
C           4.712000     -2.884000     -3.490000
H           4.914000     -1.669000     -1.727000
H           4.558000     -2.661000     -4.553000
H           3.772000     -3.431000     -3.343000
C           6.044000     -3.702000     -3.446000
H           6.897000     -3.021000     -3.559000
C           6.188000     -4.733000     -4.570000
H           6.147000     -4.214000     -2.481000
H           5.914000     -4.202000     -5.490000
H           5.429000     -5.507000     -4.402000
C           7.649000     -5.301000     -4.616000
H           8.480000     -4.590000     -4.691000
C           7.838000     -6.204000     -5.767000
H           7.763000     -5.886000     -3.695000
H           8.912000     -6.380000     -5.905000
H           7.434000     -5.805000     -6.705000
H           7.457000     -7.209000     -5.546000
$end

--------------------------------------------------------------

             Standard Nuclear Orientation (Angstroms)
    I     Atom           X                Y                Z
 ----------------------------------------------------------------
    1      C      -8.8839895008    -0.6246499809     0.5092313125
    2      C      -8.1438770642    -0.4569334670    -0.6361183075
    3      N      -8.4484986892    -0.1099293233     1.6697305145
    4      C      -6.8000833985    -0.0240263277    -0.4929540914
    5      C      -7.1792841084     0.3305226415     1.7276478203
    6      C      -6.2928464986     0.4545488631     0.7078812488
    7      C      -4.9014559175     0.9993635185     0.7890677147
    8      C      -4.2817889171     1.6017212709    -0.3229668831
    9      C      -4.1386116445     1.1419612698     2.0045328506
   10      N      -3.0913081767     2.2219562721    -0.3686741023
   11      N      -4.5567198367     0.6498880459     3.1999723019
   12      C      -2.8643266504     1.7612313697     1.9320877174
   13      C      -2.2847596900     2.1827000979     0.7294322183
   14      S      -3.4319986174     1.2191329348     4.2404108803
   15      N      -2.3671996130     1.8806811950     3.1686128679
   16      C      -1.0454873026     2.9348503552     0.5268564540
   17      S      -0.7141253497     4.2873562341    -0.6147245129
   18      C       0.1584363270     2.5605102698     1.1802777533
   19      C       0.9417636609     4.3041149429    -0.1190847949
   20      S       0.5238499987     1.2429294093     2.2798233526
   21      C       1.2314100330     3.3846678305     0.8099620212
   22      C       1.9873150637     5.0230519326    -0.8249756284
   23      C       2.2522801633     1.7965036880     2.1494711976
   24      C       2.3922799882     2.9595385897     1.4164808386
   25      N       1.7722983234     5.2156559417    -2.1220910809
   26      S       3.4825207992     5.6633246373    -0.1943056099
   27      C       2.7916007925     6.0261910290    -2.6912530515
   28      C       3.6554537621     6.4812578345    -1.7694362316
   29      C     -10.4014382061    -0.9674769745     0.5622697839
   30      H      -8.5781120272    -0.7549143805    -1.5855646578
   31      H      -6.2504268985    -0.0176521803    -1.4303345383
   32      H      -6.9687768831     0.5748805450     2.7676174944
   33      H      -4.7416274188     1.5085494136    -1.3058603449
   34      H       2.9604862143     1.1931394115     2.7003693181
   35      H       3.3809198615     3.3145069541     1.1498825244
   36      H       2.6756603161     6.2201705826    -3.7490945986
   37      H       4.4889255223     7.1387453909    -1.9820531125
   38      H     -10.9108705087    -0.0580412394     0.2217005945
   39      C     -10.9817285709    -1.5518444967     1.8631213095
   40      H     -10.6543025898    -1.6908583465    -0.2239216648
   41      H     -10.7828932165    -1.0090847190     2.7958245450
   42      H     -10.5055773142    -2.5358974641     1.9587912531
   43      C     -12.5237826721    -1.7080389581     1.6498293988
   44      H     -13.0437818694    -0.8462033870     1.2134553810
   45      C     -13.1687992533    -2.1342348967     3.0268666648
   46      H     -12.8185881196    -2.5295847481     0.9861560883
   47      H     -13.2462771213    -1.2977576570     3.7323034142
   48      H     -12.4862068794    -2.7708252740     3.6035904657
   49      C     -14.5065353038    -2.8378087759     2.9394592527
   50      H     -15.2676014370    -2.1657236563     2.5227448027
   51      C     -15.1008132358    -3.2192154784     4.3177268852
   52      H     -14.5277041063    -3.7085955011     2.2721367212
   53      H     -15.3175641443    -2.2973704610     4.8727762592
   54      H     -14.5023152175    -3.9754853181     4.8401463064
   55      H     -16.0583083651    -3.7325436848     4.1686556606
   56      C       8.5122276167    -0.6834177261     1.6922965480
   57      C       7.4672282484     0.2219517187     1.8955291454
   58      N       8.3264188220    -1.8097650961     1.0111382008
   59      C       6.1900034258    -0.1385406801     1.4670726328
   60      C       7.1227975493    -2.0527287676     0.4846892612
   61      C       5.9907693162    -1.2767281575     0.6692756438
   62      C       4.7225222251    -1.4630386002    -0.1111042220
   63      C       4.0325935914    -0.3287976884    -0.5497840991
   64      C       4.1524559927    -2.6921434775    -0.5190646259
   65      N       3.0099808051    -0.3268053812    -1.4163896149
   66      N       4.6852810019    -3.8751551940    -0.3505214916
   67      C       2.9248399589    -2.7293475528    -1.2465539595
   68      C       2.4321226341    -1.5002505970    -1.7744472356
   69      S       3.6214430243    -4.9458729021    -0.9736445508
   70      N       2.4612647434    -3.9393115957    -1.6037276350
   71      C       1.2164432352    -1.3626544366    -2.6554012047
   72      S       0.0948895395    -2.6541239767    -3.1763404858
   73      C       0.6914645834    -0.1374000606    -3.0955138374
   74      C      -1.1086451686    -1.4897737104    -3.7734256253
   75      S       1.1865124793     1.5178356593    -2.8401468613
   76      C      -0.5705109282    -0.2741268873    -3.6767853600
   77      C      -2.5229827296    -1.8764825345    -3.9742029866
   78      C      -0.2284951089     2.0134104870    -3.7722627959
   79      C      -1.0947915964     0.9838100078    -4.1024631125
   80      N      -3.4361641989    -0.9837738432    -4.2539131878
   81      S      -3.2216249528    -3.3983249962    -3.5171651700
   82      C      -4.7204281527    -1.4467096455    -4.2690637609
   83      C      -4.8560601441    -2.7562845583    -3.8841020604
   84      C       9.8931274385    -0.3819797837     2.1887608963
   85      H       7.6634190594     1.1003372902     2.5045545582
   86      H       5.4103872275     0.5774575397     1.7049363177
   87      H       6.9810384681    -3.0258530196     0.0166630300
   88      H       4.3529239813     0.6884057370    -0.3294397489
   89      H      -0.3800075974     3.0788545555    -3.8875836636
   90      H      -2.0781859598     1.0855370862    -4.5480022550
   91      H      -5.5812134900    -0.8184298554    -4.4544447428
   92      H      -5.7302222092    -3.3928045863    -3.8344841421
   93      H      10.3263174372     0.2471276843     1.4014196623
   94      C      10.7165115234    -1.6970065661     2.5168328554
   95      H       9.8564870542     0.1755637333     3.1324921657
   96      H      10.7230810415    -2.2564795535     1.5732435286
   97      H      10.1804379831    -2.4539747274     3.1033840997
   98      C      12.2264116610    -1.4572306582     2.8454558739
   99      H      12.6143620326    -0.6451521752     2.2176326133
  100      C      13.1311597362    -2.6617594177     2.5668622843
  101      H      12.3471269446    -1.1592733018     3.8945637016
  102      H      12.8484914410    -3.0140940183     1.5671643479
  103      H      12.8555918733    -3.4486278208     3.2798008996
  104      C      14.6420520709    -2.2509614597     2.6546711132
  105      H      14.9876720392    -1.4103621373     2.0417709447
  106      C      15.5254080608    -3.3682405737     2.2708735406
  107      H      14.8192083245    -2.0173184012     3.7117844388
  108      H      16.5376831995    -2.9780363133     2.1079757852
  109      H      15.2061444343    -3.8819973570     1.3563322871
  110      H      15.6683145407    -4.0629827152     3.1080939983
 ----------------------------------------------------------------

   10   -5663.5088818440      6.97E-06 Convergence criterion met
 Total energy in the final basis set = -5663.5088818440

                    Orbital Energies (a.u.)
 --------------------------------------------------------------

 Alpha MOs
 -- Occupied --
-88.988 -88.985 -88.933 -88.930 -88.922 -88.918 -88.914 -88.903
-14.394 -14.385 -14.384 -14.383 -14.348 -14.347 -14.343 -14.339
-14.325 -14.321 -10.274 -10.272 -10.266 -10.261 -10.259 -10.258
-10.257 -10.257 -10.244 -10.242 -10.239 -10.238 -10.237 -10.235
-10.235 -10.234 -10.233 -10.233 -10.233 -10.232 -10.229 -10.226
-10.225 -10.225 -10.224 -10.219 -10.215 -10.215 -10.213 -10.213
-10.212 -10.212 -10.207 -10.203 -10.199 -10.198 -10.198 -10.189
-10.186 -10.186 -10.180 -10.180 -10.175 -10.174 -10.174 -10.174
-10.173 -10.172 -10.170 -10.164  -8.043  -8.041  -7.994  -7.988
 -7.983  -7.977  -7.974  -7.962  -6.009  -6.006  -6.003  -6.001
 -6.000  -5.998  -5.958  -5.955  -5.952  -5.950  -5.948  -5.947
 -5.944  -5.944  -5.942  -5.940  -5.939  -5.938  -5.935  -5.934
 -5.930  -5.927  -5.923  -5.918  -1.043  -1.036  -0.972  -0.963
 -0.956  -0.955  -0.946  -0.941  -0.918  -0.916  -0.908  -0.904
 -0.847  -0.836  -0.834  -0.834  -0.807  -0.805  -0.801  -0.801
 -0.800  -0.796  -0.796  -0.793  -0.787  -0.781  -0.768  -0.768
 -0.754  -0.751  -0.748  -0.742  -0.728  -0.716  -0.711  -0.710
 -0.697  -0.693  -0.677  -0.675  -0.655  -0.652  -0.645  -0.643
 -0.637  -0.633  -0.625  -0.623  -0.609  -0.606  -0.601  -0.599
 -0.595  -0.587  -0.583  -0.579  -0.578  -0.576  -0.572  -0.569
 -0.553  -0.549  -0.541  -0.538  -0.524  -0.521  -0.520  -0.512
 -0.509  -0.509  -0.505  -0.496  -0.484  -0.483  -0.480  -0.474
 -0.473  -0.470  -0.469  -0.465  -0.462  -0.458  -0.449  -0.449
 -0.448  -0.448  -0.447  -0.438  -0.435  -0.432  -0.431  -0.430
 -0.429  -0.425  -0.424  -0.418  -0.416  -0.415  -0.413  -0.412
 -0.411  -0.410  -0.407  -0.404  -0.400  -0.399  -0.396  -0.394
 -0.394  -0.393  -0.391  -0.388  -0.388  -0.387  -0.385  -0.381
 -0.375  -0.369  -0.368  -0.366  -0.366  -0.362  -0.362  -0.356
 -0.355  -0.354  -0.349  -0.348  -0.346  -0.345  -0.343  -0.338
 -0.336  -0.332  -0.332  -0.329  -0.328  -0.323  -0.320  -0.319
 -0.318  -0.313  -0.309  -0.309  -0.302  -0.301  -0.298  -0.296
 -0.296  -0.294  -0.289  -0.288  -0.286  -0.285  -0.283  -0.275
 -0.273  -0.271  -0.270  -0.269  -0.260  -0.253  -0.248  -0.248
 -0.246  -0.242  -0.236  -0.230  -0.199  -0.193

          Ground-State Mulliken Net Atomic Charges

     Atom                 Charge (a.u.)
  ----------------------------------------
      1 C                     0.246337
      2 C                    -0.113804
      3 N                    -0.466518
      4 C                    -0.116969
      5 C                     0.048257
      6 C                     0.099638
      7 C                     0.060373
      8 C                     0.053097
      9 C                     0.193302
     10 N                    -0.499572
     11 N                    -0.546844
     12 C                     0.248200
     13 C                     0.256296
     14 S                     0.603216
     15 N                    -0.553599
     16 C                    -0.213746
     17 S                     0.357437
     18 C                    -0.123346
     19 C                    -0.209459
     20 S                     0.267700
     21 C                     0.184325
     22 C                     0.048110
     23 C                    -0.304839
     24 C                    -0.083557
     25 N                    -0.437133
     26 S                     0.264088
     27 C                     0.127402
     28 C                    -0.306775
     29 C                    -0.230574
     30 H                     0.084837
     31 H                     0.098634
     32 H                     0.117258
     33 H                     0.107898
     34 H                     0.133615
     35 H                     0.106118
     36 H                     0.124442
     37 H                     0.129893
     38 H                     0.118712
     39 C                    -0.166200
     40 H                     0.091522
     41 H                     0.123402
     42 H                     0.100777
     43 C                    -0.184588
     44 H                     0.094469
     45 C                    -0.171972
     46 H                     0.092091
     47 H                     0.089320
     48 H                     0.090566
     49 C                    -0.183409
     50 H                     0.090191
     51 C                    -0.320873
     52 H                     0.088440
     53 H                     0.105051
     54 H                     0.102212
     55 H                     0.096441
     56 C                     0.280997
     57 C                    -0.115788
     58 N                    -0.482302
     59 C                    -0.098653
     60 C                     0.066856
     61 C                     0.054195
     62 C                     0.054504
     63 C                     0.053149
     64 C                     0.233118
     65 N                    -0.518370
     66 N                    -0.550355
     67 C                     0.197426
     68 C                     0.306926
     69 S                     0.587643
     70 N                    -0.545327
     71 C                    -0.240182
     72 S                     0.294384
     73 C                    -0.093473
     74 C                    -0.245811
     75 S                     0.306057
     76 C                     0.156678
     77 C                     0.073290
     78 C                    -0.320733
     79 C                    -0.038106
     80 N                    -0.442868
     81 S                     0.253706
     82 C                     0.130791
     83 C                    -0.314972
     84 C                    -0.235337
     85 H                     0.086970
     86 H                     0.089464
     87 H                     0.119852
     88 H                     0.109369
     89 H                     0.141317
     90 H                     0.126725
     91 H                     0.114345
     92 H                     0.138076
     93 H                     0.122206
     94 C                    -0.190560
     95 H                     0.103273
     96 H                     0.120128
     97 H                     0.097347
     98 C                    -0.178104
     99 H                     0.088959
    100 C                    -0.175768
    101 H                     0.084885
    102 H                     0.092632
    103 H                     0.093600
    104 C                    -0.171396
    105 H                     0.094200
    106 C                    -0.312188
    107 H                     0.094208
    108 H                     0.090858
    109 H                     0.102960
    110 H                     0.099314
  ----------------------------------------
  Sum of atomic charges =     0.000000

                    Cartesian Multipole Moments
 -----------------------------------------------------------------
    Charge (ESU x 10^10)
                 0.0000
    Dipole Moment (Debye)
         X       0.2182      Y       1.5352      Z       0.2990
       Tot       1.5792
    Quadrupole Moments (Debye-Ang)
        XX    -427.1977     XY      32.9723     YY    -431.0844
        XZ      23.6211     YZ      -1.3564     ZZ    -443.5438

 Total job time:  99.51s(wall), 1084.30s(cpu)
        *  Thank you very much for using Q-Chem.  Have a nice day.  *
