 Q-Chem 4.4, Q-Chem, Inc., Pleasanton, CA (2016)
 Q-Chem 4.4.2 for Intel X86 Linux

User input:
--------------------------------------------------------------
$comment
SP
$end

$rem
MEM_STATIC 5000
MEM_TOTAL 20000
JOBTYPE SP
EXCHANGE B3LYP
BASIS 6-31g(d,p)
$end

$molecule
0 1
C         -11.630000      6.888000     -2.764000
C         -11.740000      6.266000     -1.534000
N         -10.425000      6.943000     -3.341000
C         -10.729000      5.483000     -0.993000
C          -9.346000      6.294000     -2.790000
C          -9.408000      5.514000     -1.626000
C          -8.239000      4.674000     -1.233000
C          -8.391000      3.547000     -0.440000
C          -6.925000      4.880000     -1.703000
N          -7.411000      2.676000     -0.198000
N          -6.496000      5.960000     -2.356000
C          -5.895000      4.031000     -1.383000
C          -6.144000      2.881000     -0.654000
S          -4.896000      5.892000     -2.445000
N          -4.668000      4.478000     -1.635000
C          -5.190000      1.888000     -0.257000
S          -3.712000      1.400000     -1.094000
C          -5.313000      1.188000      0.929000
C          -3.351000      0.160000      0.175000
S          -6.532000      1.424000      2.187000
C          -4.343000      0.231000      1.137000
C          -2.182000     -0.676000      0.219000
C          -5.718000      0.033000      2.964000
C          -4.586000     -0.417000      2.345000
N          -2.078000     -1.617000      1.135000
S          -0.899000     -0.498000     -0.960000
C          -0.872000     -2.308000      0.907000
C          -0.218000     -1.941000     -0.219000
C         -12.803000      7.720000     -3.355000
H         -12.681000      6.232000     -0.994000
H         -10.913000      5.015000     -0.030000
H          -8.465000      6.127000     -3.409000
H          -9.332000      3.396000      0.087000
H          -6.100000     -0.352000      3.900000
H          -3.961000     -1.242000      2.669000
H          -0.650000     -3.196000      1.483000
H           0.653000     -2.374000     -0.694000
H         -12.859000      8.625000     -2.737000
C         -14.160000      7.050000     -3.059000
H         -12.656000      7.958000     -4.416000
H         -14.882000      7.554000     -3.713000
H         -14.558000      7.114000     -2.039000
C         -14.238000      5.626000     -3.590000
H         -13.863000      5.581000     -4.620000
C         -15.705000      5.099000     -3.484000
H         -13.604000      4.976000     -2.976000
H         -16.403000      5.800000     -3.957000
H         -16.091000      5.023000     -2.459000
C         -15.800000      3.704000     -4.155000
H         -15.483000      3.679000     -5.205000
C         -17.288000      3.372000     -4.015000
H         -15.131000      3.022000     -3.617000
H         -17.746000      3.418000     -3.019000
H         -17.475000      2.330000     -4.304000
H         -17.859000      4.060000     -4.650000
C           3.553000     -0.644000     -3.037000
C           3.143000      0.320000     -2.112000
N           2.895000     -0.830000     -4.177000
C           1.954000      1.006000     -2.358000
C           1.845000     -0.050000     -4.449000
C           1.296000      0.890000     -3.593000
C           0.261000      1.891000     -4.016000
C           0.365000      3.203000     -3.544000
C          -0.812000      1.672000     -4.912000
N          -0.352000      4.247000     -3.983000
N          -1.032000      0.573000     -5.587000
C          -1.741000      2.712000     -5.217000
C          -1.409000      4.036000     -4.806000
S          -2.397000      0.832000     -6.445000
N          -2.723000      2.420000     -6.087000
C          -2.211000      5.270000     -5.133000
S          -3.758000      5.361000     -6.025000
C          -1.921000      6.555000     -4.648000
C          -4.040000      7.048000     -5.540000
S          -0.658000      7.166000     -3.608000
C          -2.954000      7.463000     -4.888000
C          -5.391000      7.650000     -5.591000
C          -1.425000      8.752000     -3.722000
C          -2.648000      8.759000     -4.373000
N          -5.626000      8.831000     -5.082000
S          -6.858000      6.794000     -5.949000
C          -6.938000      9.208000     -5.062000
C          -7.813000      8.240000     -5.485000
C           4.786000     -1.460000     -2.796000
H           3.687000      0.392000     -1.174000
H           1.657000      1.698000     -1.577000
H           1.274000     -0.293000     -5.344000
H           1.145000      3.532000     -2.859000
H          -0.960000      9.553000     -3.162000
H          -3.342000      9.590000     -4.434000
H          -7.286000     10.143000     -4.644000
H          -8.888000      8.263000     -5.610000
H           5.602000     -0.818000     -3.150000
C           4.712000     -2.884000     -3.490000
H           4.914000     -1.669000     -1.727000
H           4.558000     -2.661000     -4.553000
H           3.772000     -3.431000     -3.343000
C           6.044000     -3.702000     -3.446000
H           6.897000     -3.021000     -3.559000
C           6.188000     -4.733000     -4.570000
H           6.147000     -4.214000     -2.481000
H           5.914000     -4.202000     -5.490000
H           5.429000     -5.507000     -4.402000
C           7.649000     -5.301000     -4.616000
H           8.480000     -4.590000     -4.691000
C           7.838000     -6.204000     -5.767000
H           7.763000     -5.886000     -3.695000
H           8.912000     -6.380000     -5.905000
H           7.434000     -5.805000     -6.705000
H           7.457000     -7.209000     -5.546000
$end

--------------------------------------------------------------

             Standard Nuclear Orientation (Angstroms)
    I     Atom           X                Y                Z
 ----------------------------------------------------------------
    1      C       8.6404129317     0.1563869720    -0.1610974225
    2      C       8.4603934318     1.4022663903     0.4109702787
    3      N       7.5978955691    -0.6800665434    -0.1995950251
    4      C       7.2071971883     1.9185441077     0.7123794588
    5      C       6.3488177069    -0.2735384167     0.2048581567
    6      C       6.0503749419     1.0213248278     0.6536354891
    7      C       4.6287996006     1.4259395303     0.8586244924
    8      C       4.2385943738     2.7550325226     0.8008863018
    9      C       3.5639495856     0.5149619854     1.0203228480
   10      N       2.9661158955     3.1528480050     0.8129844136
   11      N       3.6903843014    -0.7925319804     1.2468703973
   12      C       2.2591878514     0.9292901255     1.1204727826
   13      C       1.9423404597     2.2683128380     0.9702465999
   14      S       2.2496002309    -1.3768330945     1.6409242898
   15      N       1.3889258644     0.0230246487     1.5565564436
   16      C       0.6370962069     2.8573316664     1.0265339012
   17      S      -0.9079341017     2.1293795221     0.5724810178
   18      C       0.4307068195     4.1333174792     1.5174398255
   19      C      -1.7956041858     3.6538079259     0.9804538887
   20      S       1.6346399140     5.2079763394     2.2384630137
   21      C      -0.8744301797     4.5719843475     1.4526185945
   22      C      -3.2207277423     3.8341428010     0.9180425008
   23      C       0.2690667273     6.3607989082     2.3245791963
   24      C      -0.9502049355     5.8694300202     1.9517277135
   25      N      -3.7456331925     5.0221531620     1.1381757571
   26      S      -4.2827145557     2.5033832733     0.5068526571
   27      C      -5.1385478512     4.9173277796     0.9573404932
   28      C      -5.5566332734     3.7166752718     0.4948265633
   29      C      10.0586063749    -0.3670070384    -0.5247181969
   30      H       9.2801641059     2.1060985452     0.5150536081
   31      H       7.1613603803     2.9161234082     1.1401451964
   32      H       5.4849350207    -0.8684491963    -0.0900975500
   33      H       5.0024898322     3.5306686313     0.8302692130
   34      H       0.4364229622     7.3555204385     2.7154320687
   35      H      -1.8873279210     6.4152535605     1.9415703038
   36      H      -5.7473142531     5.8108865605     0.9810084657
   37      H      -6.5360435019     3.3987725723     0.1609875635
   38      H      10.5481325794    -0.5738417711     0.4353174735
   39      C      10.9377672833     0.7664397707    -1.0907035572
   40      H      10.0260091400    -1.2561390659    -1.1668674458
   41      H      11.8022956228     0.2655949286    -1.5432090206
   42      H      11.3341538330     1.5130027910    -0.3918320670
   43      C      10.3204834920     1.4317232919    -2.3122515740
   44      H       9.9532076768     0.6740677843    -3.0155414198
   45      C      11.3614540744     2.3861982158    -2.9803921778
   46      H       9.4632461610     2.0386639867    -1.9988522257
   47      H      12.3014427315     1.8568403723    -3.1766970376
   48      H      11.6807496981     3.2274215290    -2.3512732367
   49      C      10.7707322723     2.9488699566    -4.2993839384
   50      H      10.4636657603     2.1856533201    -5.0252107242
   51      C      11.9234882322     3.7990388613    -4.8400636315
   52      H       9.8663022735     3.5168985587    -4.0514345798
   53      H      12.3636988469     4.5642206765    -4.1884445676
   54      H      11.5876062017     4.3956885028    -5.6976453868
   55      H      12.7430769895     3.1301519672    -5.1289833292
   56      C      -8.2997109878    -0.3132645367     0.2139639774
   57      C      -7.4660082934    -0.2385168183     1.3330589671
   58      N      -7.8273786172    -0.6734655384    -0.9752867826
   59      C      -6.0978266513    -0.4372645386     1.1502712818
   60      C      -6.5371114278    -1.0029317685    -1.0827418105
   61      C      -5.5936700995    -0.9056678153    -0.0736852295
   62      C      -4.2137940679    -1.4875895972    -0.1709692322
   63      C      -3.6735892388    -2.1230237746     0.9512366975
   64      C      -3.3884023867    -1.5213534555    -1.3197488345
   65      N      -2.5531511104    -2.8586733096     0.9648073398
   66      N      -3.7284160937    -1.1188866392    -2.5173452360
   67      C      -2.0813419858    -2.0931046077    -1.2711717998
   68      C      -1.7368828677    -2.8573145193    -0.1181530979
   69      S      -2.4181996092    -1.3507800733    -3.4639328965
   70      N      -1.3703050393    -2.0930793897    -2.4117481716
   71      C      -0.4495386231    -3.6213616705     0.0603566960
   72      S       0.9402577716    -3.6945551170    -1.0622575301
   73      C      -0.0855462436    -4.2968352162     1.2358544786
   74      C       1.9985498142    -4.4397697582     0.1565086867
   75      S      -0.8892487762    -4.5080858649     2.7719291521
   76      C       1.2511773116    -4.6996732724     1.2291733620
   77      C       3.4722702306    -4.3991052813     0.0272781387
   78      C       0.5381359612    -5.3903386183     3.3204579941
   79      C       1.6068020644    -5.3693730061     2.4389296606
   80      N       4.2488352881    -4.7997296663     0.9996534847
   81      S       4.3494447426    -3.5140589628    -1.1811286181
   82      C       5.5823063933    -4.5740398717     0.8131275397
   83      C       5.8845687446    -3.8661232464    -0.3222444357
   84      C      -9.7685222046    -0.0445335313     0.3348079100
   85      H      -7.8954892397     0.1123807010     2.2676075468
   86      H      -5.4951711698    -0.3083756051     2.0431475405
   87      H      -6.1645820346    -1.1998359948    -2.0870154669
   88      H      -4.1922717755    -2.1932931582     1.9061694908
   89      H       0.5191032750    -5.7498473998     4.3411524601
   90      H       2.6115666973    -5.7275832506     2.6339974777
   91      H       6.3397677416    -4.8235447505     1.5439165800
   92      H       6.8389135310    -3.5753300218    -0.7422972053
   93      H     -10.1861578321    -1.0014432619     0.6713197972
   94      C     -10.3918697226     0.5158428500    -1.0114105652
   95      H      -9.9638354773     0.7311203624     1.0851676655
   96      H     -10.1669367450    -0.2562487560    -1.7575296626
   97      H      -9.8232182481     1.3208582192    -1.4941151913
   98      C     -11.9517702669     0.6253512083    -1.0128976715
   99      H     -12.3796217224    -0.2185402089    -0.4570834868
  100      C     -12.5865420977     0.5656066616    -2.4059404964
  101      H     -12.2708997003     1.5512857546    -0.5181455916
  102      H     -12.1072918468    -0.2833809437    -2.9089079337
  103      H     -12.2847471857     1.4743041184    -2.9412626079
  104      C     -14.1423332865     0.4006176310    -2.2984537677
  105      H     -14.5359694907    -0.4317818108    -1.7035851201
  106      C     -14.7561935123     0.2199976272    -3.6275448245
  107      H     -14.5065590166     1.3446223698    -1.8745945095
  108      H     -15.7865691205    -0.1326983125    -3.4955308856
  109      H     -14.2257122468    -0.5034318156    -4.2580212065
  110      H     -14.8959001081     1.1847127805    -4.1313639788
 ----------------------------------------------------------------

   10   -5663.5291362855      7.03E-06 Convergence criterion met
 Total energy in the final basis set = -5663.5291362855

                    Orbital Energies (a.u.)
 --------------------------------------------------------------

 Alpha MOs
 -- Occupied --
-88.987 -88.983 -88.925 -88.923 -88.921 -88.920 -88.912 -88.906
-14.396 -14.386 -14.377 -14.371 -14.352 -14.343 -14.341 -14.339
-14.330 -14.327 -10.272 -10.270 -10.265 -10.260 -10.260 -10.253
-10.250 -10.247 -10.244 -10.241 -10.240 -10.238 -10.235 -10.234
-10.233 -10.232 -10.228 -10.228 -10.228 -10.228 -10.226 -10.224
-10.223 -10.222 -10.222 -10.221 -10.221 -10.219 -10.217 -10.217
-10.217 -10.213 -10.206 -10.199 -10.199 -10.197 -10.196 -10.195
-10.191 -10.185 -10.184 -10.180 -10.179 -10.177 -10.176 -10.175
-10.175 -10.175 -10.172 -10.164  -8.043  -8.038  -7.984  -7.982
 -7.981  -7.981  -7.972  -7.966  -6.008  -6.003  -6.003  -6.000
 -5.998  -5.996  -5.948  -5.946  -5.945  -5.945  -5.944  -5.943
 -5.942  -5.942  -5.941  -5.939  -5.938  -5.938  -5.936  -5.933
 -5.930  -5.928  -5.927  -5.922  -1.045  -1.043  -0.970  -0.963
 -0.959  -0.958  -0.948  -0.933  -0.921  -0.915  -0.910  -0.903
 -0.844  -0.838  -0.837  -0.831  -0.812  -0.808  -0.808  -0.802
 -0.801  -0.798  -0.794  -0.792  -0.789  -0.786  -0.769  -0.768
 -0.753  -0.751  -0.745  -0.741  -0.723  -0.719  -0.714  -0.711
 -0.697  -0.695  -0.678  -0.674  -0.657  -0.653  -0.645  -0.644
 -0.639  -0.637  -0.625  -0.622  -0.612  -0.608  -0.595  -0.593
 -0.589  -0.587  -0.585  -0.584  -0.578  -0.577  -0.573  -0.571
 -0.557  -0.553  -0.541  -0.538  -0.525  -0.524  -0.514  -0.510
 -0.509  -0.507  -0.497  -0.497  -0.487  -0.486  -0.483  -0.476
 -0.474  -0.473  -0.472  -0.467  -0.466  -0.464  -0.451  -0.450
 -0.450  -0.446  -0.438  -0.436  -0.435  -0.433  -0.430  -0.430
 -0.429  -0.426  -0.424  -0.420  -0.419  -0.418  -0.417  -0.412
 -0.412  -0.409  -0.408  -0.402  -0.400  -0.398  -0.396  -0.396
 -0.395  -0.393  -0.392  -0.392  -0.388  -0.386  -0.383  -0.381
 -0.375  -0.374  -0.370  -0.368  -0.366  -0.365  -0.360  -0.358
 -0.357  -0.356  -0.353  -0.351  -0.349  -0.347  -0.341  -0.341
 -0.338  -0.337  -0.335  -0.334  -0.331  -0.329  -0.324  -0.321
 -0.321  -0.320  -0.311  -0.306  -0.304  -0.300  -0.298  -0.296
 -0.296  -0.292  -0.290  -0.285  -0.283  -0.282  -0.280  -0.279
 -0.273  -0.272  -0.270  -0.267  -0.256  -0.251  -0.250  -0.248
 -0.246  -0.242  -0.236  -0.227  -0.198  -0.190

          Ground-State Mulliken Net Atomic Charges

     Atom                 Charge (a.u.)
  ----------------------------------------
      1 C                     0.288379
      2 C                    -0.110242
      3 N                    -0.526695
      4 C                    -0.086574
      5 C                     0.082760
      6 C                     0.037341
      7 C                     0.077287
      8 C                     0.058428
      9 C                     0.224309
     10 N                    -0.525027
     11 N                    -0.558905
     12 C                     0.187631
     13 C                     0.264627
     14 S                     0.630332
     15 N                    -0.562973
     16 C                    -0.188803
     17 S                     0.296764
     18 C                    -0.118244
     19 C                    -0.246621
     20 S                     0.278138
     21 C                     0.196494
     22 C                     0.078687
     23 C                    -0.304624
     24 C                    -0.060564
     25 N                    -0.456201
     26 S                     0.259601
     27 C                     0.120534
     28 C                    -0.303710
     29 C                    -0.218898
     30 H                     0.084855
     31 H                     0.101038
     32 H                     0.131625
     33 H                     0.104186
     34 H                     0.118316
     35 H                     0.127069
     36 H                     0.114011
     37 H                     0.135325
     38 H                     0.119648
     39 C                    -0.201313
     40 H                     0.114836
     41 H                     0.096038
     42 H                     0.096390
     43 C                    -0.172030
     44 H                     0.094915
     45 C                    -0.173131
     46 H                     0.095928
     47 H                     0.087665
     48 H                     0.091302
     49 C                    -0.172595
     50 H                     0.098096
     51 C                    -0.320864
     52 H                     0.096472
     53 H                     0.101166
     54 H                     0.090869
     55 H                     0.105028
     56 C                     0.276251
     57 C                    -0.119119
     58 N                    -0.481550
     59 C                    -0.098024
     60 C                     0.065681
     61 C                     0.050249
     62 C                     0.061358
     63 C                     0.055053
     64 C                     0.236795
     65 N                    -0.522129
     66 N                    -0.550796
     67 C                     0.200838
     68 C                     0.311131
     69 S                     0.595145
     70 N                    -0.546898
     71 C                    -0.240972
     72 S                     0.293964
     73 C                    -0.089593
     74 C                    -0.245574
     75 S                     0.289101
     76 C                     0.148424
     77 C                     0.069142
     78 C                    -0.321797
     79 C                    -0.040603
     80 N                    -0.446946
     81 S                     0.246132
     82 C                     0.133467
     83 C                    -0.300304
     84 C                    -0.234786
     85 H                     0.091162
     86 H                     0.105631
     87 H                     0.120693
     88 H                     0.113065
     89 H                     0.128190
     90 H                     0.132594
     91 H                     0.120563
     92 H                     0.158515
     93 H                     0.124268
     94 C                    -0.190922
     95 H                     0.103190
     96 H                     0.121193
     97 H                     0.093834
     98 C                    -0.178045
     99 H                     0.090066
    100 C                    -0.176042
    101 H                     0.084918
    102 H                     0.092965
    103 H                     0.093398
    104 C                    -0.171561
    105 H                     0.094725
    106 C                    -0.312399
    107 H                     0.094355
    108 H                     0.091348
    109 H                     0.103179
    110 H                     0.099403
  ----------------------------------------
  Sum of atomic charges =     0.000000

                    Cartesian Multipole Moments
 -----------------------------------------------------------------
    Charge (ESU x 10^10)
                 0.0000
    Dipole Moment (Debye)
         X       1.8033      Y       1.1529      Z       1.5317
       Tot       2.6319
    Quadrupole Moments (Debye-Ang)
        XX    -386.2173     XY      -0.1399     YY    -447.6823
        XZ      -9.4101     YZ      -0.4360     ZZ    -441.4164

 Total job time:  104.80s(wall), 1148.47s(cpu)
        *  Thank you very much for using Q-Chem.  Have a nice day.  *
