 Q-Chem 4.4, Q-Chem, Inc., Pleasanton, CA (2016)
 Q-Chem 4.4.2 for Intel X86 Linux

User input:
--------------------------------------------------------------
$comment
SP
$end

$rem
MEM_STATIC 5000
MEM_TOTAL 20000
JOBTYPE SP
EXCHANGE B3LYP
BASIS 6-31g(d,p)
$end

$molecule
0 1
C           8.643000     18.493000     -6.994000
C           7.331000     18.106000     -6.943000
N           9.607000     17.570000     -6.936000
C           6.987000     16.849000     -6.563000
C           9.333000     16.266000     -6.707000
C           7.968000     15.816000     -6.454000
C           7.544000     14.406000     -6.205000
C           6.416000     14.161000     -5.473000
C           8.211000     13.240000     -6.709000
N           5.828000     12.961000     -5.267000
N           9.352000     13.250000     -7.466000
C           7.649000     11.981000     -6.509000
C           6.455000     11.864000     -5.737000
S           9.617000     11.699000     -7.782000
N           8.353000     11.019000     -7.152000
C           5.748000     10.613000     -5.444000
S           6.288000      8.973000     -5.848000
C           4.439000     10.508000     -4.812000
C           4.932000      8.230000     -4.956000
S           3.181000     11.713000     -4.381000
C           4.037000      9.192000     -4.649000
C           4.673000      6.870000     -4.717000
C           2.038000     10.409000     -4.145000
C           2.688000      9.181000     -4.288000
N           5.346000      6.058000     -5.483000
S           3.604000      6.116000     -3.644000
C           4.946000      4.701000     -5.269000
C           4.121000      4.540000     -4.194000
C           9.065000     19.878000     -7.183000
H           6.524000     18.804000     -7.148000
H           5.939000     16.585000     -6.452000
H          10.142000     15.553000     -6.559000
H           5.855000     14.927000     -4.940000
H           0.999000     10.605000     -3.917000
H           2.273000      8.191000     -4.134000
H           5.442000      3.970000     -5.893000
H           3.705000      3.607000     -3.837000
H           9.971000     19.931000     -7.800000
C           9.387000     20.601000     -5.870000
H           8.260000     20.419000     -7.696000
H          10.038000     19.963000     -5.259000
H           8.477000     20.789000     -5.286000
C           9.972000     22.066000     -6.196000
H          10.984000     22.008000     -6.617000
C           9.875000     23.090000     -5.055000
H           9.325000     22.437000     -7.000000
H          10.485000     22.611000     -4.279000
H           8.835000     23.152000     -4.714000
C          10.413000     24.502000     -5.327000
H          11.464000     24.448000     -5.637000
C          10.090000     25.453000     -4.232000
H           9.855000     24.915000     -6.176000
H          10.348000     25.117000     -3.220000
H           9.118000     25.897000     -3.984000
H          10.628000     26.405000     -4.315000
C           5.007000      6.112000     -9.671000
C           4.780000      4.860000     -9.242000
N           4.282000      6.592000    -10.775000
C           3.785000      4.074000     -9.798000
C           3.374000      5.819000    -11.374000
C           3.044000      4.533000    -10.883000
C           1.995000      3.719000    -11.481000
C           0.785000      4.256000    -12.097000
C           2.257000      2.355000    -11.794000
N          -0.115000      3.495000    -12.812000
N           3.353000      1.695000    -11.407000
C           1.408000      1.591000    -12.583000
C           0.162000      2.208000    -13.115000
S           3.219000      0.171000    -12.053000
N           1.852000      0.400000    -12.913000
C          -0.803000      1.515000    -14.048000
S          -0.223000      0.464000    -15.404000
C          -2.164000      1.414000    -13.854000
C          -1.912000     -0.106000    -15.572000
S          -3.218000      1.989000    -12.549000
C          -2.760000      0.511000    -14.712000
C          -2.209000     -1.016000    -16.688000
C          -4.486000      1.086000    -13.217000
C          -4.113000      0.325000    -14.364000
N          -1.120000     -1.361000    -17.417000
S          -3.669000     -1.978000    -16.975000
C          -1.454000     -2.374000    -18.312000
C          -2.754000     -2.750000    -18.235000
C           6.029000      6.959000     -9.020000
H           5.369000      4.497000     -8.405000
H           3.582000      3.105000     -9.353000
H           2.692000      6.247000    -12.108000
H           0.558000      5.305000    -11.912000
H          -5.429000      1.228000    -12.706000
H          -4.762000     -0.291000    -14.976000
H          -0.710000     -2.626000    -19.056000
H          -3.263000     -3.328000    -18.995000
H           5.769000      7.993000     -9.278000
C           7.525000      6.614000     -9.446000
H           5.815000      6.992000     -7.945000
H           7.560000      7.017000    -10.465000
H           7.683000      5.534000     -9.560000
C           8.688000      7.221000     -8.575000
H           9.661000      6.997000     -9.030000
C           8.610000      6.613000     -7.176000
H           8.600000      8.313000     -8.509000
H           8.618000      5.523000     -7.299000
H           7.637000      6.897000     -6.756000
C           9.652000      7.175000     -6.184000
H           9.652000      8.271000     -6.136000
C          11.092000      6.742000     -6.549000
H           9.465000      6.961000     -5.125000
H          11.804000      6.941000     -5.738000
H          11.419000      7.264000     -7.457000
H          11.084000      5.659000     -6.725000
$end

--------------------------------------------------------------

             Standard Nuclear Orientation (Angstroms)
    I     Atom           X                Y                Z
 ----------------------------------------------------------------
    1      C     -11.2557156139     2.9784283890     0.6989929430
    2      C     -10.3800446015     3.2388979711    -0.3203548263
    3      N     -10.9771608853     2.0126798417     1.5789509001
    4      C      -9.3800526213     2.3717858584    -0.6218803205
    5      C      -9.9097245908     1.1967146482     1.4282407139
    6      C      -9.0423355838     1.2988514078     0.2590793081
    7      C      -7.8314054990     0.4665035086    -0.0068573469
    8      C      -7.4283441992     0.2561109832    -1.2958529148
    9      C      -6.9976016221    -0.1264640408     0.9989366580
   10      N      -6.2934796302    -0.3575337938    -1.7004545678
   11      N      -7.2093097544    -0.0412170224     2.3491005786
   12      C      -5.8250051926    -0.7807881985     0.6277190533
   13      C      -5.5104788340    -0.9181472351    -0.7570244842
   14      S      -5.9653145150    -0.8320456844     2.9837247758
   15      N      -5.1135833025    -1.1709450456     1.7122307079
   16      C      -4.3170536132    -1.5756169778    -1.2993977687
   17      S      -3.0897687103    -2.4660893149    -0.3800247302
   18      C      -3.9035356587    -1.5612872851    -2.6967980554
   19      C      -2.2532398802    -2.9901209874    -1.8673240688
   20      S      -4.4736028986    -0.6583340522    -4.1390354843
   21      C      -2.7422865936    -2.2866639673    -2.9097728843
   22      C      -1.1520354388    -3.8519161848    -2.0031909740
   23      C      -3.0192572488    -1.1327796548    -4.9889420091
   24      C      -2.2753704054    -2.0100703375    -4.1965239236
   25      N      -0.4960336697    -4.0550648998    -0.8953005107
   26      S      -0.5091199562    -4.6245634590    -3.3641765992
   27      C       0.6761954839    -4.8412431967    -1.1299225405
   28      C       0.7369532375    -5.3653422040    -2.3884135917
   29      C     -12.4702661477     3.7545862114     0.9323939619
   30      H     -10.4901514538     4.1140538117    -0.9547496053
   31      H      -8.7450841914     2.5566778176    -1.4838264073
   32      H      -9.7653860762     0.3522088807     2.0996052958
   33      H      -8.0031714086     0.5521233292    -2.1719330312
   34      H      -2.8019956162    -0.7646953989    -5.9825376832
   35      H      -1.3640582490    -2.5330177367    -4.4649958427
   36      H       1.2893485871    -5.0266177215    -0.2584682631
   37      H       1.5207583645    -5.9977922681    -2.7842044954
   38      H     -12.6677552283     3.8598915015     2.0067509132
   39      C     -13.7242715772     3.1228490298     0.3169587369
   40      H     -12.3310132583     4.7543991507     0.5024431285
   41      H     -13.7571348678     2.0584653825     0.5818614653
   42      H     -13.7033484290     3.1835511646    -0.7786586565
   43      C     -15.0198517551     3.9775611838     0.7478475117
   44      H     -15.2562969125     3.8372699233     1.8104674108
   45      C     -16.2554828064     3.8105279788    -0.1494717255
   46      H     -14.6977785849     5.0202247934     0.6392773950
   47      H     -16.4636226254     2.7391374131    -0.0375920073
   48      H     -15.9771126535     4.0207892227    -1.1887143667
   49      C     -17.5097768464     4.6148300575     0.2206858456
   50      H     -17.8120600618     4.3829877845     1.2495157723
   51      C     -18.5672348037     4.5276212708    -0.8194738999
   52      H     -17.2427354457     5.6783653673     0.2029225374
   53      H     -18.8273189642     3.5137346493    -1.1480985311
   54      H     -18.5855183292     5.0000973295    -1.8093507037
   55      H     -19.5323617420     4.9291663391    -0.4879191518
   56      C       1.3170224938    -0.9323751248     1.2538427876
   57      C       2.2406227507    -1.8777904334     1.0167215954
   58      N       1.7093997521     0.4169544144     1.2400267885
   59      C       3.5386095842    -1.5489213745     0.6645393669
   60      C       2.9755161738     0.7490995636     0.9803677684
   61      C       3.9471441725    -0.2189199855     0.6301475739
   62      C       5.3087216280     0.1447262725     0.2634471077
   63      C       5.6747132110     1.3763637383    -0.4301264746
   64      C       6.4040279737    -0.5375231474     0.8650688642
   65      N       6.9748892290     1.7942196074    -0.6179689481
   66      N       6.2802235867    -1.6341051033     1.6192342889
   67      C       7.7138258241    -0.0895274659     0.7613989044
   68      C       7.9981228814     1.1440202849    -0.0220320943
   69      S       7.8159569040    -2.0171309902     2.1218895863
   70      N       8.5967470393    -0.7310367930     1.4917638206
   71      C       9.3620363799     1.7814749224    -0.1459455875
   72      S      10.4899999788     1.8918795852     1.2665861573
   73      C       9.9739041013     2.1280215301    -1.3315599177
   74      C      11.7694960251     2.3500677930     0.1009110594
   75      S       9.4580847938     1.9638624769    -3.0202127084
   76      C      11.3089180988     2.4424561413    -1.1713803250
   77      C      13.0809485072     2.7232934647     0.6509655888
   78      C      11.0171934353     2.4121126343    -3.5077668496
   79      C      11.9221819477     2.6273461801    -2.4267815060
   80      N      13.1636780982     2.6016342646     1.9980891369
   81      S      14.6181049796     2.9446315426    -0.2020129776
   82      C      14.4837736210     2.7733152055     2.4062845129
   83      C      15.3347300351     3.0170907921     1.3797604534
   84      C      -0.0802706413    -1.3033408590     1.5631166442
   85      H       1.9247701430    -2.9159371830     1.0585241858
   86      H       4.2197253641    -2.3494832926     0.3936576405
   87      H       3.2394458283     1.7896880609     0.7944088572
   88      H       4.8664643186     1.9505493105    -0.8809032004
   89      H      11.1192258219     2.5105593216    -4.5803486142
   90      H      12.9524830086     2.9573401570    -2.4959530250
   91      H      14.6533341489     2.8542481063     3.4717774002
   92      H      16.3322162664     3.4179790798     1.5025399273
   93      H      -0.6815370224    -0.4121101523     1.3451566333
   94      C      -0.3033681495    -1.8011253438     3.0600986443
   95      H      -0.4479384808    -1.9574389396     0.7634379207
   96      H      -0.2251683943    -0.8598809547     3.6168201171
   97      H       0.5316098131    -2.4160661191     3.4192916912
   98      C      -1.6624225936    -2.5241189006     3.3916259204
   99      H      -1.7354399817    -2.7220676578     4.4683871523
  100      C      -1.7128098394    -3.8364665791     2.6117838235
  101      H      -2.5188160937    -1.8961808687     3.1144112003
  102      H      -0.7989351709    -4.3911074888     2.8577503894
  103      H      -1.6732996503    -3.5786807451     1.5460585264
  104      C      -3.0310150570    -4.6229717276     2.7832966677
  105      H      -3.9227371400    -4.0150715162     2.5862965160
  106      C      -3.1837850708    -5.1930134949     4.2136909163
  107      H      -3.2077212116    -5.4211759795     2.0526182794
  108      H      -3.9914632721    -5.9327606274     4.2822190353
  109      H      -3.3764135820    -4.3768483493     4.9212541372
  110      H      -2.2467405116    -5.6997687398     4.4765133201
 ----------------------------------------------------------------

    9   -5663.4933331758      8.62E-06 Convergence criterion met
 Total energy in the final basis set = -5663.4933331758

                    Orbital Energies (a.u.)
 --------------------------------------------------------------

 Alpha MOs
 -- Occupied --
-88.993 -88.983 -88.934 -88.932 -88.930 -88.921 -88.916 -88.913
-14.387 -14.383 -14.382 -14.377 -14.353 -14.350 -14.343 -14.340
-14.324 -14.323 -10.269 -10.268 -10.267 -10.266 -10.259 -10.258
-10.254 -10.251 -10.251 -10.245 -10.241 -10.240 -10.239 -10.238
-10.237 -10.235 -10.234 -10.234 -10.233 -10.229 -10.227 -10.226
-10.225 -10.225 -10.223 -10.222 -10.222 -10.219 -10.218 -10.208
-10.207 -10.204 -10.203 -10.203 -10.202 -10.199 -10.191 -10.186
-10.183 -10.182 -10.181 -10.181 -10.181 -10.176 -10.173 -10.172
-10.169 -10.169 -10.165 -10.164  -8.050  -8.039  -7.996  -7.990
 -7.989  -7.978  -7.975  -7.975  -6.015  -6.009  -6.008  -6.004
 -5.999  -5.997  -5.961  -5.957  -5.954  -5.954  -5.953  -5.951
 -5.950  -5.947  -5.946  -5.943  -5.940  -5.939  -5.939  -5.936
 -5.936  -5.935  -5.931  -5.931  -1.055  -1.039  -0.978  -0.961
 -0.955  -0.943  -0.938  -0.926  -0.915  -0.913  -0.909  -0.906
 -0.848  -0.845  -0.835  -0.828  -0.815  -0.813  -0.806  -0.802
 -0.801  -0.800  -0.797  -0.791  -0.789  -0.782  -0.776  -0.757
 -0.755  -0.751  -0.745  -0.735  -0.725  -0.722  -0.715  -0.704
 -0.700  -0.685  -0.680  -0.668  -0.655  -0.650  -0.649  -0.641
 -0.638  -0.629  -0.624  -0.618  -0.613  -0.609  -0.607  -0.600
 -0.599  -0.594  -0.587  -0.582  -0.578  -0.575  -0.572  -0.554
 -0.550  -0.546  -0.545  -0.531  -0.525  -0.524  -0.523  -0.517
 -0.509  -0.501  -0.499  -0.495  -0.491  -0.485  -0.484  -0.480
 -0.472  -0.470  -0.469  -0.468  -0.463  -0.455  -0.449  -0.448
 -0.446  -0.442  -0.440  -0.439  -0.438  -0.437  -0.433  -0.429
 -0.428  -0.424  -0.424  -0.421  -0.419  -0.418  -0.417  -0.416
 -0.407  -0.405  -0.402  -0.401  -0.400  -0.399  -0.397  -0.394
 -0.392  -0.392  -0.389  -0.387  -0.387  -0.386  -0.383  -0.382
 -0.379  -0.375  -0.372  -0.368  -0.368  -0.363  -0.355  -0.352
 -0.352  -0.350  -0.350  -0.349  -0.347  -0.344  -0.343  -0.342
 -0.339  -0.338  -0.335  -0.334  -0.330  -0.326  -0.322  -0.319
 -0.313  -0.310  -0.310  -0.306  -0.303  -0.302  -0.300  -0.298
 -0.295  -0.293  -0.290  -0.287  -0.287  -0.282  -0.282  -0.281
 -0.275  -0.273  -0.269  -0.265  -0.263  -0.257  -0.248  -0.244
 -0.243  -0.240  -0.233  -0.227  -0.196  -0.190

          Ground-State Mulliken Net Atomic Charges

     Atom                 Charge (a.u.)
  ----------------------------------------
      1 C                     0.290382
      2 C                    -0.116107
      3 N                    -0.496330
      4 C                    -0.068387
      5 C                     0.094206
      6 C                     0.006827
      7 C                     0.079047
      8 C                     0.027189
      9 C                     0.195813
     10 N                    -0.530192
     11 N                    -0.548395
     12 C                     0.209785
     13 C                     0.327777
     14 S                     0.626906
     15 N                    -0.550955
     16 C                    -0.261131
     17 S                     0.393473
     18 C                    -0.142384
     19 C                    -0.206879
     20 S                     0.289804
     21 C                     0.168310
     22 C                     0.064299
     23 C                    -0.317401
     24 C                    -0.072581
     25 N                    -0.447806
     26 S                     0.282796
     27 C                     0.111504
     28 C                    -0.307689
     29 C                    -0.221015
     30 H                     0.085267
     31 H                     0.097040
     32 H                     0.119028
     33 H                     0.113313
     34 H                     0.141404
     35 H                     0.086520
     36 H                     0.118319
     37 H                     0.141560
     38 H                     0.121288
     39 C                    -0.182815
     40 H                     0.094226
     41 H                     0.112278
     42 H                     0.092289
     43 C                    -0.186501
     44 H                     0.094212
     45 C                    -0.172557
     46 H                     0.088999
     47 H                     0.094214
     48 H                     0.090241
     49 C                    -0.166421
     50 H                     0.100468
     51 C                    -0.330160
     52 H                     0.096884
     53 H                     0.097894
     54 H                     0.105290
     55 H                     0.096420
     56 C                     0.261338
     57 C                    -0.097347
     58 N                    -0.493549
     59 C                    -0.049243
     60 C                     0.087638
     61 C                     0.032737
     62 C                     0.010062
     63 C                     0.045555
     64 C                     0.257020
     65 N                    -0.488121
     66 N                    -0.565725
     67 C                     0.213623
     68 C                     0.232929
     69 S                     0.584401
     70 N                    -0.540893
     71 C                    -0.215010
     72 S                     0.358899
     73 C                    -0.103286
     74 C                    -0.252767
     75 S                     0.285258
     76 C                     0.184546
     77 C                     0.065491
     78 C                    -0.304056
     79 C                    -0.095019
     80 N                    -0.441613
     81 S                     0.276406
     82 C                     0.128410
     83 C                    -0.315999
     84 C                    -0.253956
     85 H                     0.082549
     86 H                     0.103003
     87 H                     0.097287
     88 H                     0.119756
     89 H                     0.141345
     90 H                     0.101646
     91 H                     0.119108
     92 H                     0.129632
     93 H                     0.114375
     94 C                    -0.187603
     95 H                     0.136370
     96 H                     0.104443
     97 H                     0.093774
     98 C                    -0.188810
     99 H                     0.090292
    100 C                    -0.170433
    101 H                     0.103849
    102 H                     0.077741
    103 H                     0.121099
    104 C                    -0.187193
    105 H                     0.096306
    106 C                    -0.316398
    107 H                     0.088078
    108 H                     0.093319
    109 H                     0.100559
    110 H                     0.098610
  ----------------------------------------
  Sum of atomic charges =     0.000000

                    Cartesian Multipole Moments
 -----------------------------------------------------------------
    Charge (ESU x 10^10)
                 0.0000
    Dipole Moment (Debye)
         X       2.2106      Y      -1.9911      Z      -4.1751
       Tot       5.1267
    Quadrupole Moments (Debye-Ang)
        XX    -392.3615     XY     -17.0445     YY    -430.2793
        XZ       1.0073     YZ      -4.0871     ZZ    -427.3790

 Total job time:  88.27s(wall), 971.02s(cpu)
        *  Thank you very much for using Q-Chem.  Have a nice day.  *
