 Q-Chem 4.4, Q-Chem, Inc., Pleasanton, CA (2016)
 Q-Chem 4.4.2 for Intel X86 Linux

User input:
--------------------------------------------------------------
$comment
SP
$end

$rem
MEM_STATIC 5000
MEM_TOTAL 20000
JOBTYPE SP
EXCHANGE B3LYP
BASIS 6-31g(d,p)
$end

$molecule
0 1
C         -14.278000     11.064000    -14.825000
C         -14.054000     12.354000    -14.264000
N         -13.391000     10.024000    -14.546000
C         -12.955000     12.542000    -13.319000
C         -12.381000     10.233000    -13.748000
C         -12.129000     11.444000    -13.079000
C         -10.931000     11.680000    -12.219000
C         -10.976000     12.545000    -11.127000
C          -9.666000     11.168000    -12.549000
N          -9.896000     12.915000    -10.422000
N          -9.405000     10.398000    -13.578000
C          -8.566000     11.484000    -11.750000
C          -8.702000     12.373000    -10.642000
S          -7.780000     10.012000    -13.443000
N          -7.442000     10.844000    -12.032000
C          -7.654000     12.623000     -9.680000
S          -6.153000     11.662000     -9.515000
C          -7.660000     13.602000     -8.703000
C          -5.545000     12.726000     -8.205000
S          -8.734000     14.964000     -8.575000
C          -6.467000     13.753000     -8.018000
C          -4.228000     12.803000     -7.693000
C          -7.544000     15.747000     -7.487000
C          -6.500000     14.907000     -7.282000
N          -3.598000     13.912000     -7.732000
S          -3.426000     11.406000     -7.055000
C          -2.309000     13.766000     -7.266000
C          -2.033000     12.470000     -6.929000
C         -15.520000     10.714000    -15.590000
H         -14.676000     13.204000    -14.528000
H         -12.856000     13.545000    -12.916000
H         -11.731000      9.383000    -13.547000
H         -11.886000     13.012000    -10.755000
H          -7.610000     16.775000     -7.156000
H          -5.722000     15.308000     -6.642000
H          -1.671000     14.640000     -7.258000
H          -1.085000     12.088000     -6.572000
H         -16.223000     10.190000    -14.930000
C         -15.198000      9.874000    -16.838000
H         -16.025000     11.645000    -15.876000
H         -14.618000      8.980000    -16.576000
H         -14.601000     10.477000    -17.533000
C         -16.497000      9.384000    -17.502000
H         -17.085000      8.895000    -16.715000
C         -16.053000      8.360000    -18.566000
H         -17.050000     10.250000    -17.886000
H         -15.764000      7.442000    -18.040000
H         -15.133000      8.692000    -19.063000
C         -17.095000      8.164000    -19.698000
H         -17.555000      9.121000    -19.972000
C         -18.166000      7.135000    -19.301000
H         -16.562000      7.743000    -20.559000
H         -18.857000      6.985000    -20.140000
H         -18.687000      7.579000    -18.444000
H         -17.604000      6.226000    -19.053000
C           3.553000     -0.644000     -3.037000
C           3.143000      0.320000     -2.112000
N           2.895000     -0.830000     -4.177000
C           1.954000      1.006000     -2.358000
C           1.845000     -0.050000     -4.449000
C           1.296000      0.890000     -3.593000
C           0.261000      1.891000     -4.016000
C           0.365000      3.203000     -3.544000
C          -0.812000      1.672000     -4.912000
N          -0.352000      4.247000     -3.983000
N          -1.032000      0.573000     -5.587000
C          -1.741000      2.712000     -5.217000
C          -1.409000      4.036000     -4.806000
S          -2.397000      0.832000     -6.445000
N          -2.723000      2.420000     -6.087000
C          -2.211000      5.270000     -5.133000
S          -3.758000      5.361000     -6.025000
C          -1.921000      6.555000     -4.648000
C          -4.040000      7.048000     -5.540000
S          -0.658000      7.166000     -3.608000
C          -2.954000      7.463000     -4.888000
C          -5.391000      7.650000     -5.591000
C          -1.425000      8.752000     -3.722000
C          -2.648000      8.759000     -4.373000
N          -5.626000      8.831000     -5.082000
S          -6.858000      6.794000     -5.949000
C          -6.938000      9.208000     -5.062000
C          -7.813000      8.240000     -5.485000
C           4.786000     -1.460000     -2.796000
H           3.687000      0.392000     -1.174000
H           1.657000      1.698000     -1.577000
H           1.274000     -0.293000     -5.344000
H           1.145000      3.532000     -2.859000
H          -0.960000      9.553000     -3.162000
H          -3.342000      9.590000     -4.434000
H          -7.286000     10.143000     -4.644000
H          -8.888000      8.263000     -5.610000
H           5.602000     -0.818000     -3.150000
C           4.712000     -2.884000     -3.490000
H           4.914000     -1.669000     -1.727000
H           4.558000     -2.661000     -4.553000
H           3.772000     -3.431000     -3.343000
C           6.044000     -3.702000     -3.446000
H           6.897000     -3.021000     -3.559000
C           6.188000     -4.733000     -4.570000
H           6.147000     -4.214000     -2.481000
H           5.914000     -4.202000     -5.490000
H           5.429000     -5.507000     -4.402000
C           7.649000     -5.301000     -4.616000
H           8.480000     -4.590000     -4.691000
C           7.838000     -6.204000     -5.767000
H           7.763000     -5.886000     -3.695000
H           8.912000     -6.380000     -5.905000
H           7.434000     -5.805000     -6.705000
H           7.457000     -7.209000     -5.546000
$end

--------------------------------------------------------------

             Standard Nuclear Orientation (Angstroms)
    I     Atom           X                Y                Z
 ----------------------------------------------------------------
    1      C      11.5899163689    -3.0168527412    -0.3718030666
    2      C      11.8773636217    -1.6236421178    -0.2987603694
    3      N      10.2721389959    -3.4591769930    -0.2533883234
    4      C      10.7740495654    -0.6695967593    -0.2056714496
    5      C       9.3099146980    -2.5910167996    -0.1084494425
    6      C       9.4855531515    -1.1957727902    -0.1140429821
    7      C       8.3771285815    -0.2217469251     0.1165401630
    8      C       8.3819335540     1.0415338849    -0.4723677308
    9      C       7.3565187208    -0.4636709646     1.0498660821
   10      N       7.5000852427     2.0079791187    -0.1746225947
   11      N       7.2222394907    -1.5584949238     1.7592260659
   12      C       6.3884566801     0.5151710245     1.2800426357
   13      C       6.4632317711     1.7814503784     0.6262641690
   14      S       5.8044850459    -1.3533381126     2.6285528267
   15      N       5.3759705918     0.1580389475     2.0545286592
   16      C       5.4218497889     2.7803328098     0.6895528356
   17      S       3.7655953861     2.5074368877     1.3109192082
   18      C       5.5133835895     4.0840915313     0.2369594645
   19      C       3.3185386522     4.2240818066     1.0442161919
   20      S       6.9528557444     4.9506250525    -0.2124218567
   21      C       4.4419340530     4.8952747981     0.5674932728
   22      C       2.1981030663     4.9173929314     1.5604581721
   23      C       6.0434815372     6.4821217624    -0.0112021287
   24      C       4.7572311152     6.2031189154     0.3132639918
   25      N       2.3737253273     5.9558150164     2.2809707639
   26      S       0.5830411327     4.3578069200     1.2770936603
   27      C       1.1728390379     6.4384193555     2.7552683200
   28      C       0.1207510602     5.6558816590     2.3678323370
   29      C      12.6242397243    -4.0433948866    -0.7277179727
   30      H      12.8981129399    -1.2533226719    -0.3025468325
   31      H      11.0656835337     0.3754826320    -0.1744033457
   32      H       8.2980709677    -2.9873543045    -0.0414431161
   33      H       9.1084905301     1.3664384413    -1.2147456599
   34      H       6.4978831971     7.4638841240    -0.0302493537
   35      H       4.1348965491     7.0775151432     0.4675880813
   36      H       1.1937767955     7.3159749190     3.3880730633
   37      H      -0.9181216811     5.7985797587     2.6370119791
   38      H      12.5353718276    -4.3017845740    -1.7906019110
   39      C      12.5085308611    -5.2945882130     0.1599276316
   40      H      13.6164399985    -3.5881427673    -0.6187862337
   41      H      11.4944265285    -5.7126277022     0.1265302054
   42      H      12.7310338359    -5.0204780317     1.1983875657
   43      C      13.4610727672    -6.3947951533    -0.3406776077
   44      H      13.2522882265    -6.5260715431    -1.4099808973
   45      C      13.0756101154    -7.6618654532     0.4491067926
   46      H      14.4964216648    -6.0569622877    -0.2097477972
   47      H      12.1336946834    -8.0373392804     0.0310927689
   48      H      12.8328978950    -7.4111232491     1.4892279996
   49      C      14.2194373239    -8.7066475586     0.5245631999
   50      H      15.1885481040    -8.2119306309     0.6609613576
   51      C      14.2355757619    -9.6098663779    -0.7193927137
   52      H      14.0063731497    -9.3583718447     1.3804312461
   53      H      15.0234071087   -10.3658938766    -0.6114751978
   54      H      14.4544862096    -8.9385995782    -1.5587407342
   55      H      13.2323941828   -10.0522863638    -0.7583834254
   56      C     -12.7153953998    -1.2452346063    -0.0685572764
   57      C     -12.3232759782    -0.0911614030    -0.7522080649
   58      N     -11.8334588917    -2.1818095235     0.2663687157
   59      C     -10.9997102982     0.0032127381    -1.1812773043
   60      C     -10.5450844598    -1.9882453612    -0.0294491982
   61      C     -10.0365262715    -0.9280422654    -0.7609373833
   62      C      -8.5699847301    -0.6340880892    -0.8834194203
   63      C      -8.1454183317     0.6965703043    -0.8198929445
   64      C      -7.5241504574    -1.5797165627    -1.0022616024
   65      N      -6.8726298812     1.1029233817    -0.7120377793
   66      N      -7.6587991165    -2.8797929061    -0.9431241360
   67      C      -6.1649072551    -1.1627004647    -1.1296252202
   68      C      -5.8669529991     0.2070274554    -0.8704154863
   69      S      -6.1645521090    -3.5018982537    -1.1591815758
   70      N      -5.2347695327    -2.1281320311    -1.2259253134
   71      C      -4.4819317655     0.8021624784    -0.8499341122
   72      S      -2.9350509518    -0.0221087573    -1.2033328643
   73      C      -4.2091943702     2.1687498427    -0.6808090432
   74      C      -2.0403193399     1.5106913744    -1.3067596444
   75      S      -5.2416741454     3.5567800447    -0.4411266030
   76      C      -2.8778431745     2.4864982924    -0.9559324998
   77      C      -0.7367911074     1.5978533369    -2.0020458727
   78      C      -3.7870472252     4.5569629083    -0.4605111958
   79      C      -2.6240696958     3.8822621414    -0.7949377817
   80      N      -0.1610107728     2.7511603394    -2.2198231999
   81      S      -0.0037417054     0.3223012653    -2.9232377566
   82      C       0.9604711820     2.7067092310    -2.9971103567
   83      C       1.2445195602     1.4678503982    -3.5129817662
   84      C     -14.1383520830    -1.4343829225     0.3599788275
   85      H     -13.0947925755     0.6152837290    -1.0465911751
   86      H     -10.7695659276     0.8933893004    -1.7571707464
   87      H      -9.8669695433    -2.8159777063     0.1733667894
   88      H      -8.8287494767     1.5378944641    -0.7145449277
   89      H      -3.9348348462     5.6237231413    -0.3527734384
   90      H      -1.6551954437     4.3261641350    -0.9953166817
   91      H       1.5237593292     3.5837450385    -3.2861910644
   92      H       2.0724393819     1.1270570788    -4.1214122737
   93      H     -14.2043427632    -0.8874073392     1.3085561525
   94      C     -14.5439236749    -2.9650707629     0.4459696339
   95      H     -14.8285709055    -0.9961383810    -0.3710243865
   96      H     -13.8304832376    -3.3959774268     1.1592270835
   97      H     -14.2446497832    -3.5802449326    -0.4121759707
   98      C     -15.9481947224    -3.2340646756     1.0791750509
   99      H     -16.1287567853    -2.5171295929     1.8900637169
  100      C     -16.0984719597    -4.6203924052     1.7136710541
  101      H     -16.7380499974    -3.1007235188     0.3292905395
  102      H     -15.1981063039    -4.7610198762     2.3244104422
  103      H     -16.0597818688    -5.3568428310     0.9015597025
  104      C     -17.4170180064    -4.7021961143     2.5586595014
  105      H     -17.5830486545    -3.9469407300     3.3356602274
  106      C     -17.5172327828    -5.9882220059     3.2742190061
  107      H     -18.2342711919    -4.6477963454     1.8288650811
  108      H     -18.3079011799    -5.9106059248     4.0307341942
  109      H     -16.5886499700    -6.2795046922     3.7793421164
  110      H     -17.8948679627    -6.7784695116     2.6132140511
 ----------------------------------------------------------------

    9   -5663.5389783339      9.65E-06 Convergence criterion met
 Total energy in the final basis set = -5663.5389783339

                    Orbital Energies (a.u.)
 --------------------------------------------------------------

 Alpha MOs
 -- Occupied --
-88.988 -88.981 -88.925 -88.924 -88.924 -88.922 -88.912 -88.903
-14.397 -14.388 -14.386 -14.380 -14.352 -14.342 -14.342 -14.335
-14.326 -14.325 -10.276 -10.270 -10.260 -10.260 -10.257 -10.257
-10.250 -10.250 -10.249 -10.244 -10.240 -10.238 -10.235 -10.235
-10.234 -10.233 -10.232 -10.232 -10.228 -10.226 -10.226 -10.226
-10.224 -10.223 -10.221 -10.220 -10.218 -10.218 -10.215 -10.215
-10.211 -10.211 -10.206 -10.204 -10.201 -10.197 -10.196 -10.188
-10.187 -10.185 -10.175 -10.174 -10.174 -10.173 -10.173 -10.172
-10.172 -10.172 -10.168 -10.164  -8.044  -8.036  -7.985  -7.983
 -7.983  -7.982  -7.972  -7.963  -6.009  -6.003  -6.002  -6.001
 -5.996  -5.993  -5.949  -5.947  -5.947  -5.947  -5.945  -5.944
 -5.943  -5.943  -5.942  -5.940  -5.939  -5.939  -5.936  -5.933
 -5.928  -5.927  -5.923  -5.919  -1.046  -1.035  -0.979  -0.973
 -0.960  -0.960  -0.946  -0.934  -0.921  -0.914  -0.914  -0.909
 -0.844  -0.841  -0.836  -0.831  -0.808  -0.806  -0.805  -0.803
 -0.800  -0.798  -0.795  -0.794  -0.787  -0.782  -0.770  -0.765
 -0.753  -0.748  -0.745  -0.740  -0.723  -0.723  -0.713  -0.708
 -0.697  -0.691  -0.679  -0.674  -0.656  -0.652  -0.644  -0.642
 -0.639  -0.634  -0.624  -0.622  -0.611  -0.608  -0.595  -0.595
 -0.595  -0.591  -0.585  -0.579  -0.576  -0.575  -0.569  -0.563
 -0.558  -0.549  -0.541  -0.540  -0.525  -0.521  -0.513  -0.511
 -0.509  -0.506  -0.499  -0.498  -0.486  -0.485  -0.483  -0.477
 -0.473  -0.472  -0.471  -0.468  -0.463  -0.457  -0.451  -0.448
 -0.448  -0.445  -0.440  -0.439  -0.438  -0.436  -0.435  -0.434
 -0.431  -0.427  -0.425  -0.419  -0.418  -0.417  -0.417  -0.413
 -0.412  -0.411  -0.408  -0.406  -0.401  -0.401  -0.399  -0.397
 -0.395  -0.393  -0.392  -0.390  -0.387  -0.383  -0.381  -0.381
 -0.378  -0.374  -0.369  -0.369  -0.366  -0.360  -0.358  -0.358
 -0.354  -0.351  -0.350  -0.349  -0.349  -0.342  -0.341  -0.338
 -0.336  -0.335  -0.334  -0.331  -0.328  -0.326  -0.323  -0.321
 -0.319  -0.312  -0.309  -0.307  -0.306  -0.299  -0.297  -0.296
 -0.293  -0.291  -0.290  -0.288  -0.286  -0.283  -0.279  -0.278
 -0.273  -0.271  -0.268  -0.262  -0.258  -0.252  -0.249  -0.247
 -0.246  -0.243  -0.235  -0.231  -0.199  -0.193

          Ground-State Mulliken Net Atomic Charges

     Atom                 Charge (a.u.)
  ----------------------------------------
      1 C                     0.268356
      2 C                    -0.139795
      3 N                    -0.485994
      4 C                    -0.077560
      5 C                     0.117519
      6 C                     0.030315
      7 C                     0.024614
      8 C                     0.041402
      9 C                     0.286462
     10 N                    -0.535691
     11 N                    -0.574156
     12 C                     0.200953
     13 C                     0.330341
     14 S                     0.573950
     15 N                    -0.572141
     16 C                    -0.203176
     17 S                     0.334013
     18 C                    -0.142046
     19 C                    -0.240403
     20 S                     0.265056
     21 C                     0.210164
     22 C                     0.045094
     23 C                    -0.308301
     24 C                    -0.065284
     25 N                    -0.410076
     26 S                     0.277121
     27 C                     0.116205
     28 C                    -0.310402
     29 C                    -0.228292
     30 H                     0.088018
     31 H                     0.107787
     32 H                     0.110034
     33 H                     0.113700
     34 H                     0.129798
     35 H                     0.106325
     36 H                     0.116348
     37 H                     0.126681
     38 H                     0.119180
     39 C                    -0.176681
     40 H                     0.094322
     41 H                     0.126173
     42 H                     0.094542
     43 C                    -0.173435
     44 H                     0.094197
     45 C                    -0.179108
     46 H                     0.087561
     47 H                     0.094245
     48 H                     0.091753
     49 C                    -0.184296
     50 H                     0.090318
     51 C                    -0.306671
     52 H                     0.085847
     53 H                     0.097571
     54 H                     0.103181
     55 H                     0.103248
     56 C                     0.281269
     57 C                    -0.116272
     58 N                    -0.482437
     59 C                    -0.095386
     60 C                     0.067074
     61 C                     0.053421
     62 C                     0.059978
     63 C                     0.050597
     64 C                     0.234059
     65 N                    -0.520743
     66 N                    -0.548468
     67 C                     0.198180
     68 C                     0.306680
     69 S                     0.591839
     70 N                    -0.546190
     71 C                    -0.239453
     72 S                     0.302797
     73 C                    -0.089957
     74 C                    -0.245109
     75 S                     0.289599
     76 C                     0.156103
     77 C                     0.073442
     78 C                    -0.327601
     79 C                    -0.046478
     80 N                    -0.446264
     81 S                     0.254788
     82 C                     0.136679
     83 C                    -0.311988
     84 C                    -0.235520
     85 H                     0.088988
     86 H                     0.096565
     87 H                     0.118984
     88 H                     0.112329
     89 H                     0.126144
     90 H                     0.141141
     91 H                     0.122920
     92 H                     0.141812
     93 H                     0.122643
     94 C                    -0.190955
     95 H                     0.104020
     96 H                     0.119961
     97 H                     0.097598
     98 C                    -0.178412
     99 H                     0.089220
    100 C                    -0.175714
    101 H                     0.085199
    102 H                     0.092536
    103 H                     0.093564
    104 C                    -0.171653
    105 H                     0.094376
    106 C                    -0.312567
    107 H                     0.094391
    108 H                     0.091026
    109 H                     0.102980
    110 H                     0.099378
  ----------------------------------------
  Sum of atomic charges =     0.000000

                    Cartesian Multipole Moments
 -----------------------------------------------------------------
    Charge (ESU x 10^10)
                 0.0000
    Dipole Moment (Debye)
         X      -0.3677      Y       2.9085      Z      -1.5501
       Tot       3.3162
    Quadrupole Moments (Debye-Ang)
        XX    -405.8986     XY     -10.5143     YY    -433.5273
        XZ      -2.7797     YZ       1.3028     ZZ    -442.9507

 Total job time:  85.06s(wall), 919.80s(cpu)
        *  Thank you very much for using Q-Chem.  Have a nice day.  *
