 Q-Chem 4.4, Q-Chem, Inc., Pleasanton, CA (2016)
 Q-Chem 4.4.2 for Intel X86 Linux

User input:
--------------------------------------------------------------
$comment
SP
$end

$rem
MEM_STATIC 5000
MEM_TOTAL 20000
JOBTYPE SP
EXCHANGE B3LYP
BASIS 6-31g(d,p)
$end

$molecule
0 1
C           8.643000     18.493000     -6.994000
C           7.331000     18.106000     -6.943000
N           9.607000     17.570000     -6.936000
C           6.987000     16.849000     -6.563000
C           9.333000     16.266000     -6.707000
C           7.968000     15.816000     -6.454000
C           7.544000     14.406000     -6.205000
C           6.416000     14.161000     -5.473000
C           8.211000     13.240000     -6.709000
N           5.828000     12.961000     -5.267000
N           9.352000     13.250000     -7.466000
C           7.649000     11.981000     -6.509000
C           6.455000     11.864000     -5.737000
S           9.617000     11.699000     -7.782000
N           8.353000     11.019000     -7.152000
C           5.748000     10.613000     -5.444000
S           6.288000      8.973000     -5.848000
C           4.439000     10.508000     -4.812000
C           4.932000      8.230000     -4.956000
S           3.181000     11.713000     -4.381000
C           4.037000      9.192000     -4.649000
C           4.673000      6.870000     -4.717000
C           2.038000     10.409000     -4.145000
C           2.688000      9.181000     -4.288000
N           5.346000      6.058000     -5.483000
S           3.604000      6.116000     -3.644000
C           4.946000      4.701000     -5.269000
C           4.121000      4.540000     -4.194000
C           9.065000     19.878000     -7.183000
H           6.524000     18.804000     -7.148000
H           5.939000     16.585000     -6.452000
H          10.142000     15.553000     -6.559000
H           5.855000     14.927000     -4.940000
H           0.999000     10.605000     -3.917000
H           2.273000      8.191000     -4.134000
H           5.442000      3.970000     -5.893000
H           3.705000      3.607000     -3.837000
H           9.971000     19.931000     -7.800000
C           9.387000     20.601000     -5.870000
H           8.260000     20.419000     -7.696000
H          10.038000     19.963000     -5.259000
H           8.477000     20.789000     -5.286000
C           9.972000     22.066000     -6.196000
H          10.984000     22.008000     -6.617000
C           9.875000     23.090000     -5.055000
H           9.325000     22.437000     -7.000000
H          10.485000     22.611000     -4.279000
H           8.835000     23.152000     -4.714000
C          10.413000     24.502000     -5.327000
H          11.464000     24.448000     -5.637000
C          10.090000     25.453000     -4.232000
H           9.855000     24.915000     -6.176000
H          10.348000     25.117000     -3.220000
H           9.118000     25.897000     -3.984000
H          10.628000     26.405000     -4.315000
C           3.553000     -0.644000     -3.037000
C           3.143000      0.320000     -2.112000
N           2.895000     -0.830000     -4.177000
C           1.954000      1.006000     -2.358000
C           1.845000     -0.050000     -4.449000
C           1.296000      0.890000     -3.593000
C           0.261000      1.891000     -4.016000
C           0.365000      3.203000     -3.544000
C          -0.812000      1.672000     -4.912000
N          -0.352000      4.247000     -3.983000
N          -1.032000      0.573000     -5.587000
C          -1.741000      2.712000     -5.217000
C          -1.409000      4.036000     -4.806000
S          -2.397000      0.832000     -6.445000
N          -2.723000      2.420000     -6.087000
C          -2.211000      5.270000     -5.133000
S          -3.758000      5.361000     -6.025000
C          -1.921000      6.555000     -4.648000
C          -4.040000      7.048000     -5.540000
S          -0.658000      7.166000     -3.608000
C          -2.954000      7.463000     -4.888000
C          -5.391000      7.650000     -5.591000
C          -1.425000      8.752000     -3.722000
C          -2.648000      8.759000     -4.373000
N          -5.626000      8.831000     -5.082000
S          -6.858000      6.794000     -5.949000
C          -6.938000      9.208000     -5.062000
C          -7.813000      8.240000     -5.485000
C           4.786000     -1.460000     -2.796000
H           3.687000      0.392000     -1.174000
H           1.657000      1.698000     -1.577000
H           1.274000     -0.293000     -5.344000
H           1.145000      3.532000     -2.859000
H          -0.960000      9.553000     -3.162000
H          -3.342000      9.590000     -4.434000
H          -7.286000     10.143000     -4.644000
H          -8.888000      8.263000     -5.610000
H           5.602000     -0.818000     -3.150000
C           4.712000     -2.884000     -3.490000
H           4.914000     -1.669000     -1.727000
H           4.558000     -2.661000     -4.553000
H           3.772000     -3.431000     -3.343000
C           6.044000     -3.702000     -3.446000
H           6.897000     -3.021000     -3.559000
C           6.188000     -4.733000     -4.570000
H           6.147000     -4.214000     -2.481000
H           5.914000     -4.202000     -5.490000
H           5.429000     -5.507000     -4.402000
C           7.649000     -5.301000     -4.616000
H           8.480000     -4.590000     -4.691000
C           7.838000     -6.204000     -5.767000
H           7.763000     -5.886000     -3.695000
H           8.912000     -6.380000     -5.905000
H           7.434000     -5.805000     -6.705000
H           7.457000     -7.209000     -5.546000
$end

--------------------------------------------------------------

             Standard Nuclear Orientation (Angstroms)
    I     Atom           X                Y                Z
 ----------------------------------------------------------------
    1      C      11.8396368698    -0.6480518597    -0.9556868234
    2      C      10.9405919364     0.3841457560    -0.9551483777
    3      N      11.3982387832    -1.9089029749    -0.9523410170
    4      C       9.6293938726     0.1692559512    -0.6769991201
    5      C      10.0848698283    -2.2044181877    -0.8271781340
    6      C       9.0914530595    -1.1535525713    -0.6308656797
    7      C       7.6182306429    -1.3569134984    -0.4961918348
    8      C       6.8728313201    -0.4447216336     0.1970028360
    9      C       6.8757378378    -2.4388652597    -1.0763175286
   10      N       5.5252396224    -0.4110459794     0.3020864530
   11      N       7.4153326263    -3.4599419248    -1.8120280071
   12      C       5.4858872187    -2.4532155506    -0.9812684592
   13      C       4.8261501613    -1.4285606271    -0.2395553727
   14      S       6.1427704041    -4.3390555725    -2.2403113070
   15      N       4.9542211537    -3.4818561120    -1.6839339492
   16      C       3.3763751205    -1.3092511921    -0.0535000322
   17      S       2.1438430978    -2.4739763803    -0.5718590285
   18      C       2.6903875934    -0.1726300092     0.5477015972
   19      C       0.8402103705    -1.5636432030     0.2394881343
   20      S       3.2285832757     1.4643960800     1.0485418818
   21      C       1.3180229776    -0.3555589581     0.6041051522
   22      C      -0.5184692704    -1.8962032179     0.3706196329
   23      C       1.5541828651     1.9593353472     1.1667763378
   24      C       0.7211481518     0.8610268687     0.9415994017
   25      N      -0.9176913998    -2.8323399528    -0.4438118897
   26      S      -1.7266882370    -1.2545917741     1.3661836358
   27      C      -2.3302557431    -3.0349580430    -0.3396347057
   28      C      -2.8997005092    -2.3693760453     0.7067420250
   29      C      13.2848282728    -0.4542562655    -1.0324662240
   30      H      11.2542073009     1.4113190675    -1.1195819242
   31      H       8.9468663392     1.0112868521    -0.6030996756
   32      H       9.7627888689    -3.2386693653    -0.7206776308
   33      H       7.2944074388     0.3743815359     0.7774419575
   34      H       1.2836551928     2.9820135764     1.3923090806
   35      H      -0.3603292637     0.8253054990     1.0135131250
   36      H      -2.7401863159    -3.7788703266    -1.0091901104
   37      H      -3.9452432839    -2.3839759127     0.9853477504
   38      H      13.7553480566    -1.2460720036    -1.6291009279
   39      C      13.9748011330    -0.4694883424     0.3365069079
   40      H      13.4801809121     0.5111800551    -1.5158346726
   41      H      13.6202040313    -1.3367169702     0.9077698970
   42      H      13.7236415047     0.4264940361     0.9184299428
   43      C      15.5705020641    -0.3884805430     0.1318064562
   44      H      15.9695400800    -1.3260880600    -0.2761271241
   45      C      16.3725787314     0.1052393693     1.3453877959
   46      H      15.6992362453     0.3676177643    -0.6520359134
   47      H      16.1326814448    -0.6615244074     2.0925421324
   48      H      15.9715954191     1.0713318539     1.6734162922
   49      C      17.8966447746     0.2061073141     1.1897588987
   50      H      18.3071035741    -0.7671981053     0.8934193392
   51      C      18.5422481269     0.8759273015     2.3483323733
   52      H      18.1037833158     0.8994208610     0.3656569934
   53      H      18.2681614736     0.4847231335     3.3359759352
   54      H      18.5228782637     1.9401874209     2.6136608618
   55      H      19.6349317752     0.7827860229     2.3462959584
   56      C      -7.9233266246    -4.0225860364     1.4585441122
   57      C      -7.2891849664    -3.2653507117     2.4472200047
   58      N      -8.2788327798    -3.4818492380     0.2973468471
   59      C      -7.1418251549    -1.8949373334     2.2348871094
   60      C      -7.9866105671    -2.1984591820     0.0684360727
   61      C      -7.4266822593    -1.3235573569     0.9842767174
   62      C      -6.9164386986     0.0404131096     0.6217976487
   63      C      -5.7192955120     0.4820511485     1.1934164320
   64      C      -7.4924618800     0.9408816248    -0.3052728705
   65      N      -5.0369314652     1.5748285320     0.8233314449
   66      N      -8.5292545268     0.6965620322    -1.0650063398
   67      C      -6.9117953086     2.2226009820    -0.5454557635
   68      C      -5.6045777277     2.4628251853    -0.0300961529
   69      S      -8.7958576168     2.0603150786    -1.9226603614
   70      N      -7.5182241801     3.0095613428    -1.4506769599
   71      C      -4.7936541507     3.7098517656    -0.2754869843
   72      S      -5.2855249743     5.1700658538    -1.1826759997
   73      C      -3.5448135866     3.9708565495     0.3100245427
   74      C      -3.9094640024     6.1182020427    -0.5758712792
   75      S      -2.5454017363     3.0577068487     1.4133937363
   76      C      -3.1318924050     5.2913356772     0.1229845175
   77      C      -3.9202073642     7.5978534983    -0.6027441273
   78      C      -1.4168733321     4.4153043191     1.4075843149
   79      C      -1.8687063238     5.5418401202     0.7394952216
   80      N      -2.9852768239     8.2929308457    -0.0095836382
   81      S      -5.2779221082     8.5834314137    -1.0479809708
   82      C      -3.1892233144     9.6425688553     0.0179131275
   83      C      -4.3979938644    10.0442148687    -0.4911372016
   84      C      -8.1699328555    -5.4868694087     1.6567499960
   85      H      -7.0690812018    -3.7462489318     3.3965646390
   86      H      -6.6965633727    -1.3508976893     3.0612023101
   87      H      -8.3762177320    -1.7646576126    -0.8514212290
   88      H      -5.1491406876    -0.1026634951     1.9137623640
   89      H      -0.5399668987     4.3150657501     2.0340133502
   90      H      -1.3984936811     6.5189467479     0.7305114086
   91      H      -2.5173565243    10.3399429778     0.4999062287
   92      H      -4.8136570307    11.0338505258    -0.6312243117
   93      H      -7.2225417296    -5.9569305450     1.3654965280
   94      C      -9.4394160040    -5.9985050818     0.8557946454
   95      H      -8.3870984773    -5.7080887753     2.7087609677
   96      H      -9.2207951879    -5.7479263010    -0.1895900749
   97      H     -10.3364696394    -5.3727276548     0.9458800894
   98      C      -9.6318838370    -7.5503522716     0.8590246032
   99      H      -8.6519859829    -8.0419715628     0.8115939367
  100      C     -10.4220941399    -8.0900215740    -0.3373857450
  101      H     -10.1263092727    -7.8727573286     1.7839983692
  102      H      -9.9847788570    -7.6049287281    -1.2187921633
  103      H     -11.4514788782    -7.7234262835    -0.2406595663
  104      C     -10.3275603754    -9.6540017703    -0.4028862260
  105      H      -9.3324573208   -10.1138047459    -0.4105108132
  106      C     -10.9809989356   -10.1810573748    -1.6158006655
  107      H     -10.8802913063   -10.0159513453     0.4728666063
  108      H     -10.6846154754   -11.2288024288    -1.7495285472
  109      H     -10.7159450125    -9.6321478114    -2.5272312493
  110      H     -12.0670341536   -10.2550653260    -1.4776799629
 ----------------------------------------------------------------

   10   -5663.5165263141      3.44E-06 Convergence criterion met
 Total energy in the final basis set = -5663.5165263141

                    Orbital Energies (a.u.)
 --------------------------------------------------------------

 Alpha MOs
 -- Occupied --
-88.991 -88.989 -88.927 -88.927 -88.926 -88.925 -88.916 -88.911
-14.401 -14.390 -14.382 -14.377 -14.356 -14.345 -14.344 -14.334
-14.330 -14.322 -10.278 -10.274 -10.264 -10.264 -10.261 -10.258
-10.255 -10.254 -10.253 -10.246 -10.245 -10.244 -10.238 -10.236
-10.235 -10.235 -10.232 -10.232 -10.231 -10.230 -10.230 -10.229
-10.227 -10.227 -10.226 -10.225 -10.220 -10.220 -10.219 -10.217
-10.215 -10.208 -10.203 -10.203 -10.199 -10.197 -10.196 -10.192
-10.188 -10.184 -10.181 -10.179 -10.179 -10.177 -10.175 -10.175
-10.175 -10.175 -10.168 -10.164  -8.047  -8.045  -7.988  -7.988
 -7.986  -7.983  -7.975  -7.970  -6.012  -6.010  -6.007  -6.004
 -6.004  -6.003  -5.952  -5.952  -5.950  -5.948  -5.948  -5.947
 -5.946  -5.945  -5.945  -5.944  -5.942  -5.940  -5.939  -5.936
 -5.934  -5.931  -5.931  -5.926  -1.050  -1.049  -0.976  -0.969
 -0.964  -0.956  -0.951  -0.935  -0.924  -0.917  -0.909  -0.904
 -0.847  -0.842  -0.840  -0.831  -0.812  -0.809  -0.805  -0.804
 -0.803  -0.802  -0.798  -0.797  -0.790  -0.789  -0.773  -0.772
 -0.756  -0.750  -0.748  -0.741  -0.726  -0.719  -0.716  -0.712
 -0.700  -0.695  -0.682  -0.675  -0.660  -0.653  -0.649  -0.645
 -0.642  -0.634  -0.628  -0.621  -0.611  -0.609  -0.601  -0.599
 -0.596  -0.593  -0.588  -0.584  -0.579  -0.574  -0.571  -0.571
 -0.561  -0.546  -0.544  -0.541  -0.528  -0.519  -0.518  -0.516
 -0.515  -0.506  -0.503  -0.495  -0.490  -0.487  -0.487  -0.479
 -0.476  -0.476  -0.474  -0.469  -0.468  -0.467  -0.455  -0.451
 -0.451  -0.442  -0.441  -0.439  -0.438  -0.438  -0.435  -0.435
 -0.431  -0.430  -0.427  -0.422  -0.422  -0.420  -0.417  -0.416
 -0.413  -0.412  -0.411  -0.405  -0.404  -0.400  -0.399  -0.398
 -0.397  -0.396  -0.393  -0.393  -0.389  -0.387  -0.385  -0.381
 -0.376  -0.372  -0.372  -0.369  -0.367  -0.365  -0.362  -0.360
 -0.354  -0.351  -0.350  -0.349  -0.347  -0.342  -0.341  -0.340
 -0.338  -0.337  -0.337  -0.333  -0.328  -0.325  -0.325  -0.324
 -0.321  -0.312  -0.311  -0.309  -0.307  -0.303  -0.301  -0.300
 -0.298  -0.296  -0.294  -0.289  -0.285  -0.284  -0.282  -0.277
 -0.276  -0.275  -0.274  -0.269  -0.261  -0.256  -0.253  -0.251
 -0.243  -0.240  -0.239  -0.229  -0.202  -0.190

          Ground-State Mulliken Net Atomic Charges

     Atom                 Charge (a.u.)
  ----------------------------------------
      1 C                     0.290333
      2 C                    -0.116615
      3 N                    -0.497606
      4 C                    -0.068303
      5 C                     0.093106
      6 C                     0.007490
      7 C                     0.076259
      8 C                     0.027248
      9 C                     0.197178
     10 N                    -0.530557
     11 N                    -0.549791
     12 C                     0.204842
     13 C                     0.325141
     14 S                     0.617588
     15 N                    -0.540792
     16 C                    -0.248246
     17 S                     0.359165
     18 C                    -0.137362
     19 C                    -0.187548
     20 S                     0.283862
     21 C                     0.166158
     22 C                     0.048196
     23 C                    -0.322142
     24 C                    -0.074091
     25 N                    -0.438791
     26 S                     0.283894
     27 C                     0.105818
     28 C                    -0.309836
     29 C                    -0.220743
     30 H                     0.083965
     31 H                     0.096264
     32 H                     0.118723
     33 H                     0.111636
     34 H                     0.130727
     35 H                     0.098284
     36 H                     0.119888
     37 H                     0.140366
     38 H                     0.120471
     39 C                    -0.182179
     40 H                     0.093487
     41 H                     0.112174
     42 H                     0.091994
     43 C                    -0.186529
     44 H                     0.093889
     45 C                    -0.172785
     46 H                     0.088709
     47 H                     0.094215
     48 H                     0.090183
     49 C                    -0.165886
     50 H                     0.100185
     51 C                    -0.329763
     52 H                     0.096553
     53 H                     0.097790
     54 H                     0.105016
     55 H                     0.096010
     56 C                     0.280137
     57 C                    -0.119606
     58 N                    -0.479831
     59 C                    -0.101484
     60 C                     0.064552
     61 C                     0.050833
     62 C                     0.062536
     63 C                     0.049543
     64 C                     0.233321
     65 N                    -0.522461
     66 N                    -0.548632
     67 C                     0.198964
     68 C                     0.307985
     69 S                     0.595457
     70 N                    -0.545834
     71 C                    -0.240557
     72 S                     0.304211
     73 C                    -0.090357
     74 C                    -0.242448
     75 S                     0.298089
     76 C                     0.156733
     77 C                     0.073663
     78 C                    -0.330022
     79 C                    -0.036027
     80 N                    -0.443729
     81 S                     0.254326
     82 C                     0.136431
     83 C                    -0.313731
     84 C                    -0.235272
     85 H                     0.092415
     86 H                     0.098782
     87 H                     0.121165
     88 H                     0.105272
     89 H                     0.123177
     90 H                     0.132220
     91 H                     0.120318
     92 H                     0.140800
     93 H                     0.122735
     94 C                    -0.190714
     95 H                     0.105534
     96 H                     0.119700
     97 H                     0.097975
     98 C                    -0.178531
     99 H                     0.089639
    100 C                    -0.175792
    101 H                     0.085877
    102 H                     0.092363
    103 H                     0.093752
    104 C                    -0.171536
    105 H                     0.094763
    106 C                    -0.312461
    107 H                     0.094597
    108 H                     0.091512
    109 H                     0.102933
    110 H                     0.099472
  ----------------------------------------
  Sum of atomic charges =     0.000000

                    Cartesian Multipole Moments
 -----------------------------------------------------------------
    Charge (ESU x 10^10)
                 0.0000
    Dipole Moment (Debye)
         X      -2.7460      Y       3.9435      Z       2.1396
       Tot       5.2602
    Quadrupole Moments (Debye-Ang)
        XX    -434.1603     XY       9.8504     YY    -399.7687
        XZ      -5.5631     YZ      -5.1685     ZZ    -445.2036

 Total job time:  93.43s(wall), 1000.91s(cpu)
        *  Thank you very much for using Q-Chem.  Have a nice day.  *
