 Q-Chem 4.4, Q-Chem, Inc., Pleasanton, CA (2016)
 Q-Chem 4.4.2 for Intel X86 Linux

User input:
--------------------------------------------------------------
$comment
SP
$end

$rem
MEM_STATIC 5000
MEM_TOTAL 20000
JOBTYPE SP
EXCHANGE B3LYP
BASIS 6-31g(d,p)
$end

$molecule
0 1
C           1.335000      6.992000      3.809000
C           0.156000      6.218000      3.856000
N           2.537000      6.480000      3.574000
C           0.285000      4.787000      3.812000
C           2.624000      5.136000      3.367000
C           1.536000      4.207000      3.488000
C           1.826000      2.724000      3.330000
C           2.377000      2.331000      2.117000
C           1.695000      1.824000      4.397000
N           2.811000      1.096000      1.906000
N           1.079000      2.029000      5.521000
C           2.294000      0.563000      4.228000
C           2.918000      0.276000      2.996000
S           1.248000      0.603000      6.345000
N           2.228000     -0.231000      5.303000
C           3.888000     -0.823000      2.790000
S           4.171000     -1.621000      1.200000
C           4.913000     -1.198000      3.678000
C           5.653000     -2.353000      1.756000
S           5.221000     -0.567000      5.163000
C           5.900000     -1.938000      3.037000
C           6.403000     -3.389000      1.062000
C           6.874000     -1.282000      5.042000
C           6.982000     -2.083000      3.976000
N           5.649000     -4.211000      0.366000
S           8.128000     -3.743000      1.196000
C           6.443000     -5.280000     -0.041000
C           7.735000     -5.237000      0.326000
C           1.446000      8.461000      4.208000
H          -0.810000      6.672000      4.055000
H          -0.627000      4.198000      3.845000
H           3.595000      4.662000      3.237000
H           2.335000      3.109000      1.357000
H           7.600000     -1.143000      5.832000
H           7.880000     -2.661000      3.789000
H           5.857000     -6.078000     -0.477000
H           8.559000     -5.937000      0.270000
H           2.071000      8.876000      3.407000
C           1.988000      8.796000      5.631000
H           0.471000      8.961000      4.159000
H           2.970000      8.374000      5.877000
H           1.298000      8.343000      6.353000
C           2.137000     10.328000      5.836000
H           2.821000     10.743000      5.086000
C           2.768000     10.580000      7.266000
H           1.185000     10.872000      5.832000
H           3.140000     11.609000      7.187000
H           3.611000      9.921000      7.510000
C           1.719000     10.368000      8.334000
H           0.980000     11.178000      8.303000
C           2.379000     10.538000      9.692000
H           1.230000      9.393000      8.216000
H           1.627000     10.410000     10.481000
H           2.846000     11.529000      9.743000
H           3.163000      9.798000      9.895000
C           3.553000     -0.644000     -3.037000
C           3.143000      0.320000     -2.112000
N           2.895000     -0.830000     -4.177000
C           1.954000      1.006000     -2.358000
C           1.845000     -0.050000     -4.449000
C           1.296000      0.890000     -3.593000
C           0.261000      1.891000     -4.016000
C           0.365000      3.203000     -3.544000
C          -0.812000      1.672000     -4.912000
N          -0.352000      4.247000     -3.983000
N          -1.032000      0.573000     -5.587000
C          -1.741000      2.712000     -5.217000
C          -1.409000      4.036000     -4.806000
S          -2.397000      0.832000     -6.445000
N          -2.723000      2.420000     -6.087000
C          -2.211000      5.270000     -5.133000
S          -3.758000      5.361000     -6.025000
C          -1.921000      6.555000     -4.648000
C          -4.040000      7.048000     -5.540000
S          -0.658000      7.166000     -3.608000
C          -2.954000      7.463000     -4.888000
C          -5.391000      7.650000     -5.591000
C          -1.425000      8.752000     -3.722000
C          -2.648000      8.759000     -4.373000
N          -5.626000      8.831000     -5.082000
S          -6.858000      6.794000     -5.949000
C          -6.938000      9.208000     -5.062000
C          -7.813000      8.240000     -5.485000
C           4.786000     -1.460000     -2.796000
H           3.687000      0.392000     -1.174000
H           1.657000      1.698000     -1.577000
H           1.274000     -0.293000     -5.344000
H           1.145000      3.532000     -2.859000
H          -0.960000      9.553000     -3.162000
H          -3.342000      9.590000     -4.434000
H          -7.286000     10.143000     -4.644000
H          -8.888000      8.263000     -5.610000
H           5.602000     -0.818000     -3.150000
C           4.712000     -2.884000     -3.490000
H           4.914000     -1.669000     -1.727000
H           4.558000     -2.661000     -4.553000
H           3.772000     -3.431000     -3.343000
C           6.044000     -3.702000     -3.446000
H           6.897000     -3.021000     -3.559000
C           6.188000     -4.733000     -4.570000
H           6.147000     -4.214000     -2.481000
H           5.914000     -4.202000     -5.490000
H           5.429000     -5.507000     -4.402000
C           7.649000     -5.301000     -4.616000
H           8.480000     -4.590000     -4.691000
C           7.838000     -6.204000     -5.767000
H           7.763000     -5.886000     -3.695000
H           8.912000     -6.380000     -5.905000
H           7.434000     -5.805000     -6.705000
H           7.457000     -7.209000     -5.546000
$end

--------------------------------------------------------------

             Standard Nuclear Orientation (Angstroms)
    I     Atom           X                Y                Z
 ----------------------------------------------------------------
    1      C      -1.6678735188     5.9737745764    -0.7558031087
    2      C      -1.9050858400     5.5511864413     0.5695178270
    3      N      -0.6300416874     5.5689520576    -1.4777427309
    4      C      -0.8863890178     4.7766746572     1.2242897573
    5      C       0.2438863550     4.6984808872    -0.8987058423
    6      C       0.1960253916     4.2631267171     0.4686280872
    7      C       1.3125495599     3.3726271352     0.9870268490
    8      C       1.4893898807     2.1621689829     0.3290469387
    9      C       2.2151420861     3.8082189723     1.9674535331
   10      N       2.5156542309     1.3627248476     0.5855085498
   11      N       2.0882886669     4.8417479393     2.7424264903
   12      C       3.3815992453     3.0395466518     2.1287097256
   13      C       3.5286617547     1.8717103541     1.3514710234
   14      S       3.4470661652     4.8121555559     3.6878687154
   15      N       4.2590694177     3.5403768388     3.0059965773
   16      C       4.8158262372     1.1746930043     1.1312179667
   17      S       4.9491919005    -0.5814873112     0.7530152442
   18      C       6.0578035528     1.7897276848     0.8882803426
   19      C       6.6048919331    -0.4116685159     0.2323397419
   20      S       6.3822772650     3.3998922504     0.8699259985
   21      C       6.9585199700     0.9091449488     0.3001188164
   22      C       7.5283775540    -1.5034209578    -0.0372579465
   23      C       7.8906603276     3.0099394087    -0.0416618018
   24      C       8.1035002137     1.6901152034    -0.0904905832
   25      N       7.3284878117    -2.5628172516     0.7152974226
   26      S       8.9370911661    -1.4846157806    -1.1021848569
   27      C       8.4075033763    -3.4246944348     0.5371426237
   28      C       9.3553733718    -3.0230885205    -0.3266033814
   29      C      -2.4255752421     7.0831023720    -1.4802083409
   30      H      -2.7636954749     5.9072720359     1.1306466395
   31      H      -1.0775643497     4.4519744144     2.2430025455
   32      H       1.1442677830     4.3911052848    -1.4271474410
   33      H       0.6673016426     1.9161314272    -0.3404935380
   34      H       8.5604129989     3.7931537396    -0.3710607564
   35      H       9.0045464458     1.2763407926    -0.5290831329
   36      H       8.3962417196    -4.2412628621     1.2466390498
   37      H      10.3371204109    -3.3923316400    -0.5948276716
   38      H      -2.5866688472     6.6476800339    -2.4746464928
   39      C      -1.7745728129     8.4985794335    -1.5396938502
   40      H      -3.4112767845     7.2511241389    -1.0294454819
   41      H      -0.7641074182     8.5394590174    -1.9642083326
   42      H      -1.6594891014     8.8435468519    -0.5051184689
   43      C      -2.6202791427     9.4771415499    -2.3990232330
   44      H      -2.7242653076     9.0882404516    -3.4190839240
   45      C      -1.8535564953    10.8600233614    -2.4786428121
   46      H      -3.6037669508     9.7075851346    -1.9725217845
   47      H      -2.3235439184    11.3464369323    -3.3423439527
   48      H      -0.7769866534    10.7689134943    -2.6714182454
   49      C      -2.0061254314    11.6068948662    -1.1729343167
   50      H      -3.0373444034    11.9634604110    -1.0605490683
   51      C      -1.1923425902    12.8872488721    -1.2572854112
   52      H      -1.7203063055    10.9745303101    -0.3231740590
   53      H      -1.3090972802    13.4550595041    -0.3254225305
   54      H      -1.5276274154    13.4696586332    -2.1239767958
   55      H      -0.1154119415    12.7160554769    -1.3771945399
   56      C       2.3482655183    -3.7190026393    -0.8839946888
   57      C       1.7787123316    -2.4502182016    -0.7468224680
   58      N       1.6261131985    -4.8216480422    -0.7112835355
   59      C       0.4579128812    -2.3645302784    -0.3075282711
   60      C       0.3239751468    -4.7021586749    -0.4373441528
   61      C      -0.3454743791    -3.5118212570    -0.2078421616
   62      C      -1.8398583385    -3.4055019839    -0.1202762201
   63      C      -2.4711327965    -2.3158588113    -0.7278240084
   64      C      -2.7214276184    -4.3384867920     0.4751068099
   65      N      -3.7926256879    -2.1845302266    -0.9099100889
   66      N      -2.3814948276    -5.4965241673     0.9803009659
   67      C      -4.1294799761    -4.1058290907     0.5055198328
   68      C      -4.6423916526    -3.0502795813    -0.3037130419
   69      S      -3.7570894658    -6.1636903471     1.5539721956
   70      N      -4.8937226491    -5.0499061224     1.0809672197
   71      C      -6.1045782868    -2.7290606648    -0.4818075519
   72      S      -7.4996394840    -3.5218577558     0.3071354299
   73      C      -6.5919073745    -1.6328207257    -1.2107234292
   74      C      -8.6269303087    -2.2460611796    -0.2049939412
   75      S      -5.7942567129    -0.3635826339    -2.1067580761
   76      C      -7.9563012024    -1.4186546143    -1.0064800469
   77      C      -9.9262450817    -2.0460271635     0.4746923930
   78      C      -7.3896088066     0.3240003093    -2.4210229220
   79      C      -8.4295400950    -0.2902926470    -1.7422253976
   80      N     -10.6779606087    -1.0102888651     0.2077898946
   81      S     -10.4447919091    -2.8713996154     1.9109578642
   82      C     -11.7764155511    -0.8646212367     1.0053177508
   83      C     -11.8583870697    -1.7732642103     2.0296353855
   84      C       3.7822867162    -3.8742510468    -1.2886020737
   85      H       2.4284351103    -1.5849334501    -0.8473541041
   86      H       0.0900850394    -1.3541014627    -0.1634092675
   87      H      -0.2140251503    -5.6210141556    -0.2084876785
   88      H      -1.9307898380    -1.5206921713    -1.2392978610
   89      H      -7.4138890627     1.2416743052    -2.9943560769
   90      H      -9.4563419593     0.0539080282    -1.6863520874
   91      H     -12.4716346895    -0.0401188044     0.9221366909
   92      H     -12.6201686024    -1.9230554101     2.7839764840
   93      H       3.7583159302    -3.8006971266    -2.3828375247
   94      C       4.4263663579    -5.2098866696    -0.7263504411
   95      H       4.3953887554    -3.0645989055    -0.8746029195
   96      H       3.7892072365    -6.0084803494    -1.1259632397
   97      H       4.2307112606    -5.4169738706     0.3334853830
   98      C       5.8542355340    -5.5291070929    -1.2782308061
   99      H       5.9165812429    -5.2278538333    -2.3315581465
  100      C       6.2221410708    -7.0160667753    -1.2523576713
  101      H       6.6143174887    -4.9668836533    -0.7213122968
  102      H       5.3544110194    -7.5388097160    -1.6733343640
  103      H       6.3029666226    -7.3139186531    -0.1996789506
  104      C       7.5351165026    -7.2755171019    -2.0696960613
  105      H       7.5770818123    -6.9273949539    -3.1083282786
  106      C       7.8374503570    -8.7166817709    -2.1566997232
  107      H       8.3347814310    -6.7881882832    -1.4982867292
  108      H       8.6040773358    -8.8707448659    -2.9261434431
  109      H       6.9660857807    -9.3300360010    -2.4151206270
  110      H       8.3375389489    -9.0699816146    -1.2461407626
 ----------------------------------------------------------------

    9   -5663.5091456906      9.74E-06 Convergence criterion met
 Total energy in the final basis set = -5663.5091456906

                    Orbital Energies (a.u.)
 --------------------------------------------------------------

 Alpha MOs
 -- Occupied --
-88.993 -88.983 -88.933 -88.926 -88.921 -88.919 -88.912 -88.907
-14.399 -14.392 -14.389 -14.382 -14.356 -14.348 -14.346 -14.338
-14.330 -14.316 -10.275 -10.272 -10.270 -10.265 -10.260 -10.257
-10.256 -10.255 -10.246 -10.244 -10.242 -10.239 -10.238 -10.235
-10.234 -10.232 -10.231 -10.230 -10.230 -10.230 -10.229 -10.228
-10.228 -10.222 -10.221 -10.219 -10.217 -10.217 -10.216 -10.212
-10.212 -10.206 -10.206 -10.204 -10.201 -10.201 -10.191 -10.185
-10.183 -10.182 -10.179 -10.178 -10.175 -10.174 -10.171 -10.169
-10.169 -10.166 -10.164 -10.162  -8.049  -8.039  -7.993  -7.984
 -7.982  -7.978  -7.974  -7.967  -6.014  -6.008  -6.006  -6.004
 -5.998  -5.996  -5.957  -5.954  -5.950  -5.948  -5.946  -5.944
 -5.943  -5.942  -5.941  -5.939  -5.939  -5.939  -5.935  -5.935
 -5.931  -5.930  -5.928  -5.923  -1.050  -1.041  -0.973  -0.970
 -0.965  -0.955  -0.938  -0.937  -0.927  -0.921  -0.916  -0.909
 -0.854  -0.839  -0.833  -0.829  -0.815  -0.809  -0.805  -0.802
 -0.796  -0.794  -0.793  -0.790  -0.781  -0.780  -0.770  -0.764
 -0.756  -0.748  -0.745  -0.739  -0.728  -0.718  -0.713  -0.707
 -0.694  -0.691  -0.683  -0.674  -0.653  -0.649  -0.649  -0.638
 -0.636  -0.633  -0.629  -0.617  -0.610  -0.603  -0.602  -0.597
 -0.590  -0.586  -0.586  -0.580  -0.577  -0.570  -0.565  -0.563
 -0.555  -0.553  -0.547  -0.536  -0.530  -0.527  -0.520  -0.513
 -0.508  -0.504  -0.504  -0.496  -0.487  -0.484  -0.480  -0.478
 -0.473  -0.468  -0.466  -0.465  -0.465  -0.455  -0.452  -0.452
 -0.445  -0.444  -0.441  -0.440  -0.438  -0.435  -0.432  -0.429
 -0.427  -0.423  -0.420  -0.419  -0.418  -0.416  -0.413  -0.412
 -0.411  -0.409  -0.408  -0.404  -0.403  -0.401  -0.396  -0.395
 -0.395  -0.391  -0.390  -0.387  -0.386  -0.384  -0.384  -0.382
 -0.375  -0.372  -0.368  -0.366  -0.363  -0.360  -0.359  -0.353
 -0.352  -0.352  -0.351  -0.347  -0.346  -0.345  -0.343  -0.342
 -0.338  -0.333  -0.331  -0.329  -0.327  -0.327  -0.325  -0.318
 -0.317  -0.315  -0.313  -0.305  -0.303  -0.303  -0.301  -0.296
 -0.295  -0.292  -0.290  -0.288  -0.285  -0.283  -0.280  -0.280
 -0.275  -0.269  -0.265  -0.263  -0.262  -0.254  -0.252  -0.245
 -0.243  -0.242  -0.239  -0.229  -0.199  -0.194

          Ground-State Mulliken Net Atomic Charges

     Atom                 Charge (a.u.)
  ----------------------------------------
      1 C                     0.254697
      2 C                    -0.121473
      3 N                    -0.467332
      4 C                    -0.071219
      5 C                     0.078252
      6 C                     0.010228
      7 C                    -0.019723
      8 C                     0.086813
      9 C                     0.303759
     10 N                    -0.505782
     11 N                    -0.558462
     12 C                     0.214986
     13 C                     0.248329
     14 S                     0.595337
     15 N                    -0.546142
     16 C                    -0.218280
     17 S                     0.350950
     18 C                    -0.100533
     19 C                    -0.221315
     20 S                     0.258645
     21 C                     0.136510
     22 C                     0.052115
     23 C                    -0.300275
     24 C                    -0.068091
     25 N                    -0.410571
     26 S                     0.260660
     27 C                     0.126360
     28 C                    -0.305203
     29 C                    -0.209762
     30 H                     0.094728
     31 H                     0.102278
     32 H                     0.101663
     33 H                     0.120530
     34 H                     0.129256
     35 H                     0.109324
     36 H                     0.120780
     37 H                     0.140333
     38 H                     0.115476
     39 C                    -0.164621
     40 H                     0.084794
     41 H                     0.110089
     42 H                     0.093053
     43 C                    -0.181866
     44 H                     0.092887
     45 C                    -0.175285
     46 H                     0.091336
     47 H                     0.086563
     48 H                     0.091079
     49 C                    -0.167560
     50 H                     0.094006
     51 C                    -0.316405
     52 H                     0.097377
     53 H                     0.093223
     54 H                     0.102767
     55 H                     0.098511
     56 C                     0.284080
     57 C                    -0.126925
     58 N                    -0.484638
     59 C                    -0.100327
     60 C                     0.065768
     61 C                     0.053149
     62 C                     0.060604
     63 C                     0.049811
     64 C                     0.233268
     65 N                    -0.520733
     66 N                    -0.547255
     67 C                     0.197125
     68 C                     0.305340
     69 S                     0.589195
     70 N                    -0.547027
     71 C                    -0.241053
     72 S                     0.299031
     73 C                    -0.089984
     74 C                    -0.243220
     75 S                     0.287494
     76 C                     0.157964
     77 C                     0.074449
     78 C                    -0.323294
     79 C                    -0.038352
     80 N                    -0.444597
     81 S                     0.250208
     82 C                     0.135634
     83 C                    -0.314555
     84 C                    -0.246102
     85 H                     0.115548
     86 H                     0.095524
     87 H                     0.115661
     88 H                     0.112270
     89 H                     0.126090
     90 H                     0.129239
     91 H                     0.118024
     92 H                     0.138248
     93 H                     0.118427
     94 C                    -0.185632
     95 H                     0.119081
     96 H                     0.115634
     97 H                     0.097194
     98 C                    -0.187533
     99 H                     0.085549
    100 C                    -0.175857
    101 H                     0.096504
    102 H                     0.092014
    103 H                     0.090198
    104 C                    -0.169883
    105 H                     0.093582
    106 C                    -0.311355
    107 H                     0.089077
    108 H                     0.088752
    109 H                     0.103685
    110 H                     0.097105
  ----------------------------------------
  Sum of atomic charges =     0.000000

                    Cartesian Multipole Moments
 -----------------------------------------------------------------
    Charge (ESU x 10^10)
                 0.0000
    Dipole Moment (Debye)
         X       1.8106      Y       3.6178      Z       2.0629
       Tot       4.5412
    Quadrupole Moments (Debye-Ang)
        XX    -365.9513     XY      -5.7670     YY    -444.4428
        XZ     -24.7908     YZ       0.3653     ZZ    -443.0602

 Total job time:  86.60s(wall), 941.76s(cpu)
        *  Thank you very much for using Q-Chem.  Have a nice day.  *
