 Q-Chem 4.4, Q-Chem, Inc., Pleasanton, CA (2016)
 Q-Chem 4.4.2 for Intel X86 Linux

User input:
--------------------------------------------------------------
$comment
SP
$end

$rem
MEM_STATIC 5000
MEM_TOTAL 20000
JOBTYPE SP
EXCHANGE B3LYP
BASIS 6-31g(d,p)
$end

$molecule
0 1
C           3.880000     -4.066000     -8.879000
C           3.679000     -3.447000     -7.676000
N           3.242000     -3.724000     -9.966000
C           2.864000     -2.297000     -7.740000
C           2.448000     -2.594000    -10.033000
C           2.238000     -1.817000     -8.881000
C           1.373000     -0.564000     -8.985000
C           1.812000      0.541000     -8.264000
C           0.063000     -0.515000     -9.395000
N           1.216000      1.730000     -8.208000
N          -0.688000     -1.474000    -10.035000
C          -0.566000      0.733000     -9.417000
C          -0.034000      1.824000     -8.771000
S          -1.984000     -0.780000    -10.606000
N          -1.691000      0.786000    -10.085000
C          -0.734000      3.129000     -8.670000
S          -2.277000      3.600000     -9.430000
C          -0.194000      4.245000     -8.110000
C          -2.134000      5.282000     -8.849000
S           1.432000      4.453000     -7.432000
C          -0.930000      5.402000     -8.237000
C          -3.027000      6.407000     -9.218000
C           1.001000      6.175000     -7.223000
C          -0.247000      6.542000     -7.724000
N          -3.974000      6.105000    -10.128000
S          -2.914000      8.119000     -8.901000
C          -4.483000      7.237000    -10.747000
C          -4.087000      8.417000    -10.164000
C           4.815000     -5.309000     -9.017000
H           4.256000     -3.733000     -6.801000
H           2.760000     -1.703000     -6.836000
H           1.999000     -2.387000    -11.003000
H           2.821000      0.473000     -7.858000
H           1.787000      6.807000     -6.833000
H          -0.641000      7.551000     -7.761000
H          -5.082000      7.080000    -11.635000
H          -4.379000      9.387000    -10.544000
H           5.146000     -5.343000    -10.062000
C           4.147000     -6.690000     -8.888000
H           5.688000     -5.142000     -8.375000
H           3.117000     -6.490000     -9.208000
H           4.240000     -7.046000     -7.855000
C           4.757000     -7.793000     -9.747000
H           4.636000     -7.520000    -10.803000
C           4.044000     -9.166000     -9.458000
H           5.842000     -7.897000     -9.616000
H           3.058000     -9.048000     -9.924000
H           4.027000     -9.497000     -8.412000
C           4.621000    -10.324000    -10.350000
H           4.547000    -10.108000    -11.423000
C           3.843000    -11.604000    -10.025000
H           5.684000    -10.553000    -10.211000
H           3.694000    -12.271000    -10.884000
H           2.792000    -11.390000     -9.796000
H           4.268000    -12.141000     -9.168000
C           3.553000     -0.644000     -3.037000
C           3.143000      0.320000     -2.112000
N           2.895000     -0.830000     -4.177000
C           1.954000      1.006000     -2.358000
C           1.845000     -0.050000     -4.449000
C           1.296000      0.890000     -3.593000
C           0.261000      1.891000     -4.016000
C           0.365000      3.203000     -3.544000
C          -0.812000      1.672000     -4.912000
N          -0.352000      4.247000     -3.983000
N          -1.032000      0.573000     -5.587000
C          -1.741000      2.712000     -5.217000
C          -1.409000      4.036000     -4.806000
S          -2.397000      0.832000     -6.445000
N          -2.723000      2.420000     -6.087000
C          -2.211000      5.270000     -5.133000
S          -3.758000      5.361000     -6.025000
C          -1.921000      6.555000     -4.648000
C          -4.040000      7.048000     -5.540000
S          -0.658000      7.166000     -3.608000
C          -2.954000      7.463000     -4.888000
C          -5.391000      7.650000     -5.591000
C          -1.425000      8.752000     -3.722000
C          -2.648000      8.759000     -4.373000
N          -5.626000      8.831000     -5.082000
S          -6.858000      6.794000     -5.949000
C          -6.938000      9.208000     -5.062000
C          -7.813000      8.240000     -5.485000
C           4.786000     -1.460000     -2.796000
H           3.687000      0.392000     -1.174000
H           1.657000      1.698000     -1.577000
H           1.274000     -0.293000     -5.344000
H           1.145000      3.532000     -2.859000
H          -0.960000      9.553000     -3.162000
H          -3.342000      9.590000     -4.434000
H          -7.286000     10.143000     -4.644000
H          -8.888000      8.263000     -5.610000
H           5.602000     -0.818000     -3.150000
C           4.712000     -2.884000     -3.490000
H           4.914000     -1.669000     -1.727000
H           4.558000     -2.661000     -4.553000
H           3.772000     -3.431000     -3.343000
C           6.044000     -3.702000     -3.446000
H           6.897000     -3.021000     -3.559000
C           6.188000     -4.733000     -4.570000
H           6.147000     -4.214000     -2.481000
H           5.914000     -4.202000     -5.490000
H           5.429000     -5.507000     -4.402000
C           7.649000     -5.301000     -4.616000
H           8.480000     -4.590000     -4.691000
C           7.838000     -6.204000     -5.767000
H           7.763000     -5.886000     -3.695000
H           8.912000     -6.380000     -5.905000
H           7.434000     -5.805000     -6.705000
H           7.457000     -7.209000     -5.546000
$end

--------------------------------------------------------------

             Standard Nuclear Orientation (Angstroms)
    I     Atom           X                Y                Z
 ----------------------------------------------------------------
    1      C       7.0373754789    -1.2449914811    -0.8539230730
    2      C       6.3239769873    -0.1453162595    -0.4633491375
    3      N       6.4836320748    -2.4082552629    -1.0678450595
    4      C       4.9240251851    -0.3201132694    -0.4833980005
    5      C       5.1120024815    -2.5807410673    -1.0944139541
    6      C       4.2648181983    -1.4985561297    -0.8010071526
    7      C       2.7543240043    -1.7094876620    -0.8554606071
    8      C       2.0127435367    -0.6667379168    -1.3998119447
    9      C       2.0356940624    -2.6189290379    -0.1185152969
   10      N       0.6896729525    -0.6346908930    -1.5430956407
   11      N       2.4807021091    -3.6938592699     0.6161784045
   12      C       0.6508725272    -2.6580769462    -0.3038953313
   13      C      -0.0234530424    -1.6447799411    -0.9435321075
   14      S       1.2399347703    -4.6114465486     0.9414828723
   15      N       0.0470525867    -3.7158603173     0.1768892558
   16      C      -1.5031544712    -1.5941966457    -1.0491304594
   17      S      -2.6766221790    -2.8279967642    -0.5190353677
   18      C      -2.1880176349    -0.6484721774    -1.7471445546
   19      C      -4.0520184316    -1.9201927511    -1.2055563230
   20      S      -1.5336129701     0.6830356818    -2.7195978211
   21      C      -3.5467400826    -0.8439104488    -1.8573770007
   22      C      -5.4513640892    -2.4024437743    -1.2977554617
   23      C      -3.2257446348     1.0261832441    -3.1818382127
   24      C      -4.1712496838     0.1258951294    -2.6932734647
   25      N      -5.6440910201    -3.6686972004    -0.8787428234
   26      S      -6.8493226717    -1.7345560870    -2.1001517719
   27      C      -6.8243589628    -4.2069966815    -1.3695251093
   28      C      -7.6422381455    -3.2894984781    -1.9846476087
   29      C       8.5944680269    -1.2159915312    -0.9676763150
   30      H       6.8129194091     0.8159256867    -0.3318226036
   31      H       4.3052126559     0.5518327193    -0.2893638629
   32      H       4.7651544194    -3.5871162402    -1.3230084270
   33      H       2.5852191854     0.1073850113    -1.9102493296
   34      H      -3.3597259333     1.8303214598    -3.8922822582
   35      H      -5.2277094360     0.1259933646    -2.9353040046
   36      H      -6.9525708457    -5.2770314536    -1.2666596652
   37      H      -8.5865367942    -3.5566350057    -2.4401716343
   38      H       8.8759405707    -2.0047119747    -1.6757972574
   39      C       9.3835692981    -1.6603773060     0.2772600155
   40      H       8.8796144512    -0.2446600606    -1.3888516835
   41      H       8.6828964012    -2.3412843404     0.7759814829
   42      H       9.6588922520    -0.7793617275     0.8692759118
   43      C      10.6991965088    -2.3784498375    -0.0057362423
   44      H      10.4800419308    -3.3081624325    -0.5460248333
   45      C      11.4459210130    -2.6991043551     1.3420776154
   46      H      11.3624498896    -1.8219792150    -0.6807454268
   47      H      10.8481743124    -3.5064984695     1.7826336573
   48      H      11.6400023491    -1.8484284757     2.0073963233
   49      C      12.7922392795    -3.4712710812     1.0956173292
   50      H      12.6474723028    -4.4073232010     0.5421645747
   51      C      13.4233096269    -3.7693164911     2.4602521339
   52      H      13.5479289377    -2.9419115349     0.5036353943
   53      H      13.9636800877    -4.7236210276     2.5079345897
   54      H      12.6604842924    -3.9716040378     3.2218394615
   55      H      14.0421211674    -2.9384494236     2.8210501292
   56      C       3.5741060067     4.4539003435     0.3603147681
   57      C       2.4782944250     5.2877121672     0.5990108510
   58      N       3.4563335980     3.1304973660     0.4038373954
   59      C       1.2788286557     4.7010205028     1.0013884836
   60      C       2.2548392967     2.5986272156     0.6455181498
   61      C       1.1090888833     3.3076302647     0.9653738463
   62      C      -0.2589824979     2.6926847850     1.0141360528
   63      C      -1.3372323274     3.4141913255     0.4928399593
   64      C      -0.5903152556     1.4016857816     1.4891583438
   65      N      -2.5686906735     2.9288993506     0.2813026320
   66      N       0.2611004757     0.4938854111     1.8926626684
   67      C      -1.9423229411     0.9437599140     1.4958753474
   68      C      -2.9033000070     1.7107530029     0.7745115832
   69      S      -0.6314999856    -0.7928391973     2.3553441987
   70      N      -2.1651683651    -0.3000730768     1.9538135616
   71      C      -4.3479937687     1.3259320352     0.5804452088
   72      S      -5.1954066173    -0.1015748670     1.2447264053
   73      C      -5.3041751049     2.1326618351    -0.0563077123
   74      C      -6.7974384597     0.5417025444     0.8199839564
   75      S      -5.2094782248     3.7094512869    -0.8011953049
   76      C      -6.6061671925     1.6616922219     0.1230166511
   77      C      -8.0277027709     0.0416212912     1.4731106398
   78      C      -6.9457771251     3.5974854860    -1.1002116727
   79      C      -7.5650813485     2.5039010106    -0.5170185024
   80      N      -9.1815579352     0.6256139560     1.2817005377
   81      S      -8.0754426931    -1.0683620059     2.8067698842
   82      C     -10.2070635416     0.1601392160     2.0534158464
   83      C      -9.8368446164    -0.7777020316     2.9834533413
   84      C       4.9067332382     5.0290786035    -0.0104960070
   85      H       2.6445909058     6.3616293755     0.6023738875
   86      H       0.4824326988     5.4017323416     1.2289635237
   87      H       2.2143840960     1.5172444523     0.7683582738
   88      H      -1.2412338765     4.4161045612     0.0771235106
   89      H      -7.4068178784     4.4487698323    -1.5841356189
   90      H      -8.6323325870     2.3198766493    -0.4619927963
   91      H     -11.2090091696     0.5668767441     2.0265357089
   92      H     -10.4271720369    -1.3407041265     3.6950158317
   93      H       4.8335038436     5.1910037451    -1.0929717362
   94      C       6.1109361413     4.1020658177     0.4427485883
   95      H       5.0750432605     5.9859545018     0.4983126521
   96      H       5.9164269833     3.1422099632    -0.0514749705
   97      H       6.0523014800     3.7234836646     1.4711723968
   98      C       7.5126711115     4.5449988090    -0.0903868902
   99      H       7.4095270042     4.9432080620    -1.1077018287
  100      C       8.5353614644     3.4090371064    -0.1941580436
  101      H       7.9291117393     5.3392491962     0.5418484504
  102      H       8.0075278702     2.5855689257    -0.6908761249
  103      H       8.7633269365     3.0809059838     0.8274792256
  104      C       9.8033459649     3.8769998389    -0.9894486745
  105      H       9.6604589661     4.3053633368    -1.9883455758
  106      C      10.7448432443     2.7617495206    -1.2032958170
  107      H      10.2900990753     4.6225820765    -0.3486362710
  108      H      11.4817172793     3.0617173952    -1.9586314581
  109      H      10.2589070054     1.8408903016    -1.5470184824
  110      H      11.3667622561     2.5953147065    -0.3147333851
 ----------------------------------------------------------------

   10   -5663.5132650817      4.92E-06 Convergence criterion met
 Total energy in the final basis set = -5663.5132650817

                    Orbital Energies (a.u.)
 --------------------------------------------------------------

 Alpha MOs
 -- Occupied --
-88.988 -88.983 -88.930 -88.921 -88.920 -88.917 -88.909 -88.906
-14.391 -14.382 -14.378 -14.378 -14.350 -14.348 -14.339 -14.338
-14.329 -14.314 -10.273 -10.271 -10.265 -10.259 -10.256 -10.255
-10.253 -10.245 -10.244 -10.240 -10.239 -10.237 -10.235 -10.233
-10.233 -10.231 -10.229 -10.228 -10.228 -10.227 -10.224 -10.222
-10.222 -10.222 -10.221 -10.220 -10.217 -10.215 -10.215 -10.212
-10.208 -10.202 -10.200 -10.200 -10.199 -10.199 -10.193 -10.192
-10.188 -10.179 -10.179 -10.178 -10.177 -10.177 -10.173 -10.173
-10.172 -10.171 -10.166 -10.165  -8.044  -8.038  -7.991  -7.982
 -7.978  -7.975  -7.968  -7.964  -6.009  -6.004  -6.003  -6.002
 -5.998  -5.996  -5.955  -5.951  -5.948  -5.946  -5.943  -5.942
 -5.939  -5.939  -5.939  -5.935  -5.935  -5.933  -5.931  -5.929
 -5.929  -5.925  -5.924  -5.920  -1.042  -1.041  -0.971  -0.960
 -0.957  -0.955  -0.948  -0.931  -0.916  -0.912  -0.910  -0.905
 -0.841  -0.835  -0.834  -0.833  -0.805  -0.804  -0.803  -0.799
 -0.797  -0.796  -0.793  -0.791  -0.789  -0.774  -0.768  -0.764
 -0.753  -0.748  -0.744  -0.739  -0.719  -0.716  -0.714  -0.704
 -0.695  -0.691  -0.676  -0.675  -0.657  -0.647  -0.644  -0.643
 -0.637  -0.630  -0.625  -0.623  -0.607  -0.605  -0.595  -0.593
 -0.589  -0.586  -0.582  -0.579  -0.576  -0.574  -0.570  -0.564
 -0.554  -0.542  -0.538  -0.537  -0.525  -0.521  -0.513  -0.513
 -0.509  -0.501  -0.497  -0.495  -0.485  -0.483  -0.480  -0.477
 -0.476  -0.474  -0.470  -0.466  -0.463  -0.459  -0.452  -0.449
 -0.447  -0.441  -0.439  -0.436  -0.432  -0.431  -0.430  -0.428
 -0.427  -0.426  -0.424  -0.421  -0.415  -0.415  -0.412  -0.411
 -0.409  -0.408  -0.402  -0.401  -0.400  -0.398  -0.397  -0.395
 -0.393  -0.393  -0.391  -0.388  -0.387  -0.383  -0.380  -0.377
 -0.373  -0.371  -0.369  -0.367  -0.363  -0.356  -0.355  -0.354
 -0.354  -0.352  -0.351  -0.349  -0.345  -0.342  -0.339  -0.336
 -0.332  -0.331  -0.328  -0.327  -0.325  -0.323  -0.321  -0.318
 -0.315  -0.312  -0.310  -0.307  -0.304  -0.302  -0.300  -0.295
 -0.295  -0.290  -0.288  -0.287  -0.284  -0.276  -0.275  -0.273
 -0.271  -0.271  -0.269  -0.259  -0.256  -0.253  -0.252  -0.244
 -0.242  -0.236  -0.232  -0.229  -0.196  -0.192

          Ground-State Mulliken Net Atomic Charges

     Atom                 Charge (a.u.)
  ----------------------------------------
      1 C                     0.267718
      2 C                    -0.101128
      3 N                    -0.490109
      4 C                    -0.121413
      5 C                     0.063758
      6 C                     0.055232
      7 C                    -0.010927
      8 C                     0.068329
      9 C                     0.253258
     10 N                    -0.526726
     11 N                    -0.524548
     12 C                     0.234443
     13 C                     0.298736
     14 S                     0.605667
     15 N                    -0.595240
     16 C                    -0.239573
     17 S                     0.355210
     18 C                    -0.117811
     19 C                    -0.236023
     20 S                     0.290128
     21 C                     0.168101
     22 C                     0.044296
     23 C                    -0.308271
     24 C                    -0.069414
     25 N                    -0.421860
     26 S                     0.289461
     27 C                     0.119107
     28 C                    -0.317980
     29 C                    -0.232099
     30 H                     0.095710
     31 H                     0.121022
     32 H                     0.112179
     33 H                     0.117060
     34 H                     0.126386
     35 H                     0.112609
     36 H                     0.120082
     37 H                     0.135996
     38 H                     0.111880
     39 C                    -0.163799
     40 H                     0.092597
     41 H                     0.111120
     42 H                     0.089432
     43 C                    -0.188836
     44 H                     0.096641
     45 C                    -0.170828
     46 H                     0.090204
     47 H                     0.104253
     48 H                     0.096448
     49 C                    -0.182305
     50 H                     0.093794
     51 C                    -0.325218
     52 H                     0.090774
     53 H                     0.095936
     54 H                     0.098551
     55 H                     0.103442
     56 C                     0.287112
     57 C                    -0.118629
     58 N                    -0.502017
     59 C                    -0.094053
     60 C                     0.074409
     61 C                     0.052164
     62 C                     0.066228
     63 C                     0.054100
     64 C                     0.241236
     65 N                    -0.524280
     66 N                    -0.561281
     67 C                     0.201106
     68 C                     0.318649
     69 S                     0.593125
     70 N                    -0.544971
     71 C                    -0.239489
     72 S                     0.313853
     73 C                    -0.087364
     74 C                    -0.245757
     75 S                     0.282423
     76 C                     0.152887
     77 C                     0.073782
     78 C                    -0.324891
     79 C                    -0.041296
     80 N                    -0.446018
     81 S                     0.257944
     82 C                     0.134634
     83 C                    -0.315285
     84 C                    -0.234775
     85 H                     0.089804
     86 H                     0.097919
     87 H                     0.121380
     88 H                     0.109747
     89 H                     0.124617
     90 H                     0.128670
     91 H                     0.117399
     92 H                     0.138242
     93 H                     0.123349
     94 C                    -0.195919
     95 H                     0.105765
     96 H                     0.118283
     97 H                     0.099877
     98 C                    -0.177127
     99 H                     0.090528
    100 C                    -0.184122
    101 H                     0.088115
    102 H                     0.095852
    103 H                     0.095135
    104 C                    -0.172436
    105 H                     0.096114
    106 C                    -0.320437
    107 H                     0.096742
    108 H                     0.093443
    109 H                     0.109510
    110 H                     0.100553
  ----------------------------------------
  Sum of atomic charges =     0.000000

                    Cartesian Multipole Moments
 -----------------------------------------------------------------
    Charge (ESU x 10^10)
                 0.0000
    Dipole Moment (Debye)
         X      -3.9215      Y       2.6802      Z       0.2641
       Tot       4.7572
    Quadrupole Moments (Debye-Ang)
        XX    -400.2249     XY      26.0136     YY    -421.1627
        XZ       2.0763     YZ      -6.8089     ZZ    -440.4501

 Total job time:  118.98s(wall), 1287.89s(cpu)
        *  Thank you very much for using Q-Chem.  Have a nice day.  *
