 Q-Chem 4.4, Q-Chem, Inc., Pleasanton, CA (2016)
 Q-Chem 4.4.2 for Intel X86 Linux

User input:
--------------------------------------------------------------
$comment
SP
$end

$rem
MEM_STATIC 5000
MEM_TOTAL 20000
JOBTYPE SP
EXCHANGE B3LYP
BASIS 6-31g(d,p)
$end

$molecule
0 1
C           6.002000    -22.134000     -3.686000
C           7.049000    -22.989000     -4.075000
N           6.267000    -20.956000     -3.041000
C           8.395000    -22.704000     -3.706000
C           7.577000    -20.606000     -2.747000
C           8.634000    -21.498000     -3.039000
C          10.123000    -21.055000     -2.845000
C          11.157000    -21.868000     -2.322000
C          10.518000    -19.740000     -3.114000
N          12.430000    -21.467000     -2.137000
N           9.749000    -18.718000     -3.499000
C          11.819000    -19.350000     -2.941000
C          12.819000    -20.254000     -2.458000
S          10.696000    -17.411000     -3.632000
N          12.129000    -18.074000     -3.195000
C          14.198000    -19.989000     -2.116000
S          15.044000    -20.741000     -0.781000
C          15.070000    -19.460000     -3.031000
C          16.631000    -20.223000     -1.437000
S          14.787000    -18.805000     -4.658000
C          16.400000    -19.460000     -2.571000
C          17.941000    -20.424000     -0.926000
C          16.511000    -18.295000     -4.639000
C          17.250000    -18.854000     -3.553000
N          17.894000    -21.405000     -0.053000
S          19.475000    -19.566000     -1.062000
C          19.111000    -21.551000      0.564000
C          20.048000    -20.599000      0.250000
C           4.554000    -22.491000     -4.128000
H           6.815000    -23.902000     -4.615000
H           9.121000    -23.465000     -3.977000
H           7.691000    -19.628000     -2.282000
H          10.893000    -22.870000     -1.985000
H          17.023000    -17.652000     -5.342000
H          18.311000    -18.738000     -3.366000
H          19.194000    -22.325000      1.315000
H          21.055000    -20.360000      0.566000
H           4.367000    -23.571000     -4.096000
C           4.291000    -22.115000     -5.628000
H           3.753000    -21.955000     -3.604000
H           5.149000    -22.477000     -6.209000
H           4.279000    -21.026000     -5.763000
C           2.905000    -22.766000     -6.159000
H           2.723000    -22.538000     -7.217000
C           1.590000    -22.161000     -5.439000
H           2.855000    -23.848000     -5.987000
H           1.748000    -21.076000     -5.483000
H           1.575000    -22.414000     -4.372000
C           0.202000    -22.477000     -6.155000
H          -0.569000    -22.111000     -5.467000
C          -0.043000    -23.929000     -6.442000
H           0.123000    -21.940000     -7.109000
H           0.032000    -24.534000     -5.530000
H           0.606000    -24.284000     -7.253000
H          -1.027000    -23.923000     -6.926000
C           4.472000    -28.449000     -2.330000
C           5.698000    -28.190000     -2.947000
N           3.955000    -27.536000     -1.433000
C           6.520000    -27.097000     -2.528000
C           4.703000    -26.453000     -1.088000
C           6.013000    -26.184000     -1.616000
C           6.885000    -25.002000     -1.113000
C           8.326000    -25.191000     -1.070000
C           6.434000    -23.771000     -0.655000
N           9.174000    -24.330000     -0.542000
N           5.121000    -23.479000     -0.664000
C           7.307000    -22.800000     -0.167000
C           8.683000    -23.091000     -0.203000
S           5.096000    -22.100000      0.172000
N           6.656000    -21.767000      0.301000
C           9.648000    -22.112000      0.430000
S           9.429000    -20.366000      0.562000
C          10.923000    -22.449000      0.849000
C          11.110000    -20.194000      1.182000
S          11.751000    -24.001000      0.770000
C          11.726000    -21.355000      1.234000
C          11.570000    -18.943000      1.524000
C          13.221000    -23.116000      1.355000
C          13.009000    -21.746000      1.478000
N          11.124000    -17.896000      0.946000
S          12.714000    -18.705000      2.805000
C          11.945000    -16.781000      1.270000
C          12.940000    -17.043000      2.211000
C           3.757000    -29.696000     -2.622000
H           6.088000    -28.834000     -3.730000
H           7.473000    -26.870000     -2.997000
H           4.257000    -25.834000     -0.310000
H           8.801000    -26.137000     -1.327000
H          14.125000    -23.668000      1.577000
H          13.706000    -20.970000      1.773000
H          11.803000    -15.856000      0.726000
H          13.602000    -16.290000      2.617000
H           4.414000    -30.553000     -2.426000
C           3.148000    -29.819000     -3.956000
H           2.954000    -29.794000     -1.882000
H           3.872000    -29.421000     -4.679000
H           2.225000    -29.227000     -3.977000
C           2.877000    -31.244000     -4.264000
H           3.796000    -31.826000     -4.118000
C           2.488000    -31.467000     -5.777000
H           2.283000    -31.722000     -3.475000
H           2.309000    -32.520000     -6.030000
H           3.420000    -31.436000     -6.356000
C           1.452000    -30.589000     -6.475000
H           0.569000    -30.451000     -5.840000
C           1.085000    -31.047000     -7.832000
H           1.836000    -29.563000     -6.543000
H           0.306000    -31.819000     -7.830000
H           1.931000    -31.440000     -8.410000
H           0.707000    -30.216000     -8.440000
$end

--------------------------------------------------------------

             Standard Nuclear Orientation (Angstroms)
    I     Atom           X                Y                Z
 ----------------------------------------------------------------
    1      C      -3.3072457818     2.1913499207    -0.3709835345
    2      C      -2.9469107746     1.1240640895    -1.2133698099
    3      N      -2.3504814855     2.8999990049     0.3045551814
    4      C      -1.5939026744     0.6856291122    -1.2924005101
    5      C      -1.0127917258     2.5543355627     0.1775162451
    6      C      -0.6398498423     1.4230044874    -0.5835234054
    7      C       0.8703723641     1.1093785714    -0.8516160611
    8      C       1.4533006042    -0.1804401679    -0.8369093675
    9      C       1.7907733445     2.1443816780    -1.0497109992
   10      N       2.7599592910    -0.4350484886    -1.0451704521
   11      N       1.5653608270     3.4598804649    -0.9975368791
   12      C       3.1125866557     1.8718536242    -1.2802929378
   13      C       3.6125834143     0.5302329537    -1.3040040694
   14      S       2.9750668480     4.2125820924    -1.2600558200
   15      N       3.9460480478     2.9054695662    -1.4408301366
   16      C       4.9769621323     0.0683761567    -1.4222792267
   17      S       5.6222717519    -1.3239096197    -0.5805186837
   18      C       5.7554163016     0.4133618388    -2.4957986655
   19      C       7.0535136865    -1.3691176353    -1.6606722654
   20      S       5.4646474337     1.5663519721    -3.8157646567
   21      C       6.9747741624    -0.2886265748    -2.5254411105
   22      C       8.1682526068    -2.2494373023    -1.6647248426
   23      C       7.1638360241     1.2602652577    -4.3174678133
   24      C       7.7574388388     0.1511026816    -3.6426403700
   25      N       7.8454633147    -3.3221424493    -0.9778407618
   26      S       9.8451940930    -2.1313926261    -2.1955249052
   27      C       8.9344534547    -4.1462826500    -0.8437236322
   28      C      10.1173644640    -3.6408881377    -1.3213918549
   29      C      -4.7983064061     2.6328891485    -0.3349512555
   30      H      -3.7217178393     0.5986779623    -1.7643402535
   31      H      -1.4278066064    -0.1980467917    -1.9016352702
   32      H      -0.3235420867     3.2084175270     0.7093213966
   33      H       0.8136782954    -1.0231316068    -0.5760963296
   34      H       7.7472831537     1.7954497373    -5.0543321291
   35      H       8.7458076700    -0.2574669217    -3.8168354698
   36      H       8.7946894031    -5.0620052948    -0.2852578341
   37      H      11.1517155419    -3.9583876941    -1.3397733496
   38      H      -5.4833695078     1.7787836803    -0.3948294308
   39      C      -5.1812517767     3.5016442475    -1.5836155102
   40      H      -5.0798339928     3.2827177775     0.5028661297
   41      H      -4.7789693151     2.9929399279    -2.4691423231
   42      H      -4.6821326457     4.4783851851    -1.5497446685
   43      C      -6.7871717034     3.6906816085    -1.6933609657
   44      H      -7.0728172790     4.2700862589    -2.5805863351
   45      C      -7.4185479399     4.5626689026    -0.4872713310
   46      H      -7.3260331267     2.7357375314    -1.6705974797
   47      H      -6.7580493744     5.4369328002    -0.4278635673
   48      H      -7.3079426446     4.0435017160     0.4723926211
   49      C      -8.9029608061     5.0929897233    -0.7203684559
   50      H      -9.2055651485     5.5369315233     0.2351875551
   51      C      -9.8955667607     4.0375041346    -1.1094463286
   52      H      -8.9248338893     5.8628322417    -1.5024106959
   53      H      -9.9205878563     3.2233037771    -0.3747043857
   54      H      -9.7181902420     3.6907705511    -2.1357310808
   55      H     -10.8282229096     4.6036053816    -1.2200351438
   56      C      -7.4055113729    -2.9545232265     0.5139287194
   57      C      -6.3956168076    -3.0784184644    -0.4429458476
   58      N      -7.1754483815    -2.2113213987     1.6541870512
   59      C      -5.0679850637    -2.6153327177    -0.1805729380
   60      C      -5.9319098424    -1.7037254218     1.8718478558
   61      C      -4.8260633522    -1.8807506456     0.9701768458
   62      C      -3.3928564934    -1.3871579342     1.3060359461
   63      C      -2.2717247762    -2.1777234276     0.8242467045
   64      C      -3.0520803314    -0.2727691242     2.0613737430
   65      N      -1.0121159810    -1.9559805105     1.1458439084
   66      N      -4.0071211487     0.5414102352     2.5454429613
   67      C      -1.7262835308     0.0440575940     2.3529173492
   68      C      -0.7285577300    -0.7831795225     1.8055829181
   69      S      -3.1485365397     1.4909004292     3.5264948665
   70      N      -1.6487075678     1.0715357393     3.1580164927
   71      C       0.7119427314    -0.5408308374     2.2012855027
   72      S       1.4263804936     1.0097270623     2.6476596549
   73      C       1.7084514190    -1.4960027905     2.1044765384
   74      C       3.0619259807     0.2585857784     2.6705229720
   75      S       1.6119126198    -3.1562332255     1.5258193318
   76      C       3.0127658315    -1.0140907450     2.3419522086
   77      C       4.1473477109     1.0340794545     3.0082125127
   78      C       3.4168280443    -3.1964533775     1.6901745866
   79      C       3.9483586252    -1.9682558375     2.0722466275
   80      N       4.1594384978     2.2887291105     2.7738686339
   81      S       5.5207277422     0.3777296730     3.8384975566
   82      C       5.4750086048     2.7985873476     2.9515252459
   83      C       6.3963131395     1.8762480544     3.4461343671
   84      C      -8.6905167149    -3.6320125904     0.3107848467
   85      H      -6.5717550187    -3.5699660264    -1.3954590102
   86      H      -4.2677506918    -2.6927273471    -0.9108701525
   87      H      -5.8161743857    -1.2081883868     2.8353878658
   88      H      -2.4040878039    -3.1165249324     0.2878496842
   89      H       3.9504527509    -4.1200275135     1.5072552389
   90      H       4.9851878223    -1.6872589541     2.2172844416
   91      H       5.6886583940     3.8089111895     2.6269878798
   92      H       7.4183351187     2.1203796770     3.7029608159
   93      H      -8.5209045861    -4.7035987140     0.1451077341
   94      C      -9.5718056077    -3.0906453130    -0.7360281061
   95      H      -9.2381053347    -3.5867690255     1.2595275532
   96      H      -8.9373793212    -2.8501321021    -1.5991420513
   97      H     -10.0546012521    -2.1828899613    -0.3542918264
   98      C     -10.5776439849    -4.1058108347    -1.1318287157
   99      H     -10.0640876012    -5.0394845169    -1.3947246949
  100      C     -11.3663475555    -3.6923348973    -2.4345962802
  101      H     -11.1276958380    -4.4895354008    -0.2634742857
  102      H     -12.0977588402    -4.4442233511    -2.7579541092
  103      H     -10.7066197458    -3.8967361230    -3.2877113698
  104      C     -11.9594768582    -2.2953317239    -2.6018199741
  105      H     -12.4812779450    -1.9833840434    -1.6894766887
  106      C     -12.8100803933    -2.1376650980    -3.8007848865
  107      H     -11.1448868772    -1.5612947010    -2.6506954468
  108      H     -13.8442514479    -2.4661602339    -3.6413791915
  109      H     -12.4325224115    -2.6686515902    -4.6838207383
  110      H     -12.8553547677    -1.0883738388    -4.1170870908
 ----------------------------------------------------------------

   10   -5663.4567917257      3.68E-06 Convergence criterion met
 Total energy in the final basis set = -5663.4567917257

                    Orbital Energies (a.u.)
 --------------------------------------------------------------

 Alpha MOs
 -- Occupied --
-88.985 -88.979 -88.928 -88.920 -88.918 -88.916 -88.913 -88.907
-14.379 -14.377 -14.376 -14.369 -14.355 -14.337 -14.335 -14.335
-14.332 -14.332 -10.263 -10.262 -10.256 -10.248 -10.248 -10.247
-10.242 -10.242 -10.240 -10.236 -10.234 -10.233 -10.231 -10.230
-10.230 -10.230 -10.229 -10.229 -10.228 -10.228 -10.228 -10.228
-10.226 -10.225 -10.224 -10.223 -10.223 -10.221 -10.220 -10.219
-10.214 -10.213 -10.205 -10.202 -10.200 -10.200 -10.195 -10.192
-10.187 -10.186 -10.185 -10.182 -10.180 -10.178 -10.178 -10.178
-10.178 -10.176 -10.171 -10.169  -8.041  -8.035  -7.989  -7.981
 -7.976  -7.974  -7.972  -7.966  -6.006  -6.000  -6.000  -5.999
 -5.994  -5.993  -5.953  -5.950  -5.946  -5.945  -5.942  -5.941
 -5.939  -5.938  -5.937  -5.937  -5.935  -5.934  -5.932  -5.931
 -5.930  -5.928  -5.927  -5.922  -1.054  -1.037  -0.972  -0.970
 -0.959  -0.957  -0.927  -0.922  -0.917  -0.911  -0.904  -0.897
 -0.836  -0.833  -0.830  -0.823  -0.822  -0.811  -0.804  -0.801
 -0.800  -0.796  -0.794  -0.792  -0.790  -0.777  -0.767  -0.761
 -0.753  -0.744  -0.744  -0.736  -0.717  -0.714  -0.711  -0.701
 -0.694  -0.689  -0.678  -0.667  -0.656  -0.647  -0.646  -0.638
 -0.634  -0.631  -0.625  -0.624  -0.612  -0.608  -0.602  -0.599
 -0.597  -0.591  -0.588  -0.582  -0.579  -0.573  -0.569  -0.550
 -0.547  -0.542  -0.540  -0.536  -0.522  -0.519  -0.511  -0.510
 -0.503  -0.501  -0.498  -0.492  -0.488  -0.481  -0.478  -0.472
 -0.472  -0.467  -0.466  -0.464  -0.463  -0.459  -0.449  -0.446
 -0.443  -0.440  -0.439  -0.437  -0.436  -0.434  -0.433  -0.431
 -0.429  -0.428  -0.426  -0.422  -0.418  -0.415  -0.414  -0.409
 -0.407  -0.405  -0.404  -0.403  -0.398  -0.396  -0.394  -0.392
 -0.390  -0.387  -0.386  -0.385  -0.385  -0.381  -0.379  -0.376
 -0.374  -0.370  -0.370  -0.369  -0.368  -0.363  -0.358  -0.357
 -0.355  -0.352  -0.349  -0.346  -0.343  -0.341  -0.339  -0.338
 -0.337  -0.335  -0.334  -0.334  -0.327  -0.324  -0.320  -0.318
 -0.314  -0.314  -0.305  -0.305  -0.302  -0.301  -0.299  -0.296
 -0.295  -0.291  -0.289  -0.288  -0.285  -0.283  -0.280  -0.279
 -0.272  -0.264  -0.262  -0.259  -0.252  -0.250  -0.249  -0.245
 -0.239  -0.238  -0.228  -0.226  -0.193  -0.190

          Ground-State Mulliken Net Atomic Charges

     Atom                 Charge (a.u.)
  ----------------------------------------
      1 C                     0.277640
      2 C                    -0.114799
      3 N                    -0.509155
      4 C                    -0.069659
      5 C                     0.091235
      6 C                     0.009615
      7 C                     0.015075
      8 C                     0.057232
      9 C                     0.294366
     10 N                    -0.511615
     11 N                    -0.566468
     12 C                     0.174051
     13 C                     0.262975
     14 S                     0.595003
     15 N                    -0.544383
     16 C                    -0.201095
     17 S                     0.370640
     18 C                    -0.128429
     19 C                    -0.220044
     20 S                     0.272800
     21 C                     0.149099
     22 C                     0.058677
     23 C                    -0.293765
     24 C                    -0.097049
     25 N                    -0.432332
     26 S                     0.264311
     27 C                     0.128693
     28 C                    -0.320396
     29 C                    -0.219930
     30 H                     0.088564
     31 H                     0.109965
     32 H                     0.140475
     33 H                     0.129279
     34 H                     0.128100
     35 H                     0.100735
     36 H                     0.111680
     37 H                     0.139341
     38 H                     0.111492
     39 C                    -0.189718
     40 H                     0.119887
     41 H                     0.091087
     42 H                     0.108260
     43 C                    -0.189444
     44 H                     0.092329
     45 C                    -0.190212
     46 H                     0.097270
     47 H                     0.092155
     48 H                     0.094607
     49 C                    -0.181470
     50 H                     0.095848
     51 C                    -0.306919
     52 H                     0.091686
     53 H                     0.106083
     54 H                     0.103467
     55 H                     0.098771
     56 C                     0.271060
     57 C                    -0.117049
     58 N                    -0.489591
     59 C                    -0.096417
     60 C                     0.086019
     61 C                     0.054559
     62 C                     0.021716
     63 C                     0.051628
     64 C                     0.195544
     65 N                    -0.509136
     66 N                    -0.546831
     67 C                     0.285578
     68 C                     0.266483
     69 S                     0.620221
     70 N                    -0.558072
     71 C                    -0.222450
     72 S                     0.326541
     73 C                    -0.140238
     74 C                    -0.251378
     75 S                     0.280757
     76 C                     0.225897
     77 C                     0.069944
     78 C                    -0.312014
     79 C                    -0.066155
     80 N                    -0.440385
     81 S                     0.253912
     82 C                     0.105967
     83 C                    -0.295487
     84 C                    -0.241956
     85 H                     0.086982
     86 H                     0.097893
     87 H                     0.119066
     88 H                     0.109298
     89 H                     0.133571
     90 H                     0.118748
     91 H                     0.117436
     92 H                     0.133187
     93 H                     0.106893
     94 C                    -0.155392
     95 H                     0.118735
     96 H                     0.092404
     97 H                     0.112253
     98 C                    -0.189085
     99 H                     0.089324
    100 C                    -0.187491
    101 H                     0.094703
    102 H                     0.085668
    103 H                     0.089366
    104 C                    -0.162725
    105 H                     0.095219
    106 C                    -0.323541
    107 H                     0.096022
    108 H                     0.106524
    109 H                     0.100142
    110 H                     0.100525
  ----------------------------------------
  Sum of atomic charges =     0.000000

                    Cartesian Multipole Moments
 -----------------------------------------------------------------
    Charge (ESU x 10^10)
                 0.0000
    Dipole Moment (Debye)
         X       2.6429      Y      -1.1691      Z      -2.3207
       Tot       3.7064
    Quadrupole Moments (Debye-Ang)
        XX    -383.2023     XY       2.7984     YY    -432.9690
        XZ      12.6464     YZ       0.8251     ZZ    -439.8273

 Total job time:  118.88s(wall), 1266.19s(cpu)
        *  Thank you very much for using Q-Chem.  Have a nice day.  *
