 Q-Chem 4.4, Q-Chem, Inc., Pleasanton, CA (2016)
 Q-Chem 4.4.2 for Intel X86 Linux

User input:
--------------------------------------------------------------
$comment
SP
$end

$rem
MEM_STATIC 5000
MEM_TOTAL 20000
JOBTYPE SP
EXCHANGE B3LYP
BASIS 6-31g(d,p)
$end

$molecule
0 1
C           3.741000    -30.911000      1.263000
C           3.083000    -30.184000      2.182000
N           4.778000    -30.350000      0.610000
C           3.466000    -28.910000      2.533000
C           5.218000    -29.138000      0.985000
C           4.633000    -28.348000      2.055000
C           4.914000    -26.958000      2.437000
C           3.869000    -26.038000      2.676000
C           6.189000    -26.475000      2.520000
N           4.061000    -24.745000      2.996000
N           7.305000    -27.279000      2.408000
C           6.433000    -25.115000      2.828000
C           5.335000    -24.301000      3.037000
S           8.502000    -26.228000      2.548000
N           7.706000    -24.830000      2.885000
C           5.435000    -22.852000      3.360000
S           6.999000    -22.025000      3.360000
C           4.399000    -21.998000      3.801000
C           6.273000    -20.659000      4.131000
S           2.764000    -22.377000      4.217000
C           4.940000    -20.847000      4.290000
C           6.929000    -19.461000      4.583000
C           2.745000    -20.683000      5.007000
C           3.945000    -20.042000      4.927000
N           6.739000    -18.948000      5.766000
S           8.098000    -18.677000      3.551000
C           7.597000    -17.850000      5.956000
C           8.366000    -17.598000      4.870000
C           3.162000    -32.220000      0.680000
H           2.212000    -30.658000      2.625000
H           2.884000    -28.309000      3.225000
H           5.985000    -28.657000      0.381000
H           2.816000    -26.295000      2.572000
H           1.755000    -20.435000      5.366000
H           4.161000    -19.047000      5.301000
H           7.615000    -17.278000      6.874000
H           9.069000    -16.793000      4.703000
H           2.134000    -32.341000      1.045000
C           3.969000    -33.517000      0.831000
H           3.065000    -31.946000     -0.377000
H           4.002000    -33.797000      1.891000
H           4.983000    -33.316000      0.464000
C           3.296000    -34.629000      0.040000
H           2.245000    -34.687000      0.350000
C           3.983000    -35.966000      0.383000
H           3.263000    -34.410000     -1.034000
H           3.661000    -36.179000      1.410000
H           5.053000    -35.907000      0.150000
C           3.489000    -37.139000     -0.483000
H           2.407000    -37.162000     -0.663000
C           4.041000    -38.429000      0.147000
H           3.809000    -36.994000     -1.522000
H           5.091000    -38.384000      0.463000
H           3.972000    -39.210000     -0.621000
H           3.364000    -38.769000      0.940000
C           4.472000    -28.449000     -2.330000
C           5.698000    -28.190000     -2.947000
N           3.955000    -27.536000     -1.433000
C           6.520000    -27.097000     -2.528000
C           4.703000    -26.453000     -1.088000
C           6.013000    -26.184000     -1.616000
C           6.885000    -25.002000     -1.113000
C           8.326000    -25.191000     -1.070000
C           6.434000    -23.771000     -0.655000
N           9.174000    -24.330000     -0.542000
N           5.121000    -23.479000     -0.664000
C           7.307000    -22.800000     -0.167000
C           8.683000    -23.091000     -0.203000
S           5.096000    -22.100000      0.172000
N           6.656000    -21.767000      0.301000
C           9.648000    -22.112000      0.430000
S           9.429000    -20.366000      0.562000
C          10.923000    -22.449000      0.849000
C          11.110000    -20.194000      1.182000
S          11.751000    -24.001000      0.770000
C          11.726000    -21.355000      1.234000
C          11.570000    -18.943000      1.524000
C          13.221000    -23.116000      1.355000
C          13.009000    -21.746000      1.478000
N          11.124000    -17.896000      0.946000
S          12.714000    -18.705000      2.805000
C          11.945000    -16.781000      1.270000
C          12.940000    -17.043000      2.211000
C           3.757000    -29.696000     -2.622000
H           6.088000    -28.834000     -3.730000
H           7.473000    -26.870000     -2.997000
H           4.257000    -25.834000     -0.310000
H           8.801000    -26.137000     -1.327000
H          14.125000    -23.668000      1.577000
H          13.706000    -20.970000      1.773000
H          11.803000    -15.856000      0.726000
H          13.602000    -16.290000      2.617000
H           4.414000    -30.553000     -2.426000
C           3.148000    -29.819000     -3.956000
H           2.954000    -29.794000     -1.882000
H           3.872000    -29.421000     -4.679000
H           2.225000    -29.227000     -3.977000
C           2.877000    -31.244000     -4.264000
H           3.796000    -31.826000     -4.118000
C           2.488000    -31.467000     -5.777000
H           2.283000    -31.722000     -3.475000
H           2.309000    -32.520000     -6.030000
H           3.420000    -31.436000     -6.356000
C           1.452000    -30.589000     -6.475000
H           0.569000    -30.451000     -5.840000
C           1.085000    -31.047000     -7.832000
H           1.836000    -29.563000     -6.543000
H           0.306000    -31.819000     -7.830000
H           1.931000    -31.440000     -8.410000
H           0.707000    -30.216000     -8.440000
$end

--------------------------------------------------------------

             Standard Nuclear Orientation (Angstroms)
    I     Atom           X                Y                Z
 ----------------------------------------------------------------
    1      C       6.2012110086     1.5837092765    -1.5520924939
    2      C       5.5717589084     2.7647245684    -1.4294265495
    3      N       5.4857643851     0.4486182379    -1.4247996695
    4      C       4.2120184553     2.8648300862    -1.2448980004
    5      C       4.1489120978     0.5178480845    -1.3189592694
    6      C       3.3902877179     1.7570194269    -1.3059810451
    7      C       1.9632546848     1.9638132870    -1.0270580771
    8      C       1.5285606018     2.9746404774    -0.1411599761
    9      C       0.9984966485     1.1564370093    -1.5592126388
   10      N       0.2401235581     3.1924740516     0.1806963871
   11      N       1.2662927307     0.1942259544    -2.5114999610
   12      C      -0.3654835537     1.3357013520    -1.2254128434
   13      C      -0.6781253488     2.3528190780    -0.3424589151
   14      S      -0.1729272771    -0.4584788941    -2.7556969101
   15      N      -1.1510343199     0.4911374102    -1.8374788056
   16      C      -2.0641167161     2.6550742553     0.1065396789
   17      S      -3.4194248222     1.6191463347    -0.3625213842
   18      C      -2.5056642189     3.7915990819     0.8209906018
   19      C      -4.5277087409     2.8139570888     0.2133319109
   20      S      -1.6309731813     5.2117646135     1.2770250869
   21      C      -3.8653173715     3.8604386181     0.7643564864
   22      C      -5.9641172084     2.7797078853     0.1398356077
   23      C      -3.3180546880     5.9465705611     1.6055265474
   24      C      -4.3397332948     5.0973432845     1.3017719475
   25      N      -6.6798524372     3.7841885266    -0.2814715528
   26      S      -6.8133433552     1.3123017861     0.5542934362
   27      C      -8.0351783155     3.4141258466    -0.3448227677
   28      C      -8.2454942366     2.1409430652     0.0663144579
   29      C       7.7405965748     1.4608920328    -1.4902944085
   30      H       6.2064445454     3.6452105865    -1.4679559433
   31      H       3.7274176411     3.8218364437    -1.0772976345
   32      H       3.5987728644    -0.3981030863    -1.1119658480
   33      H       2.2135692865     3.6318839540     0.3921955472
   34      H      -3.2318108279     6.9302021613     2.0476983146
   35      H      -5.3972325427     5.3039376446     1.4265562058
   36      H      -8.8084472453     4.0930631873    -0.6784861456
   37      H      -9.1784918133     1.6056843896     0.1809297810
   38      H       8.1587113807     2.4373056245    -1.2138047937
   39      C       8.4820803376     0.8499107566    -2.6874421477
   40      H       7.8584628600     0.8315064503    -0.6005105429
   41      H       8.3947858090     1.5266665891    -3.5462030041
   42      H       8.0013588724    -0.1094587029    -2.9150451203
   43      C       9.9521121054     0.6719809884    -2.3374398633
   44      H      10.3417235535     1.6336314200    -1.9803735293
   45      C      10.7203001263     0.2751177774    -3.6139874560
   46      H      10.0961442486    -0.0207975547    -1.4996817646
   47      H      10.7309052991     1.1909518049    -4.2180715266
   48      H      10.2991340558    -0.6470544635    -4.0321829833
   49      C      12.1916654612    -0.0892981614    -3.3452755754
   50      H      12.7094916472     0.5609288154    -2.6292351298
   51      C      12.8894965339    -0.1867701628    -4.7124752693
   52      H      12.2440583996    -1.0190752700    -2.7658659548
   53      H      12.3254301527    -0.7181002466    -5.4895843090
   54      H      13.8192697810    -0.7477136914    -4.5530699156
   55      H      13.2249559485     0.8094606934    -5.0251557169
   56      C       4.8468665764    -1.1568100578     1.6355020439
   57      C       4.3033715059    -2.4343716939     1.4828738218
   58      N       4.0057144699    -0.0726687480     1.7857277212
   59      C       2.8990770922    -2.6214677260     1.2857792396
   60      C       2.6624348379    -0.2586460320     1.6742365549
   61      C       2.0493582969    -1.5341768386     1.4204584702
   62      C       0.5228456311    -1.6900138556     1.1838344959
   63      C       0.0809832615    -2.7144009925     0.2513970234
   64      C      -0.4890192189    -0.9221825107     1.7451637676
   65      N      -1.1664288573    -2.8693995775    -0.1475358590
   66      N      -0.1986233395     0.0445262148     2.6342410833
   67      C      -1.8296218796    -1.1111481028     1.4132142065
   68      C      -2.1333852052    -2.1539471705     0.5189821636
   69      S      -1.6254123537     0.7823371845     2.7793964551
   70      N      -2.5916390336    -0.2136156204     1.9821424093
   71      C      -3.5617773142    -2.3082802512     0.0433433478
   72      S      -5.0159332401    -1.8774847197     0.9454224758
   73      C      -3.9196437909    -2.9701659216    -1.1179464283
   74      C      -6.0390448505    -2.6391065655    -0.3245853181
   75      S      -2.8986363863    -3.7812496103    -2.3012537129
   76      C      -5.3068885976    -3.1669279051    -1.2813678716
   77      C      -7.4079189185    -2.6028673404    -0.1888079098
   78      C      -4.4392024490    -4.3409057371    -3.0757156076
   79      C      -5.5694821084    -3.9606840484    -2.3581695400
   80      N      -7.9553092384    -2.5711064209     0.9638256320
   81      S      -8.4637836254    -2.5171167235    -1.5614468109
   82      C      -9.3499172404    -2.8205839021     0.8410595654
   83      C      -9.8125569236    -2.9142976337    -0.4709359606
   84      C       6.3021884617    -0.9751946587     1.6120061463
   85      H       4.9309589780    -3.3207278974     1.4620977434
   86      H       2.4513238519    -3.6045569414     1.1728561228
   87      H       2.0808867393     0.6618426570     1.7174034690
   88      H       0.7776005736    -3.3312513175    -0.3150038920
   89      H      -4.4007916886    -4.8946495819    -4.0047454068
   90      H      -6.6123431383    -4.1766126242    -2.5602233014
   91      H      -9.9271481834    -2.9963665075     1.7397418864
   92      H     -10.8542089883    -3.0310971217    -0.7381584442
   93      H       6.7126796583    -1.4014883449     0.6877309326
   94      C       7.0549025660    -1.4693666294     2.7759569787
   95      H       6.4965825265     0.1003082122     1.5253025001
   96      H       6.6293377597    -2.4450681310     3.0446764894
   97      H       6.9300763034    -0.7594234649     3.6025361385
   98      C       8.4859986370    -1.6360562348     2.4250886116
   99      H       8.5666944285    -2.2560269738     1.5230212793
  100      C       9.2877300038    -2.4218198157     3.5341519147
  101      H       8.9074926133    -0.7165921379     1.9999185251
  102      H      10.3440540361    -2.5777384938     3.2797351215
  103      H       9.0502335978    -3.4860799697     3.4085661605
  104      C       9.1640499948    -2.0669159178     5.0140608574
  105      H       9.2191090899    -0.9815821746     5.1588958045
  106      C      10.1129224762    -2.7856685700     5.8909517508
  107      H       8.1421939414    -2.2819412356     5.3521885239
  108      H      11.0977430749    -2.3060031734     5.9446033637
  109      H      10.2759070790    -3.8318958066     5.6026921652
  110      H       9.7326857839    -2.8459721713     6.9180313648
 ----------------------------------------------------------------

   10   -5663.4867276864      3.82E-06 Convergence criterion met
 Total energy in the final basis set = -5663.4867276864

                    Orbital Energies (a.u.)
 --------------------------------------------------------------

 Alpha MOs
 -- Occupied --
-88.988 -88.986 -88.926 -88.922 -88.920 -88.918 -88.912 -88.905
-14.383 -14.382 -14.380 -14.379 -14.356 -14.349 -14.341 -14.340
-14.329 -14.322 -10.265 -10.261 -10.261 -10.256 -10.251 -10.249
-10.249 -10.249 -10.242 -10.240 -10.237 -10.237 -10.235 -10.235
-10.232 -10.230 -10.229 -10.227 -10.227 -10.226 -10.225 -10.225
-10.225 -10.224 -10.224 -10.221 -10.219 -10.217 -10.215 -10.211
-10.205 -10.200 -10.199 -10.198 -10.198 -10.197 -10.196 -10.182
-10.181 -10.178 -10.177 -10.177 -10.175 -10.174 -10.174 -10.174
-10.173 -10.171 -10.170 -10.169  -8.043  -8.042  -7.987  -7.981
 -7.979  -7.978  -7.971  -7.964  -6.008  -6.007  -6.002  -6.001
 -6.001  -5.999  -5.951  -5.947  -5.945  -5.944  -5.943  -5.942
 -5.941  -5.940  -5.939  -5.938  -5.937  -5.936  -5.934  -5.932
 -5.928  -5.927  -5.925  -5.920  -1.057  -1.045  -0.977  -0.967
 -0.961  -0.960  -0.934  -0.925  -0.919  -0.916  -0.915  -0.911
 -0.841  -0.839  -0.838  -0.830  -0.819  -0.813  -0.807  -0.805
 -0.805  -0.803  -0.798  -0.794  -0.787  -0.781  -0.767  -0.766
 -0.754  -0.749  -0.746  -0.739  -0.724  -0.719  -0.710  -0.707
 -0.696  -0.691  -0.680  -0.673  -0.654  -0.654  -0.647  -0.647
 -0.635  -0.633  -0.623  -0.621  -0.612  -0.605  -0.605  -0.601
 -0.590  -0.589  -0.588  -0.580  -0.578  -0.573  -0.572  -0.566
 -0.552  -0.551  -0.542  -0.541  -0.524  -0.523  -0.516  -0.511
 -0.504  -0.502  -0.498  -0.494  -0.490  -0.488  -0.484  -0.478
 -0.475  -0.474  -0.470  -0.467  -0.460  -0.457  -0.451  -0.447
 -0.445  -0.443  -0.441  -0.439  -0.439  -0.437  -0.435  -0.431
 -0.430  -0.429  -0.422  -0.419  -0.418  -0.417  -0.415  -0.409
 -0.409  -0.403  -0.402  -0.401  -0.399  -0.395  -0.393  -0.392
 -0.392  -0.389  -0.387  -0.386  -0.385  -0.385  -0.381  -0.379
 -0.378  -0.376  -0.373  -0.371  -0.366  -0.362  -0.359  -0.358
 -0.355  -0.352  -0.352  -0.349  -0.346  -0.344  -0.343  -0.341
 -0.340  -0.336  -0.332  -0.331  -0.329  -0.326  -0.325  -0.317
 -0.316  -0.315  -0.314  -0.311  -0.309  -0.306  -0.298  -0.297
 -0.293  -0.292  -0.291  -0.285  -0.284  -0.281  -0.281  -0.277
 -0.277  -0.276  -0.265  -0.259  -0.258  -0.251  -0.248  -0.243
 -0.242  -0.239  -0.232  -0.230  -0.196  -0.192

          Ground-State Mulliken Net Atomic Charges

     Atom                 Charge (a.u.)
  ----------------------------------------
      1 C                     0.280718
      2 C                    -0.128467
      3 N                    -0.501637
      4 C                    -0.070345
      5 C                     0.118534
      6 C                     0.042976
      7 C                     0.026156
      8 C                     0.055921
      9 C                     0.177014
     10 N                    -0.538088
     11 N                    -0.527008
     12 C                     0.270826
     13 C                     0.318340
     14 S                     0.620055
     15 N                    -0.596439
     16 C                    -0.271748
     17 S                     0.364517
     18 C                    -0.112471
     19 C                    -0.206837
     20 S                     0.254142
     21 C                     0.151148
     22 C                     0.020734
     23 C                    -0.321894
     24 C                    -0.015573
     25 N                    -0.424890
     26 S                     0.295766
     27 C                     0.110618
     28 C                    -0.306834
     29 C                    -0.232576
     30 H                     0.078329
     31 H                     0.091185
     32 H                     0.106854
     33 H                     0.119416
     34 H                     0.129216
     35 H                     0.119020
     36 H                     0.115968
     37 H                     0.129445
     38 H                     0.089886
     39 C                    -0.166721
     40 H                     0.119468
     41 H                     0.093359
     42 H                     0.113044
     43 C                    -0.182690
     44 H                     0.088053
     45 C                    -0.160535
     46 H                     0.089270
     47 H                     0.096256
     48 H                     0.099161
     49 C                    -0.185445
     50 H                     0.087995
     51 C                    -0.318804
     52 H                     0.089046
     53 H                     0.106117
     54 H                     0.094699
     55 H                     0.106653
     56 C                     0.278970
     57 C                    -0.110043
     58 N                    -0.485979
     59 C                    -0.100192
     60 C                     0.070039
     61 C                     0.057808
     62 C                     0.014534
     63 C                     0.052025
     64 C                     0.181076
     65 N                    -0.500908
     66 N                    -0.541228
     67 C                     0.276813
     68 C                     0.263969
     69 S                     0.632716
     70 N                    -0.561306
     71 C                    -0.215451
     72 S                     0.339750
     73 C                    -0.140077
     74 C                    -0.245780
     75 S                     0.279846
     76 C                     0.217051
     77 C                     0.069679
     78 C                    -0.325159
     79 C                    -0.061443
     80 N                    -0.437918
     81 S                     0.249760
     82 C                     0.098965
     83 C                    -0.299378
     84 C                    -0.246310
     85 H                     0.088401
     86 H                     0.102169
     87 H                     0.120631
     88 H                     0.111078
     89 H                     0.129235
     90 H                     0.106188
     91 H                     0.118998
     92 H                     0.133325
     93 H                     0.123522
     94 C                    -0.157329
     95 H                     0.119810
     96 H                     0.091220
     97 H                     0.109706
     98 C                    -0.190788
     99 H                     0.090259
    100 C                    -0.186570
    101 H                     0.093097
    102 H                     0.083903
    103 H                     0.089510
    104 C                    -0.162940
    105 H                     0.094360
    106 C                    -0.323115
    107 H                     0.097092
    108 H                     0.105514
    109 H                     0.099981
    110 H                     0.100013
  ----------------------------------------
  Sum of atomic charges =     0.000000

                    Cartesian Multipole Moments
 -----------------------------------------------------------------
    Charge (ESU x 10^10)
                 0.0000
    Dipole Moment (Debye)
         X      -2.1301      Y      -1.3299      Z      -0.8130
       Tot       2.6395
    Quadrupole Moments (Debye-Ang)
        XX    -377.0726     XY       7.5235     YY    -432.3298
        XZ       5.4923     YZ       8.8770     ZZ    -447.1858

 Total job time:  119.05s(wall), 1260.56s(cpu)
        *  Thank you very much for using Q-Chem.  Have a nice day.  *
