 Q-Chem 4.4, Q-Chem, Inc., Pleasanton, CA (2016)
 Q-Chem 4.4.2 for Intel X86 Linux

User input:
--------------------------------------------------------------
$comment
SP
$end

$rem
MEM_STATIC 5000
MEM_TOTAL 20000
JOBTYPE SP
EXCHANGE B3LYP
BASIS 6-31g(d,p)
$end

$molecule
0 1
C         -26.428000     19.421000     -5.278000
C         -25.040000     19.522000     -5.046000
N         -27.105000     18.259000     -5.213000
C         -24.301000     18.339000     -4.942000
C         -26.392000     17.101000     -5.160000
C         -24.991000     17.064000     -5.064000
C         -24.283000     15.807000     -4.723000
C         -23.262000     15.604000     -3.765000
C         -24.688000     14.606000     -5.413000
N         -22.764000     14.373000     -3.447000
N         -25.661000     14.580000     -6.422000
C         -24.086000     13.414000     -5.151000
C         -23.070000     13.289000     -4.174000
S         -25.837000     13.052000     -6.876000
N         -24.720000     12.404000     -5.830000
C         -22.411000     12.115000     -3.760000
S         -21.967000     11.798000     -2.067000
C         -22.267000     10.970000     -4.511000
C         -21.773000     10.052000     -2.368000
S         -22.303000     10.605000     -6.247000
C         -21.969000      9.835000     -3.714000
C         -21.327000      9.131000     -1.359000
C         -21.976000      8.887000     -5.815000
C         -21.854000      8.670000     -4.473000
N         -21.539000      7.840000     -1.556000
S         -20.605000      9.622000      0.116000
C         -21.025000      7.154000     -0.496000
C         -20.634000      7.922000      0.565000
C         -27.283000     20.647000     -5.626000
H         -24.529000     20.474000     -4.936000
H         -23.252000     18.338000     -4.659000
H         -27.005000     16.201000     -5.192000
H         -22.953000     16.436000     -3.134000
H         -21.877000      8.170000     -6.620000
H         -21.593000      7.696000     -4.076000
H         -21.243000      6.115000     -0.287000
H         -20.161000      7.525000      1.453000
H         -26.780000     21.171000     -6.448000
C         -27.618000     21.574000     -4.485000
H         -28.287000     20.311000     -5.916000
H         -27.749000     21.101000     -3.504000
H         -28.586000     22.030000     -4.729000
C         -26.498000     22.655000     -4.269000
H         -25.544000     22.157000     -4.055000
C         -26.984000     23.606000     -3.149000
H         -26.352000     23.242000     -5.184000
H         -27.056000     22.988000     -2.246000
H         -27.969000     24.054000     -3.329000
C         -25.949000     24.699000     -2.706000
H         -25.043000     24.084000     -2.634000
C         -26.523000     25.347000     -1.448000
H         -25.771000     25.446000     -3.489000
H         -25.857000     26.119000     -1.043000
H         -26.741000     24.636000     -0.642000
H         -27.393000     25.945000     -1.744000
C         -23.622000     19.294000     -9.005000
C         -22.560000     19.876000     -8.295000
N         -23.870000     17.977000     -8.814000
C         -21.838000     19.123000     -7.364000
C         -23.086000     17.219000     -8.008000
C         -22.033000     17.762000     -7.214000
C         -21.262000     16.912000     -6.220000
C         -21.182000     15.527000     -6.525000
C         -20.546000     17.309000     -5.024000
N         -20.483000     14.626000     -5.772000
N         -20.459000     18.558000     -4.532000
C         -19.860000     16.366000     -4.239000
C         -19.878000     14.977000     -4.609000
S         -19.523000     18.470000     -3.268000
N         -19.108000     16.892000     -3.209000
C         -19.181000     13.857000     -3.960000
S         -18.814000     12.257000     -4.690000
C         -18.869000     13.707000     -2.596000
C         -18.150000     11.603000     -3.216000
S         -19.395000     14.667000     -1.253000
C         -18.411000     12.447000     -2.189000
C         -17.832000     10.290000     -2.932000
C         -18.945000     13.357000     -0.133000
C         -18.429000     12.230000     -0.752000
N         -18.550000      9.323000     -3.485000
S         -16.515000      9.707000     -1.851000
C         -18.164000      8.103000     -2.961000
C         -17.197000      8.146000     -1.976000
C         -24.580000     20.131000     -9.799000
H         -22.418000     20.949000     -8.384000
H         -20.955000     19.600000     -6.949000
H         -23.366000     16.167000     -7.994000
H         -21.732000     15.166000     -7.393000
H         -19.064000     13.544000      0.926000
H         -18.108000     11.332000     -0.237000
H         -18.693000      7.201000     -3.235000
H         -16.723000      7.420000     -1.328000
H         -24.004000     21.043000    -10.002000
C         -25.909000     20.508000     -8.976000
H         -24.692000     19.589000    -10.746000
H         -25.637000     21.240000     -8.206000
H         -26.295000     19.586000     -8.523000
C         -26.896000     21.209000     -9.988000
H         -26.459000     22.143000    -10.364000
C         -28.203000     21.588000     -9.130000
H         -27.178000     20.532000    -10.803000
H         -27.948000     22.072000     -8.179000
H         -28.792000     20.733000     -8.774000
C         -29.045000     22.754000     -9.780000
H         -28.401000     23.632000     -9.914000
C         -30.240000     23.165000     -8.858000
H         -29.480000     22.359000    -10.706000
H         -30.868000     22.283000     -8.678000
H         -30.865000     23.977000     -9.251000
H         -29.831000     23.487000     -7.892000
$end

--------------------------------------------------------------

             Standard Nuclear Orientation (Angstroms)
    I     Atom           X                Y                Z
 ----------------------------------------------------------------
    1      C       5.6385291957    -0.1811079973    -1.5350710396
    2      C       4.9682332847     0.7591889488    -0.7244453277
    3      N       5.0040952908    -1.1522954358    -2.2185083665
    4      C       3.6106048078     0.5521182875    -0.4591291767
    5      C       3.6954529393    -1.3914598405    -1.9314585742
    6      C       2.9488223531    -0.6081331769    -1.0357308779
    7      C       1.4722923512    -0.7228921098    -0.9702821133
    8      C       0.5081437283     0.3124002854    -0.9713259452
    9      C       0.9080759058    -2.0507063301    -0.9371883195
   10      N      -0.8371374191     0.0862628861    -1.0310713314
   11      N       1.6781690362    -3.2216356038    -0.9002125658
   12      C      -0.4389736870    -2.2352744878    -0.8797079800
   13      C      -1.3430943948    -1.1467284921    -0.8862928797
   14      S       0.6619812084    -4.4620814765    -0.9232849648
   15      N      -0.7389016151    -3.5702123148    -0.9849754301
   16      C      -2.7507898286    -1.1945052951    -0.8942893090
   17      S      -3.7540049245    -0.0630927272    -1.8309531081
   18      C      -3.5194606452    -2.2382949024    -0.4301660158
   19      C      -5.1766663001    -1.1327480919    -1.7380821703
   20      S      -3.2579987026    -3.5639691312     0.7198089803
   21      C      -4.8378372810    -2.2126672412    -0.9531041281
   22      C      -6.4594228092    -0.7737963008    -2.2774589867
   23      C      -4.9514572800    -4.0822891520     0.3902344020
   24      C      -5.6060846119    -3.2881607105    -0.5062922706
   25      N      -7.3451154430    -1.7370489602    -2.4727200233
   26      S      -6.8731714899     0.8210483619    -2.7499762152
   27      C      -8.4857806733    -1.1775497036    -2.9669218185
   28      C      -8.3828073826     0.1347772817    -3.3351885494
   29      C       7.1640450397    -0.1662010897    -1.7017569532
   30      H       5.4585309582     1.6352769394    -0.3101953739
   31      H       3.0075160224     1.2875887934     0.0660927307
   32      H       3.2731692942    -2.2429380699    -2.4638628829
   33      H       0.8373972953     1.3444024553    -1.0828141053
   34      H      -5.3328218608    -4.9435871158     0.9237527936
   35      H      -6.6506170291    -3.4454189280    -0.7484242232
   36      H      -9.2898993335    -1.7447310510    -3.4168379211
   37      H      -9.2145134697     0.7258810017    -3.6939968227
   38      H       7.6002596874    -0.1262698466    -0.6960774431
   39      C       7.7273223268     0.9011317266    -2.6056122276
   40      H       7.4729171017    -1.0717029924    -2.2399728518
   41      H       7.1007715718     1.1880913511    -3.4590402124
   42      H       8.6489681473     0.4891767496    -3.0361445476
   43      C       7.9911497335     2.2400648337    -1.8263367730
   44      H       7.0515219962     2.6019474057    -1.3903818220
   45      C       8.6545100747     3.2274628150    -2.8162838848
   46      H       8.6825879962     2.0670262857    -0.9926217199
   47      H       7.9053091612     3.4147164733    -3.5948409211
   48      H       9.5580313805     2.8425953812    -3.3050121409
   49      C       8.8990269160     4.6720661518    -2.2546294416
   50      H       7.9319244026     4.8526179666    -1.7684620107
   51      C       9.3158454704     5.5299843733    -3.4471824249
   52      H       9.6639026697     4.6897008969    -1.4688584208
   53      H       9.4917218256     6.5742594796    -3.1606130441
   54      H       8.5927124863     5.5259610904    -4.2716480097
   55      H      10.3212669883     5.2168603716    -3.7524706998
   56      C       5.3213682022    -1.1284642891     3.0236808686
   57      C       5.0534582809     0.2125693862     3.3407312680
   58      N       4.3112468289    -1.8792728470     2.5252680672
   59      C       3.7965120999     0.7629022692     3.0718929971
   60      C       3.0587970849    -1.3781641876     2.3870083469
   61      C       2.7373733635    -0.0105387079     2.6327344927
   62      C       1.3578163022     0.5512238000     2.3390983246
   63      C       0.2861524444    -0.3784901424     2.4085141822
   64      C       0.9574243351     1.9130321226     2.0461045275
   65      N      -1.0245388101    -0.0364934804     2.2281320365
   66      N       1.7782595286     2.9735175361     1.9401126737
   67      C      -0.3910588432     2.2448215916     1.8279787239
   68      C      -1.3976969100     1.2196323609     1.8750089653
   69      S       0.8540331485     4.2225071813     1.6805621691
   70      N      -0.6523497508     3.5929364557     1.6960947790
   71      C      -2.8532836961     1.3714646154     1.7349230114
   72      S      -4.1081910244     0.2034956706     2.2721800646
   73      C      -3.5533374224     2.3180121425     0.9640063108
   74      C      -5.4253242474     1.1232140270     1.5935297734
   75      S      -2.9325368067     3.4307282725    -0.2100441182
   76      C      -4.9303573167     2.1108154085     0.8094141896
   77      C      -6.7385515933     0.7339162613     1.4213955592
   78      C      -4.5685192715     3.6435266502    -0.8818165690
   79      C      -5.5459772849     2.8909455545    -0.2511474588
   80      N      -7.0015709190    -0.5414700515     1.1751587073
   81      S      -8.1954406716     1.7906326485     1.4827444846
   82      C      -8.3472008407    -0.6901458264     0.8938268253
   83      C      -9.0930354948     0.4719316002     0.8721537227
   84      C       6.7196638802    -1.6698517355     3.0446052454
   85      H       5.8851079037     0.8346797855     3.6581451239
   86      H       3.6227727687     1.7627889166     3.4585250409
   87      H       2.3352443428    -2.1092588740     2.0302563476
   88      H       0.5322901519    -1.4239036979     2.5895438120
   89      H      -4.6879644814     4.3573922381    -1.6860178896
   90      H      -6.5948143820     2.8831073363    -0.5241846467
   91      H      -8.7368688781    -1.6517192073     0.5904187606
   92      H     -10.1182768267     0.7263373874     0.6359040522
   93      H       7.2430780193    -0.9803466275     3.7194010257
   94      C       7.4214246971    -1.6407915263     1.5980969461
   95      H       6.6284178104    -2.6347875949     3.5581127351
   96      H       7.6440890904    -0.5964521211     1.3481293987
   97      H       6.7188525860    -2.0765169794     0.8764150506
   98      C       8.7911491717    -2.4123289540     1.7333702294
   99      H       9.4545023025    -1.8939506548     2.4376056750
  100      C       9.4728500857    -2.3482683755     0.2776112844
  101      H       8.6321824056    -3.4596014948     2.0162620686
  102      H       9.4455524141    -1.3375418876    -0.1482628799
  103      H       8.9545328191    -2.9155563718    -0.5061064840
  104      C      11.0372569792    -2.5517953987     0.3248110976
  105      H      11.4781661235    -1.8015558535     0.9928797701
  106      C      11.6701768785    -2.3697253368    -1.0940944291
  107      H      11.2174308711    -3.5921140021     0.6214600014
  108      H      11.2038360767    -3.0845419616    -1.7842186566
  109      H      12.7599693063    -2.4941063961    -1.1301473956
  110      H      11.4308526919    -1.3588632213    -1.4476516623
 ----------------------------------------------------------------

   10   -5663.4906838816      8.44E-06 Convergence criterion met
 Total energy in the final basis set = -5663.4906838816

                    Orbital Energies (a.u.)
 --------------------------------------------------------------

 Alpha MOs
 -- Occupied --
-88.992 -88.987 -88.924 -88.923 -88.920 -88.912 -88.904 -88.900
-14.393 -14.387 -14.372 -14.371 -14.345 -14.343 -14.342 -14.337
-14.325 -14.323 -10.266 -10.265 -10.262 -10.262 -10.262 -10.250
-10.248 -10.245 -10.241 -10.240 -10.236 -10.231 -10.230 -10.229
-10.228 -10.227 -10.227 -10.227 -10.227 -10.226 -10.226 -10.224
-10.222 -10.222 -10.222 -10.222 -10.220 -10.218 -10.216 -10.210
-10.208 -10.206 -10.204 -10.203 -10.197 -10.196 -10.194 -10.192
-10.189 -10.188 -10.182 -10.180 -10.180 -10.179 -10.179 -10.179
-10.176 -10.175 -10.174 -10.172  -8.048  -8.042  -7.985  -7.984
 -7.978  -7.971  -7.964  -7.959  -6.013  -6.007  -6.006  -6.006
 -6.001  -6.000  -5.949  -5.948  -5.946  -5.945  -5.942  -5.942
 -5.941  -5.938  -5.935  -5.934  -5.932  -5.929  -5.927  -5.925
 -5.924  -5.921  -5.920  -5.915  -1.052  -1.021  -0.970  -0.966
 -0.952  -0.946  -0.931  -0.928  -0.913  -0.909  -0.900  -0.877
 -0.840  -0.834  -0.829  -0.825  -0.809  -0.807  -0.805  -0.805
 -0.800  -0.799  -0.795  -0.790  -0.780  -0.780  -0.766  -0.763
 -0.747  -0.743  -0.736  -0.735  -0.719  -0.713  -0.709  -0.707
 -0.690  -0.688  -0.671  -0.668  -0.650  -0.649  -0.647  -0.638
 -0.637  -0.629  -0.624  -0.620  -0.606  -0.605  -0.594  -0.590
 -0.589  -0.584  -0.582  -0.579  -0.575  -0.574  -0.572  -0.569
 -0.549  -0.547  -0.538  -0.533  -0.523  -0.520  -0.513  -0.508
 -0.504  -0.501  -0.496  -0.494  -0.485  -0.479  -0.477  -0.474
 -0.472  -0.471  -0.467  -0.465  -0.461  -0.457  -0.449  -0.444
 -0.443  -0.442  -0.437  -0.435  -0.432  -0.430  -0.427  -0.426
 -0.424  -0.423  -0.420  -0.420  -0.416  -0.416  -0.413  -0.411
 -0.408  -0.403  -0.402  -0.400  -0.398  -0.396  -0.395  -0.393
 -0.392  -0.391  -0.389  -0.384  -0.382  -0.380  -0.377  -0.374
 -0.373  -0.372  -0.369  -0.368  -0.365  -0.361  -0.358  -0.357
 -0.356  -0.353  -0.346  -0.345  -0.342  -0.339  -0.339  -0.337
 -0.335  -0.334  -0.332  -0.331  -0.327  -0.325  -0.323  -0.320
 -0.319  -0.318  -0.311  -0.305  -0.300  -0.297  -0.296  -0.294
 -0.290  -0.289  -0.286  -0.285  -0.282  -0.280  -0.279  -0.274
 -0.268  -0.267  -0.266  -0.258  -0.249  -0.247  -0.244  -0.241
 -0.240  -0.236  -0.230  -0.221  -0.194  -0.183

          Ground-State Mulliken Net Atomic Charges

     Atom                 Charge (a.u.)
  ----------------------------------------
      1 C                     0.266109
      2 C                    -0.117438
      3 N                    -0.482880
      4 C                    -0.080695
      5 C                     0.100160
      6 C                     0.035646
      7 C                     0.032455
      8 C                     0.040684
      9 C                     0.192857
     10 N                    -0.534807
     11 N                    -0.545194
     12 C                     0.227208
     13 C                     0.324765
     14 S                     0.619518
     15 N                    -0.567870
     16 C                    -0.238050
     17 S                     0.303910
     18 C                    -0.087717
     19 C                    -0.218314
     20 S                     0.266480
     21 C                     0.162062
     22 C                     0.064637
     23 C                    -0.306744
     24 C                    -0.026488
     25 N                    -0.431902
     26 S                     0.263707
     27 C                     0.107236
     28 C                    -0.300944
     29 C                    -0.229380
     30 H                     0.092262
     31 H                     0.106495
     32 H                     0.117509
     33 H                     0.107411
     34 H                     0.124266
     35 H                     0.119428
     36 H                     0.109853
     37 H                     0.121759
     38 H                     0.107766
     39 C                    -0.178464
     40 H                     0.114094
     41 H                     0.105077
     42 H                     0.096274
     43 C                    -0.186204
     44 H                     0.090801
     45 C                    -0.171032
     46 H                     0.086147
     47 H                     0.091482
     48 H                     0.090852
     49 C                    -0.177946
     50 H                     0.089556
     51 C                    -0.315438
     52 H                     0.090177
     53 H                     0.094623
     54 H                     0.106259
     55 H                     0.106522
     56 C                     0.264187
     57 C                    -0.121731
     58 N                    -0.489339
     59 C                    -0.082052
     60 C                     0.073731
     61 C                     0.035768
     62 C                     0.063102
     63 C                     0.057826
     64 C                     0.210247
     65 N                    -0.537943
     66 N                    -0.540743
     67 C                     0.185793
     68 C                     0.319077
     69 S                     0.607789
     70 N                    -0.538975
     71 C                    -0.216906
     72 S                     0.358161
     73 C                    -0.114521
     74 C                    -0.200098
     75 S                     0.281674
     76 C                     0.100979
     77 C                     0.018513
     78 C                    -0.317084
     79 C                    -0.041869
     80 N                    -0.404613
     81 S                     0.256915
     82 C                     0.115815
     83 C                    -0.298428
     84 C                    -0.228439
     85 H                     0.081356
     86 H                     0.107499
     87 H                     0.107435
     88 H                     0.116904
     89 H                     0.129178
     90 H                     0.124352
     91 H                     0.114697
     92 H                     0.138775
     93 H                     0.091853
     94 C                    -0.178512
     95 H                     0.117925
     96 H                     0.101765
     97 H                     0.135357
     98 C                    -0.176175
     99 H                     0.096725
    100 C                    -0.190399
    101 H                     0.107358
    102 H                     0.089919
    103 H                     0.101536
    104 C                    -0.182407
    105 H                     0.093439
    106 C                    -0.322422
    107 H                     0.095538
    108 H                     0.104982
    109 H                     0.100282
    110 H                     0.097665
  ----------------------------------------
  Sum of atomic charges =     0.000000

                    Cartesian Multipole Moments
 -----------------------------------------------------------------
    Charge (ESU x 10^10)
                 0.0000
    Dipole Moment (Debye)
         X      -1.7132      Y       3.2277      Z       0.3018
       Tot       3.6666
    Quadrupole Moments (Debye-Ang)
        XX    -379.8405     XY       2.9397     YY    -432.3928
        XZ      20.9852     YZ      -6.1731     ZZ    -451.3405

 Total job time:  134.01s(wall), 1451.14s(cpu)
        *  Thank you very much for using Q-Chem.  Have a nice day.  *
