 Q-Chem 4.4, Q-Chem, Inc., Pleasanton, CA (2016)
 Q-Chem 4.4.2 for Intel X86 Linux

User input:
--------------------------------------------------------------
$comment
SP
$end

$rem
MEM_STATIC 5000
MEM_TOTAL 20000
JOBTYPE SP
EXCHANGE B3LYP
BASIS 6-31g(d,p)
$end

$molecule
0 1
C          28.549000     25.884000      3.320000
C          28.060000     24.740000      3.973000
N          27.694000     26.924000      3.049000
C          26.750000     24.638000      4.488000
C          26.400000     26.813000      3.550000
C          25.881000     25.737000      4.277000
C          24.385000     25.696000      4.688000
C          24.055000     24.891000      5.845000
C          23.254000     26.372000      4.120000
N          22.761000     24.831000      6.260000
N          23.472000     27.192000      3.099000
C          22.003000     26.317000      4.683000
C          21.744000     25.439000      5.726000
S          22.061000     27.986000      2.892000
N          21.212000     27.268000      4.082000
C          20.417000     25.294000      6.247000
S          18.956000     26.107000      5.600000
C          20.055000     24.489000      7.323000
C          17.931000     25.375000      6.878000
S          21.082000     23.673000      8.428000
C          18.687000     24.531000      7.631000
C          16.516000     25.545000      6.934000
C          19.598000     23.195000      9.266000
C          18.432000     23.752000      8.744000
N          15.791000     24.727000      7.693000
S          15.691000     26.906000      6.202000
C          14.519000     25.155000      7.619000
C          14.251000     26.288000      6.952000
C          29.961000     26.105000      2.827000
H          28.847000     24.014000      4.158000
H          26.352000     23.841000      5.110000
H          25.821000     27.700000      3.295000
H          24.709000     24.187000      6.357000
H          19.739000     22.739000     10.237000
H          17.457000     23.563000      9.178000
H          13.790000     24.527000      8.114000
H          13.319000     26.811000      6.784000
H          30.253000     25.223000      2.244000
C          30.955000     26.133000      4.005000
H          30.048000     27.027000      2.240000
H          30.937000     25.170000      4.531000
H          30.764000     26.902000      4.764000
C          32.396000     26.277000      3.471000
H          32.626000     25.747000      2.539000
C          33.300000     25.865000      4.626000
H          32.595000     27.339000      3.280000
H          33.094000     24.852000      4.992000
H          33.161000     26.459000      5.538000
C          34.792000     26.068000      4.147000
H          35.135000     25.282000      3.463000
C          35.836000     26.260000      5.279000
H          34.910000     27.043000      3.658000
H          35.995000     25.384000      5.920000
H          35.468000     27.025000      5.974000
H          36.829000     26.423000      4.841000
C          33.071000     24.441000      8.075000
C          31.996000     23.824000      7.363000
N          32.982000     25.759000      8.529000
C          30.766000     24.471000      7.262000
C          31.784000     26.354000      8.392000
C          30.604000     25.785000      7.799000
C          29.275000     26.461000      7.616000
C          28.084000     25.718000      7.648000
C          29.209000     27.849000      7.502000
N          26.857000     26.253000      7.505000
N          30.184000     28.793000      7.491000
C          27.991000     28.414000      7.180000
C          26.797000     27.600000      7.299000
S          29.528000     30.222000      7.355000
N          27.971000     29.733000      7.224000
C          25.426000     28.163000      7.146000
S          24.044000     27.320000      7.966000
C          24.959000     29.123000      6.297000
C          22.878000     28.484000      7.238000
S          25.814000     30.118000      5.153000
C          23.579000     29.367000      6.494000
C          21.479000     28.568000      7.604000
C          24.225000     31.001000      5.026000
C          23.173000     30.415000      5.619000
N          20.710000     29.370000      6.864000
S          20.746000     27.637000      8.862000
C          19.387000     29.280000      7.348000
C          19.244000     28.394000      8.372000
C          34.411000     23.708000      8.111000
H          32.090000     22.863000      6.867000
H          30.050000     24.057000      6.558000
H          31.653000     27.282000      8.946000
H          28.086000     24.642000      7.818000
H          24.204000     31.890000      4.408000
H          22.177000     30.736000      5.336000
H          18.580000     29.906000      6.990000
H          18.422000     28.132000      9.025000
H          34.598000     23.215000      7.149000
C          34.852000     23.016000      9.429000
H          35.148000     24.499000      7.923000
H          34.666000     23.860000     10.106000
H          35.912000     22.742000      9.351000
C          33.899000     21.838000      9.571000
H          32.874000     22.139000      9.321000
C          33.930000     21.176000     10.961000
H          34.135000     21.121000      8.775000
H          34.839000     21.332000     11.556000
H          34.078000     20.124000     10.688000
C          32.665000     21.418000     11.793000
H          32.380000     22.449000     12.035000
C          32.745000     20.589000     13.131000
H          31.838000     21.058000     11.169000
H          33.230000     21.206000     13.897000
H          33.354000     19.689000     12.984000
H          31.735000     20.402000     13.516000
$end

--------------------------------------------------------------

             Standard Nuclear Orientation (Angstroms)
    I     Atom           X                Y                Z
 ----------------------------------------------------------------
    1      C       2.9785360516     2.2843385149    -2.6409297687
    2      C       2.6525855096     0.9517634335    -2.9446827881
    3      N       2.0011115519     3.1290821601    -2.1749732031
    4      C       1.3894003128     0.3800943190    -2.6814593426
    5      C       0.7541030914     2.5620633937    -1.9275512596
    6      C       0.3945510414     1.2261793212    -2.1320068005
    7      C      -1.0652215160     0.7474653240    -1.9117456153
    8      C      -1.2456468336    -0.6565714821    -1.6089233047
    9      C      -2.2911635788     1.4929530355    -1.9204134068
   10      N      -2.5026126638    -1.1285352995    -1.3908681357
   11      N      -2.2167551942     2.8037841927    -2.1167551232
   12      C      -3.4985870586     0.9303254339    -1.5878871333
   13      C      -3.6061652081    -0.4424882369    -1.4157721520
   14      S      -3.7156034365     3.3611314355    -1.7896098994
   15      N      -4.4191622989     1.9386832689    -1.4234526375
   16      C      -4.8811611466    -1.0516438430    -1.1776339478
   17      S      -6.4537876693    -0.1909531172    -1.1651321676
   18      C      -5.0974073743    -2.4050349076    -0.9359415911
   19      C      -7.3260817361    -1.7030421448    -0.7498938824
   20      S      -3.9322834229    -3.6253754016    -0.6279395513
   21      C      -6.4444825424    -2.7390530804    -0.7313142427
   22      C      -8.7466109048    -1.7796655897    -0.6474891530
   23      C      -5.3103505619    -4.7092719925    -0.3848693134
   24      C      -6.5555482401    -4.0858554719    -0.4407583463
   25      N      -9.3376074072    -2.9718574702    -0.6627093392
   26      S      -9.7529078849    -0.3870382543    -0.3058380257
   27      C     -10.6512857383    -2.7557556197    -0.4777952166
   28      C     -11.0762042235    -1.5093517032    -0.2202616113
   29      C       4.3308868862     2.9402009917    -2.8041033928
   30      H       3.5234277135     0.3868512074    -3.2658961636
   31      H       1.1137888885    -0.6669990295    -2.7716306365
   32      H       0.0683792467     3.3159106297    -1.5421525653
   33      H      -0.4928717223    -1.4401361731    -1.6784359427
   34      H      -5.0712421780    -5.6784419988     0.0324970482
   35      H      -7.4806401876    -4.6281787448    -0.2833024590
   36      H     -11.2805233230    -3.6321184637    -0.5608507864
   37      H     -12.0676355753    -1.1212962261    -0.0282881202
   38      H       4.6892002639     2.7190740526    -3.8169169987
   39      C       5.3734336418     2.2852648818    -1.8763863269
   40      H       4.2857136139     4.0194188314    -2.6157679739
   41      H       5.4885800580     1.2249187387    -2.1347975491
   42      H       5.1367047067     2.3172164739    -0.8054701271
   43      C       6.7610435706     2.9155881149    -2.1205262607
   44      H       7.0013446527     3.1792727034    -3.1574205792
   45      C       7.7618387560     1.9433969555    -1.5087760285
   46      H       6.8313738591     3.8446113517    -1.5409613584
   47      H       7.6879010398     0.9320433833    -1.9262184391
   48      H       7.6037722869     1.7505276518    -0.4402642490
   49      C       9.1962913523     2.5859299802    -1.6706743336
   50      H       9.5895335219     2.5087780221    -2.6918056529
   51      C      10.2679983919     2.0877597347    -0.6649435407
   52      H       9.1809279846     3.6418011713    -1.3730672185
   53      H      10.5549579191     1.0344420691    -0.7731753522
   54      H       9.8528186525     2.1392599318     0.3492790748
   55      H      11.2136361369     2.6158034830    -0.8421469691
   56      C       7.8650561399    -1.4401154859     0.0777320019
   57      C       6.8306936138    -1.5386125183    -0.9039250152
   58      N       7.6534838911    -0.7896204021     1.2956212947
   59      C       5.5330951629    -1.1391318180    -0.5902955676
   60      C       6.3916038558    -0.4003752654     1.5488899269
   61      C       5.2536657583    -0.5556918654     0.6835670739
   62      C       3.8504812130    -0.0913981576     0.9522871602
   63      C       2.7522099928    -0.7947619769     0.4320625314
   64      C       3.6255276650     0.9941127610     1.7978390196
   65      N       1.4678898688    -0.4487912347     0.6394970149
   66      N       4.4881906561     1.8056427248     2.4604955533
   67      C       2.3378498860     1.4831930979     1.8933343676
   68      C       1.2488235360     0.6691074068     1.3896687080
   69      S       3.6719693719     2.8677425332     3.2951211055
   70      N       2.1741135120     2.4174757160     2.8111597264
   71      C      -0.1820308817     1.0256502912     1.6030974008
   72      S      -1.4193298070    -0.3017267906     1.5915020529
   73      C      -0.7944309811     2.2444429148     1.6022857703
   74      C      -2.7420782258     0.9045035306     1.7909538832
   75      S      -0.1132917757     3.8396136777     1.4564584060
   76      C      -2.1813514497     2.1314671423     1.8600319416
   77      C      -4.1216694157     0.5587515853     2.0655385538
   78      C      -1.7946692270     4.3878996753     1.8958799928
   79      C      -2.7442532401     3.4392117297     1.9013921683
   80      N      -5.0108690624     1.5537744097     2.0278746834
   81      S      -4.6830902978    -1.0519242073     2.3432867926
   82      C      -6.2898400879     1.0101907031     2.2757352686
   83      C      -6.2823443864    -0.3423258246     2.4327825763
   84      C       9.2781073525    -1.8462620268    -0.3376187628
   85      H       7.0055840807    -1.8988624553    -1.9128880014
   86      H       4.8329872579    -1.0528074145    -1.4161678451
   87      H       6.1865486783    -0.1074872112     2.5772040627
   88      H       2.8818875203    -1.6967152273    -0.1648830883
   89      H      -1.9449397010     5.4512604777     2.0350510690
   90      H      -3.7825986187     3.7490682648     1.8701863603
   91      H      -7.1781257902     1.6156148150     2.4010315405
   92      H      -7.0365134662    -1.0673647136     2.7089792607
   93      H       9.4701262554    -1.5403193597    -1.3734709846
   94      C       9.8585149015    -3.1864241901     0.1892222504
   95      H       9.9126133187    -1.0555570576     0.0823596062
   96      H       9.6143337415    -3.0439443107     1.2500408236
   97      H      10.9370933677    -3.2122532795    -0.0126721534
   98      C       9.0501693211    -4.2546977959    -0.5328760295
   99      H       7.9869075150    -3.9849832798    -0.5541929573
  100      C       9.2239021000    -5.6685875106     0.0519639452
  101      H       9.3239513776    -4.2185353868    -1.5945429574
  102      H      10.1386930458    -5.8484457151     0.6311448770
  103      H       9.4736436799    -6.2388651638    -0.8511138707
  104      C       7.9831647903    -6.1957713204     0.7824851010
  105      H       7.5982119883    -5.6359134972     1.6433686925
  106      C       8.2214253987    -7.6914296040     1.2185162710
  107      H       7.1709073041    -6.1363992662     0.0478983224
  108      H       8.6728689674    -7.6973647865     2.2179328397
  109      H       8.9182257680    -8.1816194320     0.5281010496
  110      H       7.2589165255    -8.2034585765     1.3397474563
 ----------------------------------------------------------------

   10   -5663.4730397969      3.29E-06 Convergence criterion met
 Total energy in the final basis set = -5663.4730397969

                    Orbital Energies (a.u.)
 --------------------------------------------------------------

 Alpha MOs
 -- Occupied --
-88.992 -88.983 -88.926 -88.922 -88.919 -88.914 -88.908 -88.907
-14.377 -14.377 -14.376 -14.370 -14.353 -14.341 -14.341 -14.340
-14.337 -14.324 -10.266 -10.266 -10.264 -10.253 -10.250 -10.249
-10.246 -10.243 -10.242 -10.240 -10.238 -10.237 -10.234 -10.234
-10.233 -10.230 -10.228 -10.227 -10.227 -10.226 -10.226 -10.224
-10.223 -10.222 -10.222 -10.221 -10.221 -10.219 -10.216 -10.215
-10.214 -10.212 -10.204 -10.203 -10.201 -10.200 -10.191 -10.191
-10.184 -10.184 -10.182 -10.180 -10.179 -10.175 -10.175 -10.174
-10.174 -10.172 -10.172 -10.165  -8.048  -8.038  -7.987  -7.983
 -7.977  -7.972  -7.968  -7.966  -6.013  -6.007  -6.006  -6.003
 -5.998  -5.996  -5.951  -5.948  -5.947  -5.944  -5.943  -5.941
 -5.940  -5.938  -5.936  -5.934  -5.933  -5.932  -5.931  -5.929
 -5.928  -5.928  -5.924  -5.922  -1.049  -1.034  -0.977  -0.960
 -0.958  -0.956  -0.930  -0.918  -0.911  -0.909  -0.902  -0.894
 -0.841  -0.840  -0.833  -0.821  -0.812  -0.810  -0.809  -0.807
 -0.805  -0.802  -0.795  -0.794  -0.781  -0.775  -0.765  -0.763
 -0.749  -0.746  -0.741  -0.740  -0.716  -0.716  -0.710  -0.708
 -0.695  -0.691  -0.676  -0.670  -0.655  -0.648  -0.647  -0.640
 -0.633  -0.628  -0.624  -0.623  -0.610  -0.603  -0.594  -0.590
 -0.588  -0.586  -0.584  -0.582  -0.578  -0.575  -0.571  -0.569
 -0.553  -0.550  -0.540  -0.540  -0.524  -0.522  -0.514  -0.511
 -0.505  -0.503  -0.499  -0.492  -0.485  -0.483  -0.476  -0.474
 -0.472  -0.470  -0.466  -0.464  -0.454  -0.453  -0.448  -0.446
 -0.444  -0.438  -0.436  -0.433  -0.431  -0.429  -0.428  -0.426
 -0.424  -0.424  -0.422  -0.421  -0.416  -0.415  -0.415  -0.411
 -0.409  -0.408  -0.406  -0.400  -0.399  -0.396  -0.395  -0.394
 -0.393  -0.391  -0.390  -0.387  -0.387  -0.385  -0.382  -0.380
 -0.375  -0.373  -0.373  -0.366  -0.361  -0.359  -0.359  -0.356
 -0.352  -0.350  -0.349  -0.345  -0.344  -0.341  -0.340  -0.338
 -0.334  -0.332  -0.331  -0.328  -0.326  -0.323  -0.321  -0.320
 -0.315  -0.313  -0.309  -0.306  -0.302  -0.300  -0.296  -0.295
 -0.292  -0.290  -0.289  -0.288  -0.284  -0.282  -0.281  -0.279
 -0.275  -0.265  -0.260  -0.260  -0.260  -0.255  -0.252  -0.244
 -0.241  -0.234  -0.229  -0.226  -0.196  -0.187

          Ground-State Mulliken Net Atomic Charges

     Atom                 Charge (a.u.)
  ----------------------------------------
      1 C                     0.273179
      2 C                    -0.126597
      3 N                    -0.501324
      4 C                    -0.068172
      5 C                     0.050408
      6 C                     0.071440
      7 C                     0.031412
      8 C                     0.058420
      9 C                     0.210015
     10 N                    -0.541962
     11 N                    -0.557589
     12 C                     0.226964
     13 C                     0.356289
     14 S                     0.607734
     15 N                    -0.575621
     16 C                    -0.210010
     17 S                     0.319732
     18 C                    -0.127552
     19 C                    -0.249575
     20 S                     0.285703
     21 C                     0.196776
     22 C                     0.057512
     23 C                    -0.310749
     24 C                    -0.077152
     25 N                    -0.435978
     26 S                     0.259940
     27 C                     0.138302
     28 C                    -0.311556
     29 C                    -0.226343
     30 H                     0.074185
     31 H                     0.097347
     32 H                     0.138682
     33 H                     0.119158
     34 H                     0.121954
     35 H                     0.125794
     36 H                     0.104187
     37 H                     0.133688
     38 H                     0.105119
     39 C                    -0.190079
     40 H                     0.124907
     41 H                     0.088139
     42 H                     0.111067
     43 C                    -0.171452
     44 H                     0.093080
     45 C                    -0.187236
     46 H                     0.099218
     47 H                     0.089613
     48 H                     0.109317
     49 C                    -0.183415
     50 H                     0.088904
     51 C                    -0.329577
     52 H                     0.096712
     53 H                     0.094198
     54 H                     0.111874
     55 H                     0.094668
     56 C                     0.254168
     57 C                    -0.107315
     58 N                    -0.476307
     59 C                    -0.096739
     60 C                     0.093267
     61 C                     0.032800
     62 C                     0.048193
     63 C                     0.064620
     64 C                     0.222881
     65 N                    -0.491483
     66 N                    -0.552694
     67 C                     0.193154
     68 C                     0.250960
     69 S                     0.620553
     70 N                    -0.517229
     71 C                    -0.224579
     72 S                     0.292012
     73 C                    -0.100782
     74 C                    -0.235428
     75 S                     0.268053
     76 C                     0.137731
     77 C                     0.072339
     78 C                    -0.294463
     79 C                    -0.044485
     80 N                    -0.453153
     81 S                     0.288115
     82 C                     0.135179
     83 C                    -0.304405
     84 C                    -0.267034
     85 H                     0.094695
     86 H                     0.100425
     87 H                     0.114080
     88 H                     0.110418
     89 H                     0.119181
     90 H                     0.134749
     91 H                     0.116726
     92 H                     0.135936
     93 H                     0.100976
     94 C                    -0.165904
     95 H                     0.118273
     96 H                     0.119891
     97 H                     0.100999
     98 C                    -0.182842
     99 H                     0.095776
    100 C                    -0.176232
    101 H                     0.086704
    102 H                     0.090918
    103 H                     0.089621
    104 C                    -0.172758
    105 H                     0.099594
    106 C                    -0.326173
    107 H                     0.092321
    108 H                     0.105355
    109 H                     0.105422
    110 H                     0.100218
  ----------------------------------------
  Sum of atomic charges =     0.000000

                    Cartesian Multipole Moments
 -----------------------------------------------------------------
    Charge (ESU x 10^10)
                 0.0000
    Dipole Moment (Debye)
         X      -1.8959      Y      -0.6254      Z       0.1535
       Tot       2.0023
    Quadrupole Moments (Debye-Ang)
        XX    -401.0347     XY      -8.1626     YY    -434.7895
        XZ     -24.5344     YZ       6.0657     ZZ    -446.7763

 Total job time:  126.56s(wall), 1364.52s(cpu)
        *  Thank you very much for using Q-Chem.  Have a nice day.  *
