 Q-Chem 4.4, Q-Chem, Inc., Pleasanton, CA (2016)
 Q-Chem 4.4.2 for Intel X86 Linux

User input:
--------------------------------------------------------------
$comment
SP
$end

$rem
MEM_STATIC 5000
MEM_TOTAL 20000
JOBTYPE SP
EXCHANGE B3LYP
BASIS 6-31g(d,p)
$end

$molecule
0 1
C          -7.085000    -19.662000     -5.761000
C          -6.563000    -18.627000     -4.947000
N          -8.312000    -20.085000     -5.670000
C          -7.305000    -18.082000     -3.900000
C          -9.089000    -19.596000     -4.655000
C          -8.631000    -18.570000     -3.778000
C          -9.484000    -18.259000     -2.565000
C          -8.837000    -17.695000     -1.443000
C         -10.848000    -18.488000     -2.435000
N          -9.487000    -17.486000     -0.255000
N         -11.663000    -18.943000     -3.421000
C         -11.520000    -18.278000     -1.265000
C         -10.799000    -17.896000     -0.139000
S         -13.218000    -18.915000     -2.873000
N         -12.867000    -18.486000     -1.327000
C         -11.498000    -17.800000      1.179000
S         -13.106000    -18.657000      1.661000
C         -10.897000    -17.260000      2.317000
C         -12.839000    -18.149000      3.347000
S          -9.455000    -16.268000      2.495000
C         -11.714000    -17.296000      3.453000
C         -13.819000    -18.394000      4.380000
C          -9.909000    -15.982000      4.171000
C         -11.138000    -16.588000      4.551000
N         -14.845000    -19.105000      3.977000
S         -13.837000    -17.819000      6.070000
C         -15.781000    -19.328000      5.004000
C         -15.345000    -18.788000      6.227000
C          -6.365000    -20.062000     -7.053000
H          -5.527000    -18.349000     -5.121000
H          -6.921000    -17.236000     -3.338000
H         -10.090000    -20.024000     -4.619000
H          -7.815000    -17.322000     -1.477000
H          -9.170000    -15.530000      4.819000
H         -11.452000    -16.593000      5.589000
H         -16.628000    -19.980000      4.840000
H         -15.761000    -18.715000      7.224000
H          -7.037000    -19.815000     -7.884000
C          -5.946000    -21.553000     -7.195000
H          -5.514000    -19.382000     -7.188000
H          -6.676000    -22.348000     -7.000000
H          -5.125000    -21.598000     -6.469000
C          -5.353000    -21.948000     -8.549000
H          -6.141000    -21.999000     -9.311000
C          -4.618000    -23.275000     -8.356000
H          -4.609000    -21.250000     -8.950000
H          -3.661000    -23.067000     -7.861000
H          -4.475000    -23.526000     -9.414000
C          -5.297000    -24.437000     -7.654000
H          -4.692000    -25.352000     -7.624000
C          -6.737000    -24.818000     -8.158000
H          -5.366000    -24.192000     -6.587000
H          -6.684000    -25.572000     -8.952000
H          -7.268000    -23.948000     -8.563000
H          -7.217000    -25.295000     -7.294000
C         -10.265000    -19.979000     10.346000
C          -9.053000    -20.635000      9.931000
N         -11.183000    -19.414000      9.463000
C          -8.750000    -20.646000      8.546000
C         -10.902000    -19.660000      8.160000
C          -9.754000    -20.171000      7.650000
C          -9.460000    -20.309000      6.198000
C          -8.220000    -19.898000      5.627000
C         -10.477000    -20.759000      5.319000
N          -7.988000    -20.032000      4.299000
N         -11.674000    -21.069000      5.734000
C         -10.230000    -20.830000      3.936000
C          -8.942000    -20.489000      3.428000
S         -12.446000    -21.555000      4.386000
N         -11.324000    -21.255000      3.237000
C          -8.570000    -20.826000      2.091000
S          -9.041000    -22.228000      1.103000
C          -7.684000    -20.106000      1.360000
C          -8.061000    -21.748000     -0.229000
S          -6.890000    -18.595000      1.840000
C          -7.462000    -20.613000      0.123000
C          -7.826000    -22.447000     -1.469000
C          -6.090000    -18.698000      0.217000
C          -6.462000    -19.811000     -0.523000
N          -8.362000    -23.598000     -1.530000
S          -6.928000    -21.929000     -2.873000
C          -7.981000    -24.205000     -2.716000
C          -7.243000    -23.470000     -3.576000
C         -10.639000    -19.843000     11.769000
H          -8.303000    -21.000000     10.626000
H          -7.818000    -21.101000      8.222000
H         -11.551000    -19.177000      7.431000
H          -7.407000    -19.530000      6.252000
H          -5.442000    -17.881000     -0.074000
H          -5.947000    -19.971000     -1.464000
H          -8.268000    -25.244000     -2.811000
H          -6.948000    -23.673000     -4.597000
H          -9.729000    -19.920000     12.377000
C         -11.763000    -20.777000     12.220000
H         -10.919000    -18.795000     11.933000
H         -11.401000    -21.812000     12.242000
H         -12.526000    -20.722000     11.434000
C         -12.287000    -20.317000     13.606000
H         -11.420000    -20.243000     14.274000
C         -13.262000    -21.444000     14.189000
H         -12.859000    -19.401000     13.411000
H         -12.894000    -22.458000     13.988000
H         -14.189000    -21.373000     13.607000
C         -13.557000    -21.334000     15.659000
H         -14.385000    -22.001000     15.931000
C         -13.939000    -19.921000     16.092000
H         -12.609000    -21.617000     16.133000
H         -13.050000    -19.284000     16.170000
H         -14.399000    -20.008000     17.084000
H         -14.693000    -19.431000     15.463000
$end

--------------------------------------------------------------

             Standard Nuclear Orientation (Angstroms)
    I     Atom           X                Y                Z
 ----------------------------------------------------------------
    1      C      -8.1214622727     0.2935886553    -0.9445633893
    2      C      -7.4251241882     0.3261290210    -2.1775919358
    3      N      -7.6960239359     0.8981084993     0.1260892060
    4      C      -6.1625872820     0.9079574036    -2.2837724140
    5      C      -6.4576775803     1.4796681886     0.0891889203
    6      C      -5.6828026807     1.5352830193    -1.1058193979
    7      C      -4.2474682573     2.0049262224    -0.9835518436
    8      C      -3.3339083389     1.5652537672    -1.9672618658
    9      C      -3.7280524092     2.8189979387     0.0151129737
   10      N      -1.9920142588     1.8305817325    -1.8869727088
   11      N      -4.4528483859     3.4102255779     0.9992708222
   12      C      -2.3964912366     3.1061048997     0.1104986988
   13      C      -1.5160037299     2.4980055494    -0.7775316672
   14      S      -3.4582111084     4.4044692112     1.8602524038
   15      N      -2.0628800518     3.9755683947     1.1076214637
   16      C      -0.0447407917     2.6916079591    -0.5963012243
   17      S       0.8332761502     3.1919708270     0.9946608275
   18      C       0.8960771622     2.2659409247    -1.5351910759
   19      C       2.3932928264     2.8335985817     0.2137214547
   20      S       0.7058170777     1.7825986807    -3.2160519789
   21      C       2.2199066970     2.5151332723    -1.1548497334
   22      C       3.6522677332     3.1006952220     0.8703458287
   23      C       2.4576606845     1.8140763291    -3.3801895285
   24      C       3.1436305651     2.2237280265    -2.2038784262
   25      N       3.5248325633     3.5200969872     2.1066582637
   26      S       5.3079098174     2.9905598777     0.2117347941
   27      C       4.7664934180     3.7705507266     2.7199324654
   28      C       5.8381127988     3.4408819906     1.8711831341
   29      C      -9.5984735822    -0.1120920260    -0.9055150021
   30      H      -7.8828610380    -0.2059165518    -3.0072065961
   31      H      -5.6785875403     0.9950928600    -3.2518466168
   32      H      -6.1534704601     1.9320866483     1.0321929317
   33      H      -3.6469449196     1.0627044399    -2.8806190099
   34      H       2.8843586717     1.3726377562    -4.2709138484
   35      H       4.2241533515     2.1536827920    -2.1436358064
   36      H       4.8163167241     4.0282084062     3.7689983157
   37      H       6.9168457772     3.5054185915     1.9387419111
   38      H     -10.1639501015     0.7680953293    -0.5758780417
   39      C      -9.9785154059    -1.3057008391     0.0162616594
   40      H      -9.9311981831    -0.2700446375    -1.9395224065
   41      H      -9.6346570160    -1.3246338554     1.0575843513
   42      H      -9.5419856608    -2.1386994831    -0.5482709266
   43      C     -11.4754439009    -1.5980774646     0.1375505274
   44      H     -11.9637725102    -0.8386674994     0.7612657462
   45      C     -11.6203567827    -3.0151830422     0.6936216010
   46      H     -12.0268283961    -1.5910849105    -0.8097969498
   47      H     -11.4244287198    -3.7238580154    -0.1209518926
   48      H     -12.6882160636    -2.9743274018     0.9402414964
   49      C     -10.8396272789    -3.4443201156     1.9226015903
   50      H     -11.0672348742    -4.4636298000     2.2592802943
   51      C     -10.9111564771    -2.4889538704     3.1695722841
   52      H      -9.7861633454    -3.5453907234     1.6340301554
   53      H     -11.7408319406    -2.7710699001     3.8282149574
   54      H     -11.0656420623    -1.4447621392     2.8717739755
   55      H      -9.9828077597    -2.6825146208     3.7219561134
   56      C       8.1126115721    -2.1755149801    -0.8626388054
   57      C       7.2986890104    -3.3489526403    -1.0417452575
   58      N       7.5976131803    -0.9031953756    -0.6226023906
   59      C       5.8907600807    -3.1820090706    -1.0371655819
   60      C       6.2556239466    -0.8899724640    -0.4324023612
   61      C       5.3824042251    -1.8993938895    -0.6725704348
   62      C       3.9035391814    -1.7859193019    -0.5548177249
   63      C       3.0174403938    -2.2706463637    -1.5610138360
   64      C       3.3420625646    -1.0748891609     0.5354162626
   65      N       1.6754538645    -2.1448335803    -1.4246052628
   66      N       4.0749771105    -0.5141336695     1.4571122793
   67      C       1.9482852869    -0.9050919386     0.6208141750
   68      C       1.1018927952    -1.4863422972    -0.3686588012
   69      S       2.9909510451     0.1295791172     2.4865807528
   70      N       1.5830756226    -0.1736665010     1.7152093186
   71      C      -0.3072090881    -1.5864196750    -0.1590439145
   72      S      -1.2132911938    -1.8351652507     1.3511646328
   73      C      -1.2133006553    -1.5751699770    -1.1673238935
   74      C      -2.7375699958    -1.8706953461     0.5509548190
   75      S      -0.8790032264    -1.3491340813    -2.8939130175
   76      C      -2.4953670700    -1.7003492659    -0.7464464125
   77      C      -4.0416275173    -2.1240945368     1.1136704049
   78      C      -2.6710833283    -1.5337952597    -3.0916177410
   79      C      -3.3488704060    -1.7452892084    -1.8997167438
   80      N      -4.0279163590    -2.4332050742     2.3465859250
   81      S      -5.6063685903    -2.0557002759     0.3437018343
   82      C      -5.3177440051    -2.7510474405     2.7409548810
   83      C      -6.3002028609    -2.5858780495     1.8288350046
   84      C       9.5880702093    -2.2236892331    -0.9259005739
   85      H       7.7020128594    -4.3207311018    -1.3095632825
   86      H       5.2641576027    -4.0521635397    -1.2127376030
   87      H       5.7986928035     0.0914131997    -0.3139662618
   88      H       3.3931854575    -2.8117727649    -2.4287787033
   89      H      -3.0794585080    -1.4140678593    -4.0870920310
   90      H      -4.4113724717    -1.9521014658    -1.9677171158
   91      H      -5.4030471144    -3.1621153869     3.7382820705
   92      H      -7.3752778596    -2.6364031744     1.9399023672
   93      H       9.8830053562    -3.1078485954    -1.5046651904
   94      C      10.2836181060    -2.1150846321     0.4318737682
   95      H       9.9117402265    -1.4135771372    -1.5911494837
   96      H      10.1126906989    -3.0298270541     1.0122039525
   97      H       9.7733007875    -1.3010207747     0.9608976529
   98      C      11.7951272166    -1.8416039818     0.2134234481
   99      H      12.1720383552    -2.6174646780    -0.4643428639
  100      C      12.5554995184    -1.9993844170     1.6125597162
  101      H      11.8561264469    -0.7987097469    -0.1226058792
  102      H      12.1726722397    -2.8418898125     2.2021773324
  103      H      12.2899378365    -1.1139838315     2.2030144531
  104      C      14.0495432458    -2.1347003045     1.5148460977
  105      H      14.5063966738    -2.0244341261     2.5066037874
  106      C      14.6884856401    -1.0995352423     0.5928005940
  107      H      14.1894037893    -3.1366962323     1.0906855277
  108      H      14.5430664448    -1.3726373611    -0.4590751070
  109      H      15.7631660675    -1.1011869544     0.8125555735
  110      H      14.3589368456    -0.0657775009     0.7571159128
 ----------------------------------------------------------------

    9   -5663.4885779456      6.68E-06 Convergence criterion met
 Total energy in the final basis set = -5663.4885779456

                    Orbital Energies (a.u.)
 --------------------------------------------------------------

 Alpha MOs
 -- Occupied --
-88.988 -88.978 -88.928 -88.923 -88.918 -88.916 -88.911 -88.899
-14.380 -14.380 -14.372 -14.371 -14.348 -14.344 -14.344 -14.334
-14.330 -14.323 -10.269 -10.258 -10.257 -10.255 -10.245 -10.245
-10.243 -10.243 -10.243 -10.240 -10.240 -10.238 -10.238 -10.237
-10.232 -10.230 -10.228 -10.224 -10.224 -10.224 -10.223 -10.221
-10.219 -10.219 -10.219 -10.218 -10.218 -10.216 -10.215 -10.213
-10.213 -10.212 -10.208 -10.206 -10.204 -10.201 -10.197 -10.192
-10.186 -10.183 -10.183 -10.181 -10.179 -10.179 -10.179 -10.178
-10.177 -10.175 -10.174 -10.169  -8.042  -8.033  -7.988  -7.979
 -7.979  -7.975  -7.970  -7.958  -6.008  -6.002  -6.000  -5.998
 -5.993  -5.991  -5.952  -5.949  -5.945  -5.943  -5.943  -5.940
 -5.939  -5.939  -5.936  -5.935  -5.935  -5.935  -5.932  -5.931
 -5.927  -5.923  -5.919  -5.914  -1.037  -1.027  -0.978  -0.961
 -0.944  -0.943  -0.940  -0.929  -0.916  -0.905  -0.900  -0.889
 -0.835  -0.831  -0.828  -0.828  -0.812  -0.809  -0.808  -0.805
 -0.803  -0.796  -0.792  -0.790  -0.785  -0.779  -0.764  -0.762
 -0.747  -0.745  -0.738  -0.733  -0.719  -0.718  -0.709  -0.706
 -0.691  -0.690  -0.670  -0.669  -0.657  -0.657  -0.645  -0.637
 -0.634  -0.633  -0.622  -0.621  -0.616  -0.608  -0.601  -0.599
 -0.596  -0.589  -0.586  -0.579  -0.573  -0.572  -0.556  -0.549
 -0.538  -0.537  -0.537  -0.534  -0.520  -0.519  -0.515  -0.514
 -0.508  -0.503  -0.498  -0.491  -0.485  -0.480  -0.474  -0.474
 -0.473  -0.469  -0.465  -0.465  -0.463  -0.460  -0.453  -0.447
 -0.447  -0.443  -0.437  -0.437  -0.433  -0.432  -0.429  -0.428
 -0.428  -0.425  -0.421  -0.420  -0.418  -0.416  -0.414  -0.410
 -0.409  -0.405  -0.402  -0.402  -0.401  -0.397  -0.394  -0.394
 -0.392  -0.390  -0.388  -0.385  -0.385  -0.381  -0.378  -0.375
 -0.375  -0.373  -0.372  -0.370  -0.366  -0.363  -0.359  -0.356
 -0.355  -0.347  -0.345  -0.343  -0.343  -0.342  -0.340  -0.335
 -0.333  -0.332  -0.331  -0.327  -0.326  -0.324  -0.322  -0.318
 -0.315  -0.313  -0.311  -0.302  -0.301  -0.298  -0.294  -0.293
 -0.292  -0.289  -0.287  -0.285  -0.282  -0.281  -0.279  -0.279
 -0.274  -0.270  -0.263  -0.261  -0.259  -0.253  -0.249  -0.245
 -0.242  -0.239  -0.227  -0.223  -0.192  -0.185

          Ground-State Mulliken Net Atomic Charges

     Atom                 Charge (a.u.)
  ----------------------------------------
      1 C                     0.276120
      2 C                    -0.129313
      3 N                    -0.472100
      4 C                    -0.079537
      5 C                     0.068393
      6 C                     0.033775
      7 C                     0.054866
      8 C                     0.077414
      9 C                     0.250816
     10 N                    -0.541360
     11 N                    -0.586646
     12 C                     0.229208
     13 C                     0.288275
     14 S                     0.612343
     15 N                    -0.575299
     16 C                    -0.215734
     17 S                     0.373233
     18 C                    -0.125128
     19 C                    -0.248762
     20 S                     0.318964
     21 C                     0.131349
     22 C                     0.091706
     23 C                    -0.310941
     24 C                    -0.093600
     25 N                    -0.444930
     26 S                     0.265056
     27 C                     0.116906
     28 C                    -0.308167
     29 C                    -0.229211
     30 H                     0.084824
     31 H                     0.106808
     32 H                     0.139899
     33 H                     0.104945
     34 H                     0.133563
     35 H                     0.116650
     36 H                     0.126218
     37 H                     0.140391
     38 H                     0.117740
     39 C                    -0.169266
     40 H                     0.087552
     41 H                     0.117989
     42 H                     0.088300
     43 C                    -0.189454
     44 H                     0.094983
     45 C                    -0.168355
     46 H                     0.091231
     47 H                     0.092660
     48 H                     0.086286
     49 C                    -0.193396
     50 H                     0.096109
     51 C                    -0.324433
     52 H                     0.091620
     53 H                     0.106861
     54 H                     0.113271
     55 H                     0.104857
     56 C                     0.240124
     57 C                    -0.115526
     58 N                    -0.485617
     59 C                    -0.082751
     60 C                     0.098598
     61 C                     0.054385
     62 C                    -0.001905
     63 C                     0.067765
     64 C                     0.243127
     65 N                    -0.508983
     66 N                    -0.561668
     67 C                     0.190905
     68 C                     0.253250
     69 S                     0.618911
     70 N                    -0.545476
     71 C                    -0.192465
     72 S                     0.334582
     73 C                    -0.100707
     74 C                    -0.220640
     75 S                     0.283063
     76 C                     0.165406
     77 C                     0.079950
     78 C                    -0.302762
     79 C                    -0.106710
     80 N                    -0.432561
     81 S                     0.279015
     82 C                     0.110328
     83 C                    -0.317467
     84 C                    -0.224812
     85 H                     0.093438
     86 H                     0.104440
     87 H                     0.104630
     88 H                     0.113043
     89 H                     0.115766
     90 H                     0.115527
     91 H                     0.105976
     92 H                     0.146943
     93 H                     0.086721
     94 C                    -0.176747
     95 H                     0.115313
     96 H                     0.093098
     97 H                     0.117642
     98 C                    -0.177199
     99 H                     0.093317
    100 C                    -0.178348
    101 H                     0.108670
    102 H                     0.085899
    103 H                     0.087386
    104 C                    -0.174222
    105 H                     0.092136
    106 C                    -0.312785
    107 H                     0.092586
    108 H                     0.105869
    109 H                     0.095668
    110 H                     0.100321
  ----------------------------------------
  Sum of atomic charges =     0.000000

                    Cartesian Multipole Moments
 -----------------------------------------------------------------
    Charge (ESU x 10^10)
                 0.0000
    Dipole Moment (Debye)
         X       0.2319      Y      -1.3342      Z      -2.0553
       Tot       2.4614
    Quadrupole Moments (Debye-Ang)
        XX    -396.0478     XY       2.0942     YY    -442.3271
        XZ      10.8082     YZ       8.3993     ZZ    -426.6528

 Total job time:  109.49s(wall), 1174.56s(cpu)
        *  Thank you very much for using Q-Chem.  Have a nice day.  *
