 Q-Chem 4.4, Q-Chem, Inc., Pleasanton, CA (2016)
 Q-Chem 4.4.2 for Intel X86 Linux

User input:
--------------------------------------------------------------
$comment
SP
$end

$rem
MEM_STATIC 5000
MEM_TOTAL 20000
JOBTYPE SP
EXCHANGE B3LYP
BASIS 6-31g(d,p)
$end

$molecule
0 1
C          -3.703000    -19.840000      2.820000
C          -3.187000    -20.189000      1.553000
N          -3.555000    -18.578000      3.289000
C          -2.678000    -19.127000      0.765000
C          -3.108000    -17.582000      2.515000
C          -2.629000    -17.763000      1.211000
C          -1.922000    -16.644000      0.475000
C          -0.758000    -16.907000     -0.327000
C          -2.256000    -15.274000      0.599000
N           0.028000    -15.939000     -0.797000
N          -3.362000    -14.797000      1.268000
C          -1.398000    -14.300000      0.127000
C          -0.210000    -14.642000     -0.648000
S          -3.300000    -13.161000      1.156000
N          -1.845000    -13.029000      0.408000
C           0.708000    -13.546000     -1.144000
S           0.422000    -11.818000     -1.008000
C           1.961000    -13.809000     -1.630000
C           2.122000    -11.474000     -1.379000
S           2.875000    -15.283000     -1.616000
C           2.692000    -12.648000     -1.805000
C           2.772000    -10.223000     -1.092000
C           4.275000    -14.345000     -2.118000
C           4.096000    -12.992000     -2.080000
N           3.996000     -9.932000     -1.635000
S           2.056000     -9.064000     -0.017000
C           4.397000     -8.610000     -1.227000
C           3.377000     -7.939000     -0.482000
C          -4.248000    -20.787000      3.827000
H          -3.243000    -21.220000      1.218000
H          -2.143000    -19.412000     -0.136000
H          -3.063000    -16.613000      3.008000
H          -0.450000    -17.923000     -0.571000
H           5.185000    -14.924000     -2.208000
H           4.884000    -12.256000     -2.190000
H           5.306000     -8.151000     -1.592000
H           3.309000     -6.896000     -0.199000
H          -3.420000    -21.186000      4.426000
C          -5.125000    -21.968000      3.329000
H          -4.865000    -20.224000      4.540000
H          -4.627000    -22.690000      2.670000
H          -5.901000    -21.432000      2.768000
C          -5.886000    -22.623000      4.439000
H          -5.198000    -23.187000      5.081000
C          -7.039000    -23.604000      3.992000
H          -6.338000    -21.898000      5.127000
H          -6.736000    -24.252000      3.160000
H          -7.789000    -23.054000      3.411000
C          -7.674000    -24.391000      5.099000
H          -6.880000    -24.696000      5.791000
C          -8.486000    -25.696000      4.626000
H          -8.348000    -23.725000      5.653000
H          -9.233000    -25.345000      3.904000
H          -8.962000    -26.192000      5.481000
H          -7.854000    -26.385000      4.052000
C         -10.265000    -19.979000     10.346000
C          -9.053000    -20.635000      9.931000
N         -11.183000    -19.414000      9.463000
C          -8.750000    -20.646000      8.546000
C         -10.902000    -19.660000      8.160000
C          -9.754000    -20.171000      7.650000
C          -9.460000    -20.309000      6.198000
C          -8.220000    -19.898000      5.627000
C         -10.477000    -20.759000      5.319000
N          -7.988000    -20.032000      4.299000
N         -11.674000    -21.069000      5.734000
C         -10.230000    -20.830000      3.936000
C          -8.942000    -20.489000      3.428000
S         -12.446000    -21.555000      4.386000
N         -11.324000    -21.255000      3.237000
C          -8.570000    -20.826000      2.091000
S          -9.041000    -22.228000      1.103000
C          -7.684000    -20.106000      1.360000
C          -8.061000    -21.748000     -0.229000
S          -6.890000    -18.595000      1.840000
C          -7.462000    -20.613000      0.123000
C          -7.826000    -22.447000     -1.469000
C          -6.090000    -18.698000      0.217000
C          -6.462000    -19.811000     -0.523000
N          -8.362000    -23.598000     -1.530000
S          -6.928000    -21.929000     -2.873000
C          -7.981000    -24.205000     -2.716000
C          -7.243000    -23.470000     -3.576000
C         -10.639000    -19.843000     11.769000
H          -8.303000    -21.000000     10.626000
H          -7.818000    -21.101000      8.222000
H         -11.551000    -19.177000      7.431000
H          -7.407000    -19.530000      6.252000
H          -5.442000    -17.881000     -0.074000
H          -5.947000    -19.971000     -1.464000
H          -8.268000    -25.244000     -2.811000
H          -6.948000    -23.673000     -4.597000
H          -9.729000    -19.920000     12.377000
C         -11.763000    -20.777000     12.220000
H         -10.919000    -18.795000     11.933000
H         -11.401000    -21.812000     12.242000
H         -12.526000    -20.722000     11.434000
C         -12.287000    -20.317000     13.606000
H         -11.420000    -20.243000     14.274000
C         -13.262000    -21.444000     14.189000
H         -12.859000    -19.401000     13.411000
H         -12.894000    -22.458000     13.988000
H         -14.189000    -21.373000     13.607000
C         -13.557000    -21.334000     15.659000
H         -14.385000    -22.001000     15.931000
C         -13.939000    -19.921000     16.092000
H         -12.609000    -21.617000     16.133000
H         -13.050000    -19.284000     16.170000
H         -14.399000    -20.008000     17.084000
H         -14.693000    -19.431000     15.463000
$end

--------------------------------------------------------------

             Standard Nuclear Orientation (Angstroms)
    I     Atom           X                Y                Z
 ----------------------------------------------------------------
    1      C      -0.2885440862    -0.7419850908    -2.1071958528
    2      C      -1.1400665050    -1.8630708045    -2.2140714486
    3      N      -0.7665645968     0.4298998481    -1.6248152133
    4      C      -2.4301674746    -1.7318601195    -1.6428514873
    5      C      -1.9737767037     0.5220689934    -1.0546882294
    6      C      -2.9017918677    -0.5268523627    -1.0204852464
    7      C      -4.3300837192    -0.2933903459    -0.5741850407
    8      C      -5.4295408098    -0.9169763169    -1.2594613665
    9      C      -4.7079209980     0.6171048128     0.4417232016
   10      N      -6.6986179348    -0.5638181431    -1.0583580222
   11      N      -3.8239557122     1.2809117782     1.2640927573
   12      C      -6.0309748862     0.9821689552     0.5962566313
   13      C      -7.0940022550     0.3328951983    -0.1635784836
   14      S      -4.7315682136     2.2307271400     2.2474412843
   15      N      -6.1991860861     1.9356682762     1.5743951884
   16      C      -8.5313892112     0.7642323362     0.0309029073
   17      S      -9.1125638838     1.9151835423     1.2241435876
   18      C      -9.5266890613     0.3948360235    -0.8341396192
   19      C     -10.6566810707     2.0751569535     0.3661880989
   20      S      -9.4277147993    -0.3972728767    -2.3739563569
   21      C     -10.6977503319     1.0879395820    -0.5868948866
   22      C     -11.5732615877     3.1680500797     0.5541635511
   23      C     -11.1249642421    -0.0050085730    -2.6133744955
   24      C     -11.6471634641     0.8497068481    -1.6855471832
   25      N     -12.8512231670     3.0989539794     0.0645249794
   26      S     -11.0826920219     4.6237379563     1.3615521236
   27      C     -13.5664195902     4.2957400188     0.4266661841
   28      C     -12.7977857541     5.1511821161     1.2770113166
   29      C       1.0848962132    -0.6379381200    -2.6646175710
   30      H      -0.7693101307    -2.7748193257    -2.6718665393
   31      H      -3.1342165983    -2.5296411313    -1.8599028379
   32      H      -2.2233982251     1.5145238295    -0.6848808546
   33      H      -5.2710227734    -1.7006539486    -1.9993109470
   34      H     -11.5186332033    -0.3153533750    -3.5726199557
   35      H     -12.6143314418     1.3334106437    -1.7587369437
   36      H     -14.6150349462     4.4262778146     0.1952515800
   37      H     -13.1156950409     6.0139485371     1.8489639266
   38      H       1.0212694996    -0.3181008271    -3.7121106485
   39      C       2.0137554202    -1.8791110223    -2.5718576642
   40      H       1.6102187935     0.1792868243    -2.1525564642
   41      H       1.6776907784    -2.7707716343    -3.1155219995
   42      H       1.9937689573    -2.0768034298    -1.4926397746
   43      C       3.4473765262    -1.5417574553    -2.8386330290
   44      H       3.5847619498    -1.3113766223    -3.9024252630
   45      C       4.4960672304    -2.6553169599    -2.4490023877
   46      H       3.7652649187    -0.6198036419    -2.3364168049
   47      H       4.1680549549    -3.6593176324    -2.7462019786
   48      H       4.4406384294    -2.8560568154    -1.3723445227
   49      C       5.9056764353    -2.3862289718    -2.8833254752
   50      H       5.8681830322    -1.9406398324    -3.8845095559
   51      C       6.8636228833    -3.6773737030    -2.9204992004
   52      H       6.3363407732    -1.6338645897    -2.2101062950
   53      H       6.8300872586    -4.1107604198    -1.9137493230
   54      H       7.8872316448    -3.3973663917    -3.1987760571
   55      H       6.4629348976    -4.4651540982    -3.5704778055
   56      C       8.2860627700     4.0584678377    -0.3319184261
   57      C       7.5500625938     3.4912021104    -1.4310173003
   58      N       8.1812698330     3.6130780374     0.9842443169
   59      C       6.6179384393     2.4633010755    -1.1399519761
   60      C       7.4232153655     2.4975096590     1.1189536981
   61      C       6.6103347749     1.9398776366     0.1876123681
   62      C       5.7118269667     0.7796568464     0.4332858028
   63      C       4.3489551222     0.7666012948     0.0149893909
   64      C       6.1777585355    -0.3133442316     1.2063876180
   65      N       3.5566189568    -0.3043815886     0.2610850317
   66      N       7.3791276775    -0.3506730480     1.7127992531
   67      C       5.3151027603    -1.3849118910     1.5001677481
   68      C       3.9864738939    -1.3871834376     0.9824524059
   69      S       7.4464826779    -1.7928906487     2.4643015460
   70      N       5.9166785225    -2.3345750764     2.2762530763
   71      C       3.1922279514    -2.5737359200     1.0105342385
   72      S       3.6908593070    -4.2747696457     0.8641100762
   73      C       1.8388446873    -2.5629531072     1.0879582107
   74      C       2.0748644104    -4.8627768463     0.9526088120
   75      S       0.7956064438    -1.1395004803     1.2594037883
   76      C       1.2849439451    -3.7997508381     1.0827293893
   77      C       1.6049306925    -6.2206963897     0.8236017802
   78      C      -0.5611177802    -2.3408574000     1.2314944474
   79      C      -0.1433154605    -3.6570042495     1.0975105223
   80      N       2.5118068732    -7.0622366749     0.5317053236
   81      S      -0.0106745249    -6.8510484311     1.0196122020
   82      C       1.9235845346    -8.3013780099     0.3349078838
   83      C       0.5977962288    -8.3999427673     0.5737370207
   84      C       9.2258519244     5.1844563649    -0.5114934295
   85      H       7.5742340845     3.8955030812    -2.4383436943
   86      H       6.0250569051     2.0544020431    -1.9535354492
   87      H       7.2529740825     2.1548114760     2.1385157908
   88      H       3.9316242890     1.5859997940    -0.5693384925
   89      H      -1.5660543911    -1.9638426420     1.3730440162
   90      H      -0.9160528029    -4.4096393725     0.9847126001
   91      H       2.5846270136    -9.0652032909    -0.0530467284
   92      H      -0.0430789753    -9.2704567567     0.6202060106
   93      H       8.9514458534     5.7244104675    -1.4262851409
   94      C      10.7027946577     4.7926825133    -0.4460227347
   95      H       8.9901327754     5.9306645271     0.2574082947
   96      H      10.9728652410     4.2082336608    -1.3338484038
   97      H      10.7925457922     4.1222102215     0.4173437228
   98      C      11.5676844735     6.0736185346    -0.3105955744
   99      H      11.2802563156     6.7486126161    -1.1261671801
  100      C      13.1055830097     5.6818493863    -0.5156029564
  101      H      11.4111344035     6.4225161750     0.7180090689
  102      H      13.2440518721     4.9404494561    -1.3125806961
  103      H      13.4083953069     5.1557747246     0.3979856616
  104      C      14.0280271469     6.8381511562    -0.7840950993
  105      H      15.0740368622     6.5165873043    -0.7009244040
  106      C      13.8245774388     8.0060698835     0.1774432842
  107      H      13.7583458697     7.1511299839    -1.8003555295
  108      H      12.9347870242     8.5852867543    -0.0963355220
  109      H      14.7075754038     8.6500815619     0.0836533500
  110      H      13.7762721864     7.7303199679     1.2385208434
 ----------------------------------------------------------------

    9   -5663.5010891277      9.53E-06 Convergence criterion met
 Total energy in the final basis set = -5663.5010891277

                    Orbital Energies (a.u.)
 --------------------------------------------------------------

 Alpha MOs
 -- Occupied --
-88.992 -88.987 -88.929 -88.927 -88.925 -88.922 -88.907 -88.904
-14.390 -14.385 -14.382 -14.381 -14.353 -14.350 -14.350 -14.338
-14.335 -14.320 -10.273 -10.270 -10.266 -10.263 -10.256 -10.255
-10.254 -10.251 -10.246 -10.244 -10.243 -10.243 -10.240 -10.239
-10.234 -10.233 -10.231 -10.231 -10.228 -10.227 -10.226 -10.226
-10.225 -10.225 -10.221 -10.220 -10.219 -10.219 -10.219 -10.216
-10.215 -10.209 -10.209 -10.206 -10.201 -10.200 -10.198 -10.196
-10.183 -10.180 -10.179 -10.176 -10.176 -10.174 -10.174 -10.173
-10.172 -10.171 -10.168 -10.167  -8.047  -8.043  -7.990  -7.989
 -7.984  -7.981  -7.968  -7.963  -6.012  -6.008  -6.006  -6.005
 -6.002  -6.001  -5.954  -5.953  -5.951  -5.949  -5.949  -5.947
 -5.946  -5.945  -5.945  -5.942  -5.941  -5.938  -5.932  -5.928
 -5.928  -5.924  -5.924  -5.919  -1.046  -1.028  -0.987  -0.962
 -0.952  -0.944  -0.932  -0.931  -0.922  -0.915  -0.913  -0.890
 -0.846  -0.840  -0.833  -0.829  -0.817  -0.811  -0.806  -0.805
 -0.801  -0.797  -0.796  -0.791  -0.786  -0.779  -0.769  -0.763
 -0.751  -0.746  -0.738  -0.737  -0.727  -0.724  -0.708  -0.705
 -0.694  -0.690  -0.676  -0.675  -0.659  -0.654  -0.644  -0.641
 -0.641  -0.631  -0.625  -0.622  -0.612  -0.608  -0.605  -0.593
 -0.591  -0.590  -0.581  -0.581  -0.576  -0.572  -0.570  -0.556
 -0.550  -0.546  -0.544  -0.539  -0.527  -0.521  -0.519  -0.506
 -0.505  -0.504  -0.502  -0.495  -0.489  -0.482  -0.480  -0.475
 -0.473  -0.470  -0.468  -0.467  -0.465  -0.463  -0.452  -0.449
 -0.446  -0.444  -0.440  -0.438  -0.436  -0.434  -0.433  -0.432
 -0.431  -0.427  -0.424  -0.421  -0.420  -0.419  -0.415  -0.411
 -0.408  -0.405  -0.403  -0.401  -0.400  -0.399  -0.398  -0.395
 -0.394  -0.392  -0.391  -0.390  -0.388  -0.386  -0.379  -0.377
 -0.376  -0.374  -0.371  -0.369  -0.366  -0.362  -0.356  -0.353
 -0.353  -0.350  -0.350  -0.348  -0.343  -0.342  -0.340  -0.338
 -0.337  -0.335  -0.333  -0.330  -0.327  -0.326  -0.319  -0.317
 -0.314  -0.312  -0.311  -0.304  -0.302  -0.302  -0.301  -0.297
 -0.297  -0.294  -0.290  -0.287  -0.284  -0.284  -0.282  -0.279
 -0.275  -0.268  -0.267  -0.266  -0.261  -0.253  -0.249  -0.248
 -0.243  -0.242  -0.231  -0.229  -0.197  -0.194

          Ground-State Mulliken Net Atomic Charges

     Atom                 Charge (a.u.)
  ----------------------------------------
      1 C                     0.286153
      2 C                    -0.099445
      3 N                    -0.484682
      4 C                    -0.108607
      5 C                     0.087868
      6 C                     0.040490
      7 C                     0.008013
      8 C                     0.067577
      9 C                     0.230757
     10 N                    -0.531864
     11 N                    -0.563969
     12 C                     0.186226
     13 C                     0.340097
     14 S                     0.614502
     15 N                    -0.567813
     16 C                    -0.218336
     17 S                     0.323823
     18 C                    -0.100414
     19 C                    -0.217770
     20 S                     0.285291
     21 C                     0.126210
     22 C                     0.062180
     23 C                    -0.304898
     24 C                    -0.054068
     25 N                    -0.447163
     26 S                     0.274290
     27 C                     0.111682
     28 C                    -0.306693
     29 C                    -0.235012
     30 H                     0.097578
     31 H                     0.090377
     32 H                     0.112922
     33 H                     0.115261
     34 H                     0.128729
     35 H                     0.129855
     36 H                     0.125200
     37 H                     0.134804
     38 H                     0.111351
     39 C                    -0.196531
     40 H                     0.131648
     41 H                     0.086702
     42 H                     0.128945
     43 C                    -0.172678
     44 H                     0.078286
     45 C                    -0.181085
     46 H                     0.093322
     47 H                     0.086678
     48 H                     0.089704
     49 C                    -0.178989
     50 H                     0.090085
     51 C                    -0.327780
     52 H                     0.088374
     53 H                     0.106924
     54 H                     0.102235
     55 H                     0.106750
     56 C                     0.240659
     57 C                    -0.115283
     58 N                    -0.477542
     59 C                    -0.083312
     60 C                     0.103059
     61 C                     0.056849
     62 C                     0.005904
     63 C                     0.063401
     64 C                     0.242737
     65 N                    -0.502098
     66 N                    -0.549265
     67 C                     0.189980
     68 C                     0.258543
     69 S                     0.600990
     70 N                    -0.544508
     71 C                    -0.201639
     72 S                     0.331812
     73 C                    -0.124961
     74 C                    -0.211437
     75 S                     0.272598
     76 C                     0.168686
     77 C                     0.084183
     78 C                    -0.287684
     79 C                    -0.104142
     80 N                    -0.428483
     81 S                     0.269753
     82 C                     0.112473
     83 C                    -0.311426
     84 C                    -0.225263
     85 H                     0.095564
     86 H                     0.106236
     87 H                     0.099266
     88 H                     0.123595
     89 H                     0.131435
     90 H                     0.113356
     91 H                     0.109768
     92 H                     0.142192
     93 H                     0.087351
     94 C                    -0.177780
     95 H                     0.117973
     96 H                     0.092697
     97 H                     0.119609
     98 C                    -0.177320
     99 H                     0.093186
    100 C                    -0.179527
    101 H                     0.110335
    102 H                     0.085526
    103 H                     0.088794
    104 C                    -0.173423
    105 H                     0.092085
    106 C                    -0.313273
    107 H                     0.092059
    108 H                     0.105842
    109 H                     0.095498
    110 H                     0.101276
  ----------------------------------------
  Sum of atomic charges =     0.000000

                    Cartesian Multipole Moments
 -----------------------------------------------------------------
    Charge (ESU x 10^10)
                 0.0000
    Dipole Moment (Debye)
         X      -1.6950      Y      -0.1556      Z      -1.4052
       Tot       2.2072
    Quadrupole Moments (Debye-Ang)
        XX    -426.1687     XY     -12.5401     YY    -408.0885
        XZ     -14.4172     YZ       5.2662     ZZ    -439.7127

 Total job time:  96.15s(wall), 1061.63s(cpu)
        *  Thank you very much for using Q-Chem.  Have a nice day.  *
