 Q-Chem 4.4, Q-Chem, Inc., Pleasanton, CA (2016)
 Q-Chem 4.4.2 for Intel X86 Linux

User input:
--------------------------------------------------------------
$comment
SP
$end

$rem
MEM_STATIC 5000
MEM_TOTAL 20000
JOBTYPE SP
EXCHANGE B3LYP
BASIS 6-31g(d,p)
$end

$molecule
0 1
C           3.880000     -4.066000     -8.879000
C           3.679000     -3.447000     -7.676000
N           3.242000     -3.724000     -9.966000
C           2.864000     -2.297000     -7.740000
C           2.448000     -2.594000    -10.033000
C           2.238000     -1.817000     -8.881000
C           1.373000     -0.564000     -8.985000
C           1.812000      0.541000     -8.264000
C           0.063000     -0.515000     -9.395000
N           1.216000      1.730000     -8.208000
N          -0.688000     -1.474000    -10.035000
C          -0.566000      0.733000     -9.417000
C          -0.034000      1.824000     -8.771000
S          -1.984000     -0.780000    -10.606000
N          -1.691000      0.786000    -10.085000
C          -0.734000      3.129000     -8.670000
S          -2.277000      3.600000     -9.430000
C          -0.194000      4.245000     -8.110000
C          -2.134000      5.282000     -8.849000
S           1.432000      4.453000     -7.432000
C          -0.930000      5.402000     -8.237000
C          -3.027000      6.407000     -9.218000
C           1.001000      6.175000     -7.223000
C          -0.247000      6.542000     -7.724000
N          -3.974000      6.105000    -10.128000
S          -2.914000      8.119000     -8.901000
C          -4.483000      7.237000    -10.747000
C          -4.087000      8.417000    -10.164000
C           4.815000     -5.309000     -9.017000
H           4.256000     -3.733000     -6.801000
H           2.760000     -1.703000     -6.836000
H           1.999000     -2.387000    -11.003000
H           2.821000      0.473000     -7.858000
H           1.787000      6.807000     -6.833000
H          -0.641000      7.551000     -7.761000
H          -5.082000      7.080000    -11.635000
H          -4.379000      9.387000    -10.544000
H           5.146000     -5.343000    -10.062000
C           4.147000     -6.690000     -8.888000
H           5.688000     -5.142000     -8.375000
H           3.117000     -6.490000     -9.208000
H           4.240000     -7.046000     -7.855000
C           4.757000     -7.793000     -9.747000
H           4.636000     -7.520000    -10.803000
C           4.044000     -9.166000     -9.458000
H           5.842000     -7.897000     -9.616000
H           3.058000     -9.048000     -9.924000
H           4.027000     -9.497000     -8.412000
C           4.621000    -10.324000    -10.350000
H           4.547000    -10.108000    -11.423000
C           3.843000    -11.604000    -10.025000
H           5.684000    -10.553000    -10.211000
H           3.694000    -12.271000    -10.884000
H           2.792000    -11.390000     -9.796000
H           4.268000    -12.141000     -9.168000
C           5.007000      6.112000     -9.671000
C           4.780000      4.860000     -9.242000
N           4.282000      6.592000    -10.775000
C           3.785000      4.074000     -9.798000
C           3.374000      5.819000    -11.374000
C           3.044000      4.533000    -10.883000
C           1.995000      3.719000    -11.481000
C           0.785000      4.256000    -12.097000
C           2.257000      2.355000    -11.794000
N          -0.115000      3.495000    -12.812000
N           3.353000      1.695000    -11.407000
C           1.408000      1.591000    -12.583000
C           0.162000      2.208000    -13.115000
S           3.219000      0.171000    -12.053000
N           1.852000      0.400000    -12.913000
C          -0.803000      1.515000    -14.048000
S          -0.223000      0.464000    -15.404000
C          -2.164000      1.414000    -13.854000
C          -1.912000     -0.106000    -15.572000
S          -3.218000      1.989000    -12.549000
C          -2.760000      0.511000    -14.712000
C          -2.209000     -1.016000    -16.688000
C          -4.486000      1.086000    -13.217000
C          -4.113000      0.325000    -14.364000
N          -1.120000     -1.361000    -17.417000
S          -3.669000     -1.978000    -16.975000
C          -1.454000     -2.374000    -18.312000
C          -2.754000     -2.750000    -18.235000
C           6.029000      6.959000     -9.020000
H           5.369000      4.497000     -8.405000
H           3.582000      3.105000     -9.353000
H           2.692000      6.247000    -12.108000
H           0.558000      5.305000    -11.912000
H          -5.429000      1.228000    -12.706000
H          -4.762000     -0.291000    -14.976000
H          -0.710000     -2.626000    -19.056000
H          -3.263000     -3.328000    -18.995000
H           5.769000      7.993000     -9.278000
C           7.525000      6.614000     -9.446000
H           5.815000      6.992000     -7.945000
H           7.560000      7.017000    -10.465000
H           7.683000      5.534000     -9.560000
C           8.688000      7.221000     -8.575000
H           9.661000      6.997000     -9.030000
C           8.610000      6.613000     -7.176000
H           8.600000      8.313000     -8.509000
H           8.618000      5.523000     -7.299000
H           7.637000      6.897000     -6.756000
C           9.652000      7.175000     -6.184000
H           9.652000      8.271000     -6.136000
C          11.092000      6.742000     -6.549000
H           9.465000      6.961000     -5.125000
H          11.804000      6.941000     -5.738000
H          11.419000      7.264000     -7.457000
H          11.084000      5.659000     -6.725000
$end

--------------------------------------------------------------

             Standard Nuclear Orientation (Angstroms)
    I     Atom           X                Y                Z
 ----------------------------------------------------------------
    1      C       4.2607318252     4.7291417018     1.2517277052
    2      C       3.3438135974     4.9362065068     2.2452850161
    3      N       4.3488796353     3.6046664582     0.5934250467
    4      C       2.3870288498     3.9080434307     2.3804317361
    5      C       3.4090383998     2.5983487697     0.7193145293
    6      C       2.3593214067     2.7329000371     1.6439350952
    7      C       1.3239637602     1.6168018337     1.7507496264
    8      C       0.0052166063     2.0233772587     1.9215985889
    9      C       1.5776992064     0.3023316734     2.0579751480
   10      N      -1.0539402246     1.2256608468     2.0395321872
   11      N       2.7766084305    -0.3723474312     2.0845604471
   12      C       0.4905836090    -0.5743063895     2.1155458406
   13      C      -0.8051341249    -0.1185616644     2.1790541037
   14      S       2.4672454163    -1.9183089912     2.1244400209
   15      N       0.7925512138    -1.8484561741     2.1115593345
   16      C      -1.9732215078    -1.0153655256     2.3649053892
   17      S      -1.9819864898    -2.7980125599     2.4137185661
   18      C      -3.2679458638    -0.5981949653     2.3471976008
   19      C      -3.7638588846    -2.8596953008     2.5046031536
   20      S      -3.8873509417     1.0383868409     2.0560595903
   21      C      -4.2232268859    -1.5892746674     2.3881022803
   22      C      -4.5953330674    -4.0852283321     2.4274379259
   23      C      -5.5180807939     0.3091191520     2.1161826904
   24      C      -5.5459601052    -1.0777562958     2.2539986411
   25      N      -3.9098337309    -5.2227230449     2.1987253596
   26      S      -6.3226052439    -4.2994492775     2.3056092971
   27      C      -4.7252680499    -6.2354951451     1.7159981650
   28      C      -6.0678072861    -5.9476533258     1.7779698217
   29      C       5.3494580751     5.7931578763     0.9040745258
   30      H       3.2743701972     5.8982757251     2.7452354469
   31      H       1.5699128361     4.0696140698     3.0783460208
   32      H       3.5641459821     1.7234828699     0.0901076514
   33      H      -0.1885842321     3.0845028503     1.7666963167
   34      H      -6.3381393424     0.9875364673     1.9249395905
   35      H      -6.4346684902    -1.6975379565     2.2265377705
   36      H      -4.2304770398    -7.1048408512     1.3019765477
   37      H      -6.8310201583    -6.6247956185     1.4180414578
   38      H       5.6489305318     5.6131885822    -0.1354779263
   39      C       6.7060124157     5.6476941041     1.6172551565
   40      H       4.8815849423     6.7825087412     0.9708697189
   41      H       6.7522707566     4.5724768875     1.8295476502
   42      H       6.7210807897     6.2869720667     2.5080809704
   43      C       7.9219410190     6.0725462848     0.8001821754
   44      H       7.9959451701     5.4210160098    -0.0797824184
   45      C       9.2292338391     5.9587386739     1.6691196359
   46      H       7.8340090995     7.0840107798     0.3825584777
   47      H       9.3906109726     4.8769249093     1.7522604779
   48      H       9.2317089158     6.5034912317     2.6215924832
   49      C      10.5114498793     6.3551518374     0.8516016666
   50      H      10.6380090293     5.7511179778    -0.0553640869
   51      C      11.7289428885     6.1775350553     1.7656432692
   52      H      10.5421911337     7.3845788023     0.4760139949
   53      H      12.6358604457     5.8399290537     1.2474794612
   54      H      11.6007992228     5.3282166281     2.4476076453
   55      H      11.9225845543     7.0684060650     2.3758028791
   56      C      -5.2700749538     2.6368986020    -1.9537859748
   57      C      -4.1847747300     2.9684270162    -1.2359514990
   58      N      -5.2954204118     1.3940479921    -2.6091644679
   59      C      -3.1413206879     2.0778087590    -1.0489761481
   60      C      -4.2631900508     0.5547597923    -2.5048102656
   61      C      -3.1503366505     0.8354477709    -1.6762280016
   62      C      -2.0605660736    -0.1127189774    -1.4918888931
   63      C      -2.2198283394    -1.5640767148    -1.5029002033
   64      C      -0.7140484298     0.3307823639    -1.6234403855
   65      N      -1.1653610929    -2.4520207720    -1.5024792895
   66      N      -0.3547269662     1.6143041344    -1.7236648863
   67      C       0.3584500441    -0.5462561154    -1.7104376804
   68      C       0.1033976609    -2.0116199915    -1.6480999518
   69      S       1.2960900576     1.6125049533    -1.9043522317
   70      N       1.5219569895    -0.0011037631    -1.9816894100
   71      C       1.1675681279    -3.0712631270    -1.8113808218
   72      S       2.4869270946    -2.9098204319    -3.0414073146
   73      C       1.3894584231    -4.1171721855    -0.9413251119
   74      C       3.3044641765    -4.2742959561    -2.2194069111
   75      S       0.5992282086    -4.5795691746     0.5773227184
   76      C       2.5795926409    -4.7728429398    -1.1872222561
   77      C       4.5377726410    -4.7895586543    -2.8319586095
   78      C       1.8236653099    -5.7223974428     0.8306097776
   79      C       2.8346844591    -5.7199905222    -0.1752199727
   80      N       4.9338996008    -4.0985675641    -3.9283170112
   81      S       5.7301339872    -5.9086538097    -2.1498197282
   82      C       6.2034943723    -4.5184535077    -4.3163568422
   83      C       6.7118538672    -5.4922742351    -3.5222858033
   84      C      -6.4031947659     3.5772038936    -2.0862980506
   85      H      -4.1717527842     3.9439883861    -0.7591187793
   86      H      -2.3313905836     2.3620501097    -0.3845853890
   87      H      -4.3557842877    -0.4708558973    -2.8606230878
   88      H      -3.2352806640    -1.9520166233    -1.4357123774
   89      H       1.6646486990    -6.3334505906     1.7091664166
   90      H       3.6873886079    -6.3859513166    -0.2429905788
   91      H       6.5630038089    -4.1529373486    -5.2691038718
   92      H       7.5539059370    -6.1156867657    -3.7926006723
   93      H      -7.2676516578     2.9653885469    -2.3721586173
   94      C      -6.1527500736     4.7517260982    -3.1333377094
   95      H      -6.7265412323     3.8706943831    -1.0804052158
   96      H      -6.2337463482     4.2154187066    -4.0861278149
   97      H      -5.1198750671     5.1210702151    -3.0999589072
   98      C      -7.1439893627     5.9749724531    -3.1055523371
   99      H      -6.9283075012     6.6585637080    -3.9362835396
  100      C      -6.9770426918     6.7002413620    -1.7717372004
  101      H      -8.1833457474     5.6404782202    -3.2169790560
  102      H      -5.9117044488     6.9403159988    -1.6682403565
  103      H      -7.2389470411     5.9849787655    -0.9820597157
  104      C      -7.9455254776     7.8868167282    -1.5723581798
  105      H      -8.9952083243     7.6181596154    -1.7441408248
  106      C      -7.6225868371     9.0644136359    -2.5227739612
  107      H      -8.0344208583     8.2615316050    -0.5457460951
  108      H      -8.1493619556     9.9842423668    -2.2387157271
  109      H      -7.8887315679     8.7955313686    -3.5526993510
  110      H      -6.5458582664     9.2651015504    -2.4571313976
 ----------------------------------------------------------------

   10   -5663.4914879230      3.44E-06 Convergence criterion met
 Total energy in the final basis set = -5663.4914879230

                    Orbital Energies (a.u.)
 --------------------------------------------------------------

 Alpha MOs
 -- Occupied --
-88.991 -88.982 -88.935 -88.928 -88.921 -88.919 -88.910 -88.909
-14.381 -14.380 -14.379 -14.375 -14.355 -14.350 -14.341 -14.338
-14.325 -14.324 -10.276 -10.267 -10.266 -10.264 -10.256 -10.253
-10.249 -10.246 -10.244 -10.242 -10.240 -10.239 -10.239 -10.233
-10.233 -10.231 -10.231 -10.231 -10.228 -10.225 -10.225 -10.224
-10.224 -10.224 -10.223 -10.222 -10.222 -10.221 -10.218 -10.213
-10.205 -10.205 -10.204 -10.203 -10.201 -10.200 -10.197 -10.190
-10.186 -10.184 -10.183 -10.181 -10.180 -10.180 -10.179 -10.177
-10.176 -10.176 -10.172 -10.167  -8.046  -8.037  -7.995  -7.989
 -7.979  -7.977  -7.970  -7.969  -6.011  -6.005  -6.004  -6.002
 -5.997  -5.995  -5.959  -5.956  -5.953  -5.952  -5.950  -5.946
 -5.943  -5.941  -5.939  -5.937  -5.935  -5.934  -5.933  -5.933
 -5.930  -5.930  -5.926  -5.925  -1.044  -1.038  -0.965  -0.961
 -0.953  -0.941  -0.940  -0.927  -0.916  -0.911  -0.907  -0.904
 -0.842  -0.842  -0.837  -0.827  -0.810  -0.807  -0.804  -0.802
 -0.801  -0.798  -0.795  -0.792  -0.784  -0.782  -0.769  -0.759
 -0.753  -0.750  -0.744  -0.739  -0.720  -0.720  -0.709  -0.707
 -0.696  -0.686  -0.680  -0.667  -0.656  -0.653  -0.649  -0.641
 -0.636  -0.632  -0.629  -0.617  -0.610  -0.609  -0.598  -0.598
 -0.596  -0.591  -0.586  -0.580  -0.575  -0.574  -0.570  -0.564
 -0.547  -0.543  -0.542  -0.530  -0.529  -0.522  -0.516  -0.515
 -0.510  -0.500  -0.499  -0.494  -0.489  -0.486  -0.481  -0.479
 -0.475  -0.468  -0.467  -0.467  -0.464  -0.454  -0.453  -0.448
 -0.446  -0.445  -0.437  -0.435  -0.435  -0.434  -0.432  -0.430
 -0.427  -0.424  -0.420  -0.420  -0.417  -0.414  -0.412  -0.408
 -0.407  -0.405  -0.405  -0.404  -0.401  -0.399  -0.397  -0.394
 -0.393  -0.391  -0.389  -0.388  -0.388  -0.387  -0.384  -0.380
 -0.378  -0.375  -0.371  -0.369  -0.363  -0.360  -0.359  -0.357
 -0.355  -0.353  -0.351  -0.351  -0.351  -0.342  -0.340  -0.338
 -0.332  -0.332  -0.331  -0.331  -0.330  -0.326  -0.326  -0.320
 -0.313  -0.313  -0.309  -0.308  -0.306  -0.306  -0.301  -0.299
 -0.296  -0.292  -0.290  -0.285  -0.283  -0.281  -0.279  -0.276
 -0.274  -0.268  -0.266  -0.263  -0.255  -0.253  -0.248  -0.242
 -0.241  -0.241  -0.237  -0.226  -0.197  -0.188

          Ground-State Mulliken Net Atomic Charges

     Atom                 Charge (a.u.)
  ----------------------------------------
      1 C                     0.269572
      2 C                    -0.101676
      3 N                    -0.484307
      4 C                    -0.100021
      5 C                     0.054678
      6 C                     0.057384
      7 C                    -0.013960
      8 C                     0.070201
      9 C                     0.246381
     10 N                    -0.534890
     11 N                    -0.524329
     12 C                     0.237195
     13 C                     0.310317
     14 S                     0.627520
     15 N                    -0.602601
     16 C                    -0.240134
     17 S                     0.375255
     18 C                    -0.111434
     19 C                    -0.242685
     20 S                     0.295339
     21 C                     0.161704
     22 C                     0.037605
     23 C                    -0.315113
     24 C                    -0.072503
     25 N                    -0.419592
     26 S                     0.283494
     27 C                     0.121846
     28 C                    -0.318693
     29 C                    -0.225393
     30 H                     0.096241
     31 H                     0.090210
     32 H                     0.124846
     33 H                     0.108497
     34 H                     0.126123
     35 H                     0.110006
     36 H                     0.123702
     37 H                     0.138623
     38 H                     0.114513
     39 C                    -0.163940
     40 H                     0.087571
     41 H                     0.112103
     42 H                     0.088890
     43 C                    -0.189303
     44 H                     0.098106
     45 C                    -0.171602
     46 H                     0.090296
     47 H                     0.105102
     48 H                     0.097012
     49 C                    -0.182999
     50 H                     0.094624
     51 C                    -0.325494
     52 H                     0.091402
     53 H                     0.096906
     54 H                     0.098762
     55 H                     0.104061
     56 C                     0.259952
     57 C                    -0.104288
     58 N                    -0.496482
     59 C                    -0.039220
     60 C                     0.087415
     61 C                     0.030855
     62 C                     0.019780
     63 C                     0.049828
     64 C                     0.256047
     65 N                    -0.486307
     66 N                    -0.570028
     67 C                     0.205860
     68 C                     0.233262
     69 S                     0.592664
     70 N                    -0.550686
     71 C                    -0.219332
     72 S                     0.356856
     73 C                    -0.121223
     74 C                    -0.253469
     75 S                     0.341695
     76 C                     0.184042
     77 C                     0.066317
     78 C                    -0.326349
     79 C                    -0.098380
     80 N                    -0.441499
     81 S                     0.274493
     82 C                     0.128699
     83 C                    -0.316398
     84 C                    -0.241917
     85 H                     0.082077
     86 H                     0.121603
     87 H                     0.097445
     88 H                     0.121904
     89 H                     0.141811
     90 H                     0.100027
     91 H                     0.118846
     92 H                     0.129149
     93 H                     0.116588
     94 C                    -0.188694
     95 H                     0.102703
     96 H                     0.110525
     97 H                     0.100420
     98 C                    -0.177455
     99 H                     0.098603
    100 C                    -0.162860
    101 H                     0.094446
    102 H                     0.089690
    103 H                     0.090985
    104 C                    -0.185247
    105 H                     0.091587
    106 C                    -0.315612
    107 H                     0.089283
    108 H                     0.097806
    109 H                     0.105996
    110 H                     0.100763
  ----------------------------------------
  Sum of atomic charges =     0.000000

                    Cartesian Multipole Moments
 -----------------------------------------------------------------
    Charge (ESU x 10^10)
                 0.0000
    Dipole Moment (Debye)
         X      -0.7059      Y      -0.0459      Z       2.3456
       Tot       2.4500
    Quadrupole Moments (Debye-Ang)
        XX    -414.1951     XY      -7.2355     YY    -401.0857
        XZ      -8.2852     YZ       3.6849     ZZ    -455.0834

 Total job time:  114.53s(wall), 1213.23s(cpu)
        *  Thank you very much for using Q-Chem.  Have a nice day.  *
