 Q-Chem 4.4, Q-Chem, Inc., Pleasanton, CA (2016)
 Q-Chem 4.4.2 for Intel X86 Linux

User input:
--------------------------------------------------------------
$comment
SP
$end

$rem
MEM_STATIC 5000
MEM_TOTAL 20000
JOBTYPE SP
EXCHANGE B3LYP
BASIS 6-31g(d,p)
$end

$molecule
0 1
C         -12.677000    -25.925000      4.383000
C         -12.099000    -26.904000      3.495000
N         -13.477000    -24.999000      3.917000
C         -12.326000    -26.800000      2.136000
C         -13.625000    -24.810000      2.595000
C         -13.009000    -25.676000      1.676000
C         -13.021000    -25.310000      0.215000
C         -13.243000    -26.288000     -0.744000
C         -12.749000    -23.980000     -0.272000
N         -13.339000    -26.041000     -2.072000
N         -12.394000    -22.930000      0.478000
C         -12.803000    -23.633000     -1.638000
C         -13.148000    -24.724000     -2.553000
S         -12.189000    -21.692000     -0.540000
N         -12.725000    -22.333000     -1.962000
C         -13.219000    -24.605000     -4.012000
S         -14.343000    -25.379000     -5.135000
C         -12.241000    -24.080000     -4.745000
C         -13.602000    -24.675000     -6.579000
S         -10.770000    -23.401000     -4.167000
C         -12.429000    -24.052000     -6.130000
C         -13.991000    -24.982000     -7.972000
C         -10.423000    -22.938000     -5.939000
C         -11.352000    -23.425000     -6.831000
N         -15.129000    -25.573000     -8.038000
S         -13.166000    -24.681000     -9.445000
C         -15.343000    -25.989000     -9.342000
C         -14.388000    -25.633000    -10.229000
C         -12.650000    -26.085000      5.875000
H         -11.461000    -27.662000      3.939000
H         -11.824000    -27.535000      1.514000
H         -14.166000    -23.960000      2.183000
H         -13.477000    -27.318000     -0.479000
H          -9.522000    -22.425000     -6.248000
H         -11.327000    -23.232000     -7.897000
H         -16.246000    -26.527000     -9.602000
H         -14.451000    -25.653000    -11.309000
H         -13.626000    -26.379000      6.280000
C         -12.146000    -24.818000      6.609000
H         -11.975000    -26.937000      6.024000
H         -12.754000    -23.925000      6.415000
H         -11.163000    -24.542000      6.209000
C         -12.015000    -24.955000      8.143000
H         -12.994000    -24.978000      8.638000
C         -11.429000    -23.706000      8.716000
H         -11.538000    -25.925000      8.332000
H         -12.148000    -22.881000      8.635000
H         -10.626000    -23.338000      8.065000
C         -10.943000    -23.925000     10.104000
H         -10.313000    -24.801000     10.301000
C         -12.097000    -24.077000     11.097000
H         -10.332000    -23.058000     10.380000
H         -12.693000    -24.987000     10.949000
H         -12.817000    -23.251000     11.039000
H         -11.803000    -23.959000     12.147000
C         -10.265000    -19.979000     10.346000
C          -9.053000    -20.635000      9.931000
N         -11.183000    -19.414000      9.463000
C          -8.750000    -20.646000      8.546000
C         -10.902000    -19.660000      8.160000
C          -9.754000    -20.171000      7.650000
C          -9.460000    -20.309000      6.198000
C          -8.220000    -19.898000      5.627000
C         -10.477000    -20.759000      5.319000
N          -7.988000    -20.032000      4.299000
N         -11.674000    -21.069000      5.734000
C         -10.230000    -20.830000      3.936000
C          -8.942000    -20.489000      3.428000
S         -12.446000    -21.555000      4.386000
N         -11.324000    -21.255000      3.237000
C          -8.570000    -20.826000      2.091000
S          -9.041000    -22.228000      1.103000
C          -7.684000    -20.106000      1.360000
C          -8.061000    -21.748000     -0.229000
S          -6.890000    -18.595000      1.840000
C          -7.462000    -20.613000      0.123000
C          -7.826000    -22.447000     -1.469000
C          -6.090000    -18.698000      0.217000
C          -6.462000    -19.811000     -0.523000
N          -8.362000    -23.598000     -1.530000
S          -6.928000    -21.929000     -2.873000
C          -7.981000    -24.205000     -2.716000
C          -7.243000    -23.470000     -3.576000
C         -10.639000    -19.843000     11.769000
H          -8.303000    -21.000000     10.626000
H          -7.818000    -21.101000      8.222000
H         -11.551000    -19.177000      7.431000
H          -7.407000    -19.530000      6.252000
H          -5.442000    -17.881000     -0.074000
H          -5.947000    -19.971000     -1.464000
H          -8.268000    -25.244000     -2.811000
H          -6.948000    -23.673000     -4.597000
H          -9.729000    -19.920000     12.377000
C         -11.763000    -20.777000     12.220000
H         -10.919000    -18.795000     11.933000
H         -11.401000    -21.812000     12.242000
H         -12.526000    -20.722000     11.434000
C         -12.287000    -20.317000     13.606000
H         -11.420000    -20.243000     14.274000
C         -13.262000    -21.444000     14.189000
H         -12.859000    -19.401000     13.411000
H         -12.894000    -22.458000     13.988000
H         -14.189000    -21.373000     13.607000
C         -13.557000    -21.334000     15.659000
H         -14.385000    -22.001000     15.931000
C         -13.939000    -19.921000     16.092000
H         -12.609000    -21.617000     16.133000
H         -13.050000    -19.284000     16.170000
H         -14.399000    -20.008000     17.084000
H         -14.693000    -19.431000     15.463000
$end

--------------------------------------------------------------

             Standard Nuclear Orientation (Angstroms)
    I     Atom           X                Y                Z
 ----------------------------------------------------------------
    1      C       1.7944230911    -3.4759032888    -1.8804754719
    2      C       0.7730168883    -3.4665381564    -2.8991563166
    3      N       1.4654704357    -3.4973240614    -0.6132093984
    4      C      -0.5544009626    -3.3891661039    -2.5233885499
    5      C       0.1932358590    -3.3123811929    -0.2226657807
    6      C      -0.8366853835    -3.2016576273    -1.1718630869
    7      C      -2.2076457477    -2.7841528181    -0.7084211660
    8      C      -3.3352579930    -3.3992750137    -1.2333633616
    9      C      -2.4359191189    -1.7127179959     0.2296468964
   10      N      -4.6006351263    -3.1379320027    -0.8279875594
   11      N      -1.4947485775    -0.9192885482     0.7547113911
   12      C      -3.7188333231    -1.3535028565     0.6926551344
   13      C      -4.8290433913    -2.1393647548     0.1482419812
   14      S      -2.2644147905     0.1213130673     1.7220557964
   15      N      -3.8011524082    -0.4773838722     1.7059167460
   16      C      -6.2449206428    -1.9148075002     0.4527886083
   17      S      -7.5384949650    -3.1021613043     0.6538791774
   18      C      -6.8266566659    -0.7223558720     0.3577080433
   19      C      -8.7978318312    -1.8895862946     0.9251087911
   20      S      -6.0698276915     0.7631993535    -0.0657321242
   21      C      -8.1914376840    -0.6551192009     0.6530129753
   22      C     -10.2395965582    -2.1785703247     1.0794515984
   23      C      -7.7126630008     1.5679798541     0.2922937019
   24      C      -8.7189484014     0.6715436073     0.5745449164
   25      N     -10.4622501526    -3.4216621664     1.3114624818
   26      S     -11.5956790082    -1.1329868401     0.9859071414
   27      C     -11.8280352870    -3.6488625116     1.2637239249
   28      C     -12.5924063137    -2.5521971392     1.0672754722
   29      C       3.2333856602    -3.7643714816    -2.1944274207
   30      H       1.1029866358    -3.4714251158    -3.9334870584
   31      H      -1.2742119201    -3.3345389127    -3.3345611920
   32      H      -0.0843888755    -3.1807743392     0.8216182529
   33      H      -3.2697655783    -4.2313833132    -1.9327827791
   34      H      -7.8833588133     2.6309664826     0.1856477112
   35      H      -9.7309529820     0.9592683972     0.8339503406
   36      H     -12.2211199446    -4.6460242181     1.4173663114
   37      H     -13.6602977957    -2.4580699921     1.2139617454
   38      H       3.5341733901    -4.7715091790    -1.8809989600
   39      C       4.2044655941    -2.7222068550    -1.5870085760
   40      H       3.2583059239    -3.7527605442    -3.2912292108
   41      H       4.1457187447    -2.6499081421    -0.4933584017
   42      H       3.9056923955    -1.7208573995    -1.9194222394
   43      C       5.6935789694    -2.9205705459    -1.9507106542
   44      H       6.1311579339    -3.7831176723    -1.4325098200
   45      C       6.5069593025    -1.8006594335    -1.3886274448
   46      H       5.7276440148    -3.1416354130    -3.0250103783
   47      H       6.5420268810    -1.8729716006    -0.2942380190
   48      H       5.9697221175    -0.8517047047    -1.5106730502
   49      C       7.8541586699    -1.7444150884    -2.0151986204
   50      H       7.9199015184    -1.7896404091    -3.1091444821
   51      C       8.7500926379    -2.8940063813    -1.5497835538
   52      H       8.3084579940    -0.7872524238    -1.7347743747
   53      H       8.4145871780    -3.8831240981    -1.8878696800
   54      H       8.8078978912    -2.9698439009    -0.4566471381
   55      H       9.8165998305    -2.7425003651    -1.7558620219
   56      C       8.8288732568     1.0883874930     0.6520705840
   57      C       8.3591221470     1.7236108699    -0.5509797708
   58      N       8.0201159654     0.8203785725     1.7546679095
   59      C       7.0098316066     2.1577603444    -0.5839080483
   60      C       6.7083726189     1.0864951063     1.5406646777
   61      C       6.1682637129     1.7702040860     0.5014585380
   62      C       4.7299958207     2.1319141441     0.3817284068
   63      C       4.2990707535     3.4417481098     0.0195122163
   64      C       3.7390787676     1.1855550835     0.7449334759
   65      N       2.9805494655     3.7386740709    -0.0737647189
   66      N       4.0367202089    -0.0079816333     1.1785389162
   67      C       2.3784587731     1.5395248189     0.6984828874
   68      C       1.9991254153     2.8370599490     0.2448334745
   69      S       2.5896376915    -0.7132918483     1.4189004946
   70      N       1.5653955784     0.5207783265     1.1073176041
   71      C       0.6418526469     3.1266384713    -0.0920298681
   72      S      -0.6014987172     2.0676720493    -0.7964846235
   73      C       0.0927537730     4.3608459123     0.0218973863
   74      C      -1.7798939405     3.3216517083    -0.8592836096
   75      S       0.8711165536     5.8140309246     0.6748611692
   76      C      -1.2035111226     4.4165083570    -0.3693838586
   77      C      -3.1128569659     3.2747347135    -1.4092239414
   78      C      -0.7057974872     6.6229426511     0.2957280441
   79      C      -1.6491871375     5.7773796592    -0.2697736750
   80      N      -3.4032223870     2.1784416365    -1.9833732352
   81      S      -4.3589689906     4.4964218889    -1.3841387407
   82      C      -4.6599765565     2.2939814814    -2.5555842993
   83      C      -5.3399463702     3.4381363405    -2.3253242052
   84      C      10.2346214345     0.6661517120     0.8220411874
   85      H       9.0112001687     2.0034089993    -1.3727201558
   86      H       6.6526583824     2.6761258450    -1.4695431288
   87      H       6.0486082211     0.9614724350     2.3979926611
   88      H       5.0163524813     4.2143742752    -0.2553945526
   89      H      -0.8160004414     7.6618563980     0.5796074821
   90      H      -2.5790638125     6.2278186432    -0.5995312998
   91      H      -4.9523295766     1.4664583046    -3.1885535746
   92      H      -6.3662058817     3.7000295950    -2.5464086652
   93      H      10.8600332300     1.2555851051     0.1400431220
   94      C      10.4593643900    -0.8429545183     0.7161072937
   95      H      10.5704537664     1.0387323196     1.7977462328
   96      H      10.3124115942    -1.1696005653    -0.3204544439
   97      H       9.6618039770    -1.3029269627     1.3121884443
   98      C      11.8798415920    -1.1877157290     1.2362574893
   99      H      12.5892647944    -0.5519614410     0.6922683301
  100      C      12.2066094033    -2.7114811127     0.8729327682
  101      H      11.8258733810    -1.0731059084     2.3263111674
  102      H      11.8445216923    -2.9887620038    -0.1250796551
  103      H      11.6048994447    -3.3217117845     1.5575185210
  104      C      13.6575134784    -3.0931130412     0.9691587305
  105      H      13.7676385160    -4.1836880280     0.9146089901
  106      C      14.3183440146    -2.6249260680     2.2630234687
  107      H      14.1161191033    -2.5757511168     0.1174037658
  108      H      14.5496261643    -1.5541603092     2.2167281452
  109      H      15.2566776347    -3.1848541597     2.3591668486
  110      H      13.7533079405    -2.8436450875     3.1779842467
 ----------------------------------------------------------------

    9   -5663.4863210763      9.98E-06 Convergence criterion met
 Total energy in the final basis set = -5663.4863210763

                    Orbital Energies (a.u.)
 --------------------------------------------------------------

 Alpha MOs
 -- Occupied --
-88.983 -88.981 -88.928 -88.927 -88.923 -88.912 -88.907 -88.904
-14.386 -14.383 -14.377 -14.377 -14.351 -14.348 -14.340 -14.336
-14.335 -14.326 -10.267 -10.265 -10.263 -10.261 -10.255 -10.255
-10.251 -10.248 -10.242 -10.235 -10.235 -10.233 -10.232 -10.231
-10.231 -10.229 -10.228 -10.228 -10.227 -10.226 -10.226 -10.225
-10.224 -10.224 -10.223 -10.221 -10.220 -10.217 -10.215 -10.214
-10.211 -10.210 -10.207 -10.204 -10.203 -10.203 -10.202 -10.200
-10.185 -10.182 -10.180 -10.178 -10.176 -10.174 -10.173 -10.170
-10.169 -10.168 -10.165 -10.164  -8.038  -8.037  -7.990  -7.989
 -7.982  -7.971  -7.967  -7.964  -6.003  -6.002  -5.998  -5.996
 -5.996  -5.995  -5.954  -5.953  -5.951  -5.949  -5.947  -5.947
 -5.946  -5.943  -5.939  -5.935  -5.932  -5.931  -5.928  -5.928
 -5.928  -5.925  -5.923  -5.919  -1.042  -1.038  -0.988  -0.980
 -0.950  -0.947  -0.935  -0.932  -0.923  -0.911  -0.910  -0.904
 -0.843  -0.834  -0.832  -0.828  -0.818  -0.812  -0.810  -0.810
 -0.806  -0.803  -0.797  -0.796  -0.786  -0.786  -0.769  -0.765
 -0.752  -0.749  -0.741  -0.739  -0.726  -0.712  -0.709  -0.708
 -0.694  -0.693  -0.674  -0.669  -0.659  -0.653  -0.642  -0.641
 -0.639  -0.630  -0.625  -0.625  -0.613  -0.609  -0.606  -0.599
 -0.594  -0.590  -0.582  -0.581  -0.577  -0.573  -0.564  -0.556
 -0.546  -0.543  -0.540  -0.538  -0.527  -0.521  -0.519  -0.516
 -0.514  -0.506  -0.505  -0.501  -0.489  -0.484  -0.480  -0.474
 -0.473  -0.468  -0.468  -0.467  -0.465  -0.460  -0.449  -0.447
 -0.446  -0.446  -0.442  -0.439  -0.438  -0.435  -0.434  -0.433
 -0.432  -0.428  -0.425  -0.422  -0.421  -0.417  -0.414  -0.412
 -0.411  -0.409  -0.406  -0.404  -0.400  -0.398  -0.396  -0.395
 -0.393  -0.391  -0.389  -0.388  -0.385  -0.384  -0.379  -0.377
 -0.376  -0.374  -0.371  -0.370  -0.366  -0.363  -0.358  -0.355
 -0.355  -0.353  -0.347  -0.346  -0.342  -0.339  -0.339  -0.338
 -0.335  -0.333  -0.330  -0.329  -0.326  -0.324  -0.322  -0.317
 -0.317  -0.311  -0.310  -0.307  -0.304  -0.302  -0.301  -0.296
 -0.295  -0.291  -0.290  -0.289  -0.287  -0.287  -0.282  -0.281
 -0.275  -0.270  -0.266  -0.265  -0.262  -0.257  -0.252  -0.246
 -0.242  -0.233  -0.230  -0.229  -0.198  -0.195

          Ground-State Mulliken Net Atomic Charges

     Atom                 Charge (a.u.)
  ----------------------------------------
      1 C                     0.281304
      2 C                    -0.133323
      3 N                    -0.488796
      4 C                    -0.055513
      5 C                     0.099533
      6 C                     0.019962
      7 C                     0.047398
      8 C                     0.052900
      9 C                     0.227898
     10 N                    -0.481864
     11 N                    -0.534040
     12 C                     0.200675
     13 C                     0.179622
     14 S                     0.622926
     15 N                    -0.524954
     16 C                    -0.190696
     17 S                     0.330460
     18 C                    -0.110903
     19 C                    -0.231741
     20 S                     0.259396
     21 C                     0.135143
     22 C                     0.079805
     23 C                    -0.303332
     24 C                    -0.069090
     25 N                    -0.421366
     26 S                     0.268155
     27 C                     0.115492
     28 C                    -0.310558
     29 C                    -0.215181
     30 H                     0.090756
     31 H                     0.106367
     32 H                     0.112603
     33 H                     0.113608
     34 H                     0.114527
     35 H                     0.115662
     36 H                     0.114099
     37 H                     0.134540
     38 H                     0.121527
     39 C                    -0.183735
     40 H                     0.085495
     41 H                     0.116656
     42 H                     0.087608
     43 C                    -0.170471
     44 H                     0.096994
     45 C                    -0.175473
     46 H                     0.085277
     47 H                     0.109843
     48 H                     0.083667
     49 C                    -0.179330
     50 H                     0.091690
     51 C                    -0.328334
     52 H                     0.089315
     53 H                     0.099794
     54 H                     0.105075
     55 H                     0.096105
     56 C                     0.243819
     57 C                    -0.116465
     58 N                    -0.478740
     59 C                    -0.083187
     60 C                     0.103157
     61 C                     0.058119
     62 C                     0.002127
     63 C                     0.066869
     64 C                     0.243881
     65 N                    -0.504480
     66 N                    -0.560237
     67 C                     0.185651
     68 C                     0.247887
     69 S                     0.628256
     70 N                    -0.548694
     71 C                    -0.195054
     72 S                     0.342384
     73 C                    -0.109466
     74 C                    -0.230223
     75 S                     0.261256
     76 C                     0.165412
     77 C                     0.092037
     78 C                    -0.294887
     79 C                    -0.097506
     80 N                    -0.433111
     81 S                     0.263943
     82 C                     0.119743
     83 C                    -0.311782
     84 C                    -0.226665
     85 H                     0.096627
     86 H                     0.105620
     87 H                     0.100816
     88 H                     0.117007
     89 H                     0.125339
     90 H                     0.116445
     91 H                     0.116023
     92 H                     0.142074
     93 H                     0.086627
     94 C                    -0.182570
     95 H                     0.117474
     96 H                     0.103444
     97 H                     0.119266
     98 C                    -0.178381
     99 H                     0.092245
    100 C                    -0.182674
    101 H                     0.110085
    102 H                     0.088527
    103 H                     0.088818
    104 C                    -0.173774
    105 H                     0.092351
    106 C                    -0.313221
    107 H                     0.091899
    108 H                     0.105673
    109 H                     0.095635
    110 H                     0.101402
  ----------------------------------------
  Sum of atomic charges =     0.000000

                    Cartesian Multipole Moments
 -----------------------------------------------------------------
    Charge (ESU x 10^10)
                 0.0000
    Dipole Moment (Debye)
         X      -1.4417      Y       3.3784      Z      -3.0010
       Tot       4.7432
    Quadrupole Moments (Debye-Ang)
        XX    -383.1092     XY     -18.9263     YY    -434.5287
        XZ     -10.1391     YZ       3.4157     ZZ    -443.8382

 Total job time:  98.36s(wall), 1082.22s(cpu)
        *  Thank you very much for using Q-Chem.  Have a nice day.  *
