 Q-Chem 4.4, Q-Chem, Inc., Pleasanton, CA (2016)
 Q-Chem 4.4.2 for Intel X86 Linux

User input:
--------------------------------------------------------------
$comment
SP
$end

$rem
MEM_STATIC 5000
MEM_TOTAL 20000
JOBTYPE SP
EXCHANGE B3LYP
BASIS 6-31g(d,p)
$end

$molecule
0 1
C           4.325000    -17.937000     -5.479000
C           3.807000    -18.458000     -4.323000
N           3.619000    -17.115000     -6.296000
C           2.482000    -18.161000     -4.010000
C           2.393000    -16.807000     -5.957000
C           1.751000    -17.319000     -4.867000
C           0.425000    -16.856000     -4.418000
C           0.075000    -15.522000     -4.595000
C          -0.539000    -17.688000     -3.857000
N          -1.148000    -14.998000     -4.224000
N          -0.422000    -19.013000     -3.735000
C          -1.795000    -17.218000     -3.572000
C          -2.063000    -15.824000     -3.569000
S          -1.860000    -19.554000     -3.321000
N          -2.711000    -18.179000     -3.200000
C          -3.312000    -15.262000     -3.133000
S          -4.258000    -15.989000     -1.871000
C          -3.836000    -14.086000     -3.522000
C          -5.214000    -14.435000     -1.657000
S          -3.262000    -12.864000     -4.626000
C          -4.830000    -13.637000     -2.690000
C          -6.106000    -14.044000     -0.495000
C          -4.654000    -11.867000     -4.197000
C          -5.373000    -12.381000     -3.203000
N          -6.210000    -12.722000     -0.258000
S          -6.623000    -15.108000      0.804000
C          -6.971000    -12.488000      0.882000
C          -7.320000    -13.644000      1.495000
C           5.770000    -18.154000     -5.939000
H           4.389000    -19.083000     -3.653000
H           2.100000    -18.413000     -3.025000
H           1.911000    -16.158000     -6.687000
H           0.781000    -14.868000     -5.105000
H          -4.770000    -10.905000     -4.678000
H          -6.130000    -11.862000     -2.628000
H          -7.197000    -11.475000      1.185000
H          -8.032000    -13.673000      2.308000
H           5.869000    -19.243000     -5.854000
C           6.908000    -17.438000     -5.140000
H           5.804000    -17.901000     -7.006000
H           7.918000    -17.727000     -5.454000
H           6.774000    -17.817000     -4.119000
C           6.772000    -15.888000     -5.049000
H           5.734000    -15.592000     -4.854000
C           7.120000    -15.180000     -6.307000
H           7.289000    -15.572000     -4.135000
H           6.414000    -15.240000     -7.144000
H           8.116000    -15.500000     -6.637000
C           7.035000    -13.628000     -6.069000
H           6.033000    -13.309000     -5.755000
C           7.447000    -12.786000     -7.278000
H           7.701000    -13.303000     -5.260000
H           7.624000    -11.744000     -6.986000
H           6.680000    -12.845000     -8.059000
H           8.440000    -13.135000     -7.590000
C         -10.265000    -19.979000     10.346000
C          -9.053000    -20.635000      9.931000
N         -11.183000    -19.414000      9.463000
C          -8.750000    -20.646000      8.546000
C         -10.902000    -19.660000      8.160000
C          -9.754000    -20.171000      7.650000
C          -9.460000    -20.309000      6.198000
C          -8.220000    -19.898000      5.627000
C         -10.477000    -20.759000      5.319000
N          -7.988000    -20.032000      4.299000
N         -11.674000    -21.069000      5.734000
C         -10.230000    -20.830000      3.936000
C          -8.942000    -20.489000      3.428000
S         -12.446000    -21.555000      4.386000
N         -11.324000    -21.255000      3.237000
C          -8.570000    -20.826000      2.091000
S          -9.041000    -22.228000      1.103000
C          -7.684000    -20.106000      1.360000
C          -8.061000    -21.748000     -0.229000
S          -6.890000    -18.595000      1.840000
C          -7.462000    -20.613000      0.123000
C          -7.826000    -22.447000     -1.469000
C          -6.090000    -18.698000      0.217000
C          -6.462000    -19.811000     -0.523000
N          -8.362000    -23.598000     -1.530000
S          -6.928000    -21.929000     -2.873000
C          -7.981000    -24.205000     -2.716000
C          -7.243000    -23.470000     -3.576000
C         -10.639000    -19.843000     11.769000
H          -8.303000    -21.000000     10.626000
H          -7.818000    -21.101000      8.222000
H         -11.551000    -19.177000      7.431000
H          -7.407000    -19.530000      6.252000
H          -5.442000    -17.881000     -0.074000
H          -5.947000    -19.971000     -1.464000
H          -8.268000    -25.244000     -2.811000
H          -6.948000    -23.673000     -4.597000
H          -9.729000    -19.920000     12.377000
C         -11.763000    -20.777000     12.220000
H         -10.919000    -18.795000     11.933000
H         -11.401000    -21.812000     12.242000
H         -12.526000    -20.722000     11.434000
C         -12.287000    -20.317000     13.606000
H         -11.420000    -20.243000     14.274000
C         -13.262000    -21.444000     14.189000
H         -12.859000    -19.401000     13.411000
H         -12.894000    -22.458000     13.988000
H         -14.189000    -21.373000     13.607000
C         -13.557000    -21.334000     15.659000
H         -14.385000    -22.001000     15.931000
C         -13.939000    -19.921000     16.092000
H         -12.609000    -21.617000     16.133000
H         -13.050000    -19.284000     16.170000
H         -14.399000    -20.008000     17.084000
H         -14.693000    -19.431000     15.463000
$end

--------------------------------------------------------------

             Standard Nuclear Orientation (Angstroms)
    I     Atom           X                Y                Z
 ----------------------------------------------------------------
    1      C     -10.7694130575    -0.3040699168    -3.4290187566
    2      C      -9.4868622569    -0.2477082010    -3.9064994378
    3      N     -11.0617079389    -0.2931389403    -2.1038571755
    4      C      -8.4462367265    -0.2266611911    -2.9799690665
    5      C     -10.0717315959    -0.2208683239    -1.2508713619
    6      C      -8.7545704644    -0.2285007030    -1.6078535749
    7      C      -7.6559160368    -0.0031527016    -0.6505538690
    8      C      -7.8547784285     0.8596630569     0.4215411437
    9      C      -6.4212731022    -0.6410296383    -0.7213411400
   10      N      -6.8943018929     1.1213537979     1.3791155692
   11      N      -6.1069250527    -1.5933980130    -1.6035983488
   12      C      -5.4867337619    -0.4777847568     0.2684307176
   13      C      -5.6277024116     0.5527335833     1.2344683932
   14      S      -4.7252412053    -2.2158642705    -1.1184112670
   15      N      -4.3875577122    -1.3054314599     0.1802607300
   16      C      -4.6127943914     0.8718990225     2.2009238412
   17      S      -2.9207188608     0.6980728637     1.8505613644
   18      C      -4.8076733333     1.4455532806     3.4016802653
   19      C      -2.4885376274     1.7700790476     3.2783814242
   20      S      -6.2535273004     1.9895017134     4.2111260068
   21      C      -3.6586999781     1.9607643592     3.9459952234
   22      C      -1.1620875352     2.4454782569     3.5667476167
   23      C      -5.2483690860     2.6088597195     5.5232870580
   24      C      -3.9467151879     2.5259942564     5.2624740125
   25      N      -1.2315599574     3.5915364079     4.2712994579
   26      S       0.3463004059     2.1478246060     2.7164805273
   27      C       0.0278706723     4.1683583209     4.3920801251
   28      C       0.9615976857     3.4786751943     3.6946584095
   29      C     -12.0126302258    -0.3057549447    -4.3240730751
   30      H      -9.2605631633    -0.2168339128    -4.9676707239
   31      H      -7.4376950335    -0.0091924578    -3.3193862194
   32      H     -10.4129456476    -0.2359849575    -0.2165747612
   33      H      -8.8391775580     1.3091607034     0.5446761087
   34      H      -5.7322121063     3.0811301409     6.3677499528
   35      H      -3.1540015024     3.0274632990     5.8039246678
   36      H       0.1583111853     5.0693567317     4.9753820506
   37      H       2.0187117588     3.6857492747     3.7862234779
   38      H     -11.7669338007    -1.0958550585    -5.0440189597
   39      C     -12.3790690477     1.0188380139    -5.0705830107
   40      H     -12.8457022714    -0.6667715969    -3.7081900150
   41      H     -13.2109238983     0.9127124603    -5.7769624231
   42      H     -11.4821298629     1.2263674221    -5.6676337988
   43      C     -12.5827342472     2.2583839737    -4.1479111838
   44      H     -11.8175471239     2.2982359677    -3.3630637560
   45      C     -13.8664031826     2.2467256489    -3.4015934580
   46      H     -12.3588934456     3.1479682035    -4.7488073425
   47      H     -13.9684982522     1.5470108784    -2.5633925055
   48      H     -14.6929568540     2.1033883679    -4.1084028043
   49      C     -14.0011905772     3.5813236871    -2.5810732360
   50      H     -13.1816513974     3.7135647907    -1.8632788201
   51      C     -15.3243144412     3.7207207271    -1.8258906714
   52      H     -13.9533645289     4.4647937476    -3.2298068648
   53      H     -15.4787058075     4.7551232752    -1.4964492130
   54      H     -15.3462673436     3.0341980210    -0.9715279592
   55      H     -16.1294581409     3.5631469469    -2.5553480907
   56      C      10.6398647986     2.3431839054    -1.9787229653
   57      C       9.6863454742     1.9499963317    -2.9825702793
   58      N      10.5028289312     2.0536384236    -0.6226172965
   59      C       8.5099344278     1.2867393744    -2.5509428257
   60      C       9.4533740424     1.2414719022    -0.3463638297
   61      C       8.4422822914     0.8939932899    -1.1806761722
   62      C       7.2541259384     0.0914631545    -0.7831665966
   63      C       5.9247868316     0.4695268791    -1.1331485377
   64      C       7.4214198963    -1.0299821780     0.0675995863
   65      N       4.8646521570    -0.2812908253    -0.7487642944
   66      N       8.5886211532    -1.3990581643     0.5176641841
   67      C       6.2978844329    -1.7559405853     0.5027908697
   68      C       4.9969375404    -1.3858272165     0.0513019141
   69      S       8.2694939547    -2.7296261829     1.3991575640
   70      N       6.6378492188    -2.7833369252     1.3364231058
   71      C       3.8835580096    -2.2621654742     0.2300175502
   72      S       3.8282659356    -4.0399396230     0.2228857537
   73      C       2.6074266860    -1.8267456625     0.3702153834
   74      C       2.1212781774    -4.0898151537     0.4436327237
   75      S       2.0629097412    -0.1414122763     0.4545342666
   76      C       1.7045013387    -2.8277021258     0.5091901143
   77      C       1.2519890543    -5.2409937252     0.4670915570
   78      C       0.4067167595    -0.8617701746     0.6056875198
   79      C       0.3927758672    -2.2487800336     0.5780776948
   80      N       1.8352049511    -6.3417344102     0.2140161489
   81      S      -0.4595092198    -5.3229451237     0.7987564875
   82      C       0.8846988703    -7.3488485245     0.1643638480
   83      C      -0.3864918288    -7.0133360768     0.4741615304
   84      C      11.8617255927     3.1055078068    -2.3092066549
   85      H       9.7573265532     2.2490677968    -4.0238521552
   86      H       7.7618127744     1.0210171336    -3.2927855869
   87      H       9.2633508575     1.0469709439     0.7081462776
   88      H       5.7344122204     1.3309661843    -1.7724433296
   89      H      -0.4222478531    -0.1823354534     0.7582002433
   90      H      -0.5785693235    -2.7312533700     0.5743360208
   91      H       1.2509717176    -8.3070756013    -0.1799616821
   92      H      -1.2566401621    -7.6362694794     0.6337574389
   93      H      11.6973704883     3.6326887715    -3.2572365227
   94      C      13.1498441157     2.2815913752    -2.2768742490
   95      H      11.9223667041     3.9442363851    -1.6046095873
   96      H      13.1622096772     1.5764816898    -3.1167673520
   97      H      13.0952806562     1.6840116486    -1.3587722399
   98      C      14.3712272412     3.2379301468    -2.3053595909
   99      H      14.2430132249     3.9046757879    -3.1669862015
  100      C      15.6970760531     2.3745607177    -2.5448614843
  101      H      14.4054377825     3.6953327353    -1.3084255355
  102      H      15.5434570261     1.5683842960    -3.2732170098
  103      H      15.8925419279     1.8516414886    -1.6006991193
  104      C      16.9050689917     3.1642250156    -2.9658227143
  105      H      17.8066646833     2.5417098564    -2.9021274597
  106      C      17.1390993267     4.4072819475    -2.1114098947
  107      H      16.6685360606     3.4671096128    -3.9933352900
  108      H      16.4500904641     5.2110891493    -2.3966024077
  109      H      18.1666837816     4.7369337746    -2.3079623330
  110      H      17.0883438091     4.2416097309    -1.0277892996
 ----------------------------------------------------------------

    9   -5663.4976623093      7.79E-06 Convergence criterion met
 Total energy in the final basis set = -5663.4976623093

                    Orbital Energies (a.u.)
 --------------------------------------------------------------

 Alpha MOs
 -- Occupied --
-88.992 -88.987 -88.934 -88.927 -88.924 -88.922 -88.907 -88.903
-14.390 -14.390 -14.382 -14.381 -14.353 -14.353 -14.347 -14.338
-14.337 -14.325 -10.281 -10.265 -10.263 -10.262 -10.255 -10.254
-10.252 -10.251 -10.250 -10.245 -10.238 -10.236 -10.235 -10.232
-10.232 -10.231 -10.230 -10.228 -10.228 -10.227 -10.226 -10.225
-10.222 -10.221 -10.220 -10.220 -10.218 -10.217 -10.217 -10.211
-10.211 -10.209 -10.207 -10.205 -10.202 -10.199 -10.198 -10.190
-10.185 -10.184 -10.183 -10.181 -10.180 -10.175 -10.174 -10.172
-10.172 -10.171 -10.169 -10.166  -8.049  -8.043  -7.995  -7.989
 -7.984  -7.981  -7.966  -7.964  -6.013  -6.008  -6.008  -6.007
 -6.003  -6.001  -5.958  -5.955  -5.953  -5.951  -5.949  -5.948
 -5.946  -5.945  -5.944  -5.942  -5.940  -5.938  -5.931  -5.928
 -5.928  -5.925  -5.922  -5.920  -1.052  -1.046  -0.986  -0.963
 -0.952  -0.951  -0.945  -0.932  -0.923  -0.918  -0.914  -0.910
 -0.847  -0.842  -0.838  -0.833  -0.817  -0.811  -0.810  -0.807
 -0.806  -0.804  -0.799  -0.798  -0.788  -0.787  -0.769  -0.767
 -0.752  -0.750  -0.739  -0.739  -0.730  -0.725  -0.711  -0.710
 -0.695  -0.695  -0.676  -0.674  -0.660  -0.657  -0.652  -0.644
 -0.641  -0.636  -0.629  -0.626  -0.612  -0.612  -0.606  -0.602
 -0.595  -0.590  -0.582  -0.579  -0.577  -0.577  -0.564  -0.557
 -0.556  -0.546  -0.544  -0.537  -0.527  -0.527  -0.521  -0.510
 -0.507  -0.505  -0.505  -0.501  -0.494  -0.490  -0.481  -0.481
 -0.475  -0.473  -0.470  -0.470  -0.468  -0.464  -0.452  -0.450
 -0.447  -0.445  -0.444  -0.439  -0.439  -0.437  -0.434  -0.433
 -0.432  -0.427  -0.425  -0.423  -0.422  -0.420  -0.416  -0.413
 -0.412  -0.410  -0.405  -0.405  -0.400  -0.398  -0.397  -0.396
 -0.396  -0.395  -0.394  -0.392  -0.391  -0.389  -0.387  -0.383
 -0.377  -0.377  -0.375  -0.372  -0.367  -0.359  -0.357  -0.355
 -0.354  -0.352  -0.350  -0.349  -0.346  -0.345  -0.343  -0.339
 -0.336  -0.334  -0.332  -0.330  -0.328  -0.327  -0.319  -0.319
 -0.318  -0.318  -0.313  -0.313  -0.306  -0.304  -0.303  -0.297
 -0.295  -0.294  -0.292  -0.291  -0.287  -0.287  -0.283  -0.281
 -0.277  -0.276  -0.268  -0.267  -0.262  -0.255  -0.254  -0.253
 -0.249  -0.245  -0.238  -0.231  -0.197  -0.196

          Ground-State Mulliken Net Atomic Charges

     Atom                 Charge (a.u.)
  ----------------------------------------
      1 C                     0.257918
      2 C                    -0.108653
      3 N                    -0.474743
      4 C                    -0.052421
      5 C                     0.064731
      6 C                     0.052119
      7 C                     0.034956
      8 C                     0.060905
      9 C                     0.229100
     10 N                    -0.528430
     11 N                    -0.534886
     12 C                     0.170353
     13 C                     0.283176
     14 S                     0.609324
     15 N                    -0.548090
     16 C                    -0.237656
     17 S                     0.308302
     18 C                    -0.086541
     19 C                    -0.253468
     20 S                     0.279599
     21 C                     0.148400
     22 C                     0.031129
     23 C                    -0.308480
     24 C                    -0.025147
     25 N                    -0.425758
     26 S                     0.301946
     27 C                     0.134695
     28 C                    -0.317974
     29 C                    -0.225363
     30 H                     0.093665
     31 H                     0.107801
     32 H                     0.100167
     33 H                     0.116815
     34 H                     0.130482
     35 H                     0.119151
     36 H                     0.124578
     37 H                     0.129565
     38 H                     0.094876
     39 C                    -0.185689
     40 H                     0.118954
     41 H                     0.096999
     42 H                     0.083832
     43 C                    -0.168555
     44 H                     0.099863
     45 C                    -0.159267
     46 H                     0.090431
     47 H                     0.111986
     48 H                     0.083357
     49 C                    -0.188623
     50 H                     0.092908
     51 C                    -0.318690
     52 H                     0.085831
     53 H                     0.097535
     54 H                     0.102540
     55 H                     0.100620
     56 C                     0.240483
     57 C                    -0.114845
     58 N                    -0.477608
     59 C                    -0.082962
     60 C                     0.102888
     61 C                     0.055622
     62 C                     0.001330
     63 C                     0.067264
     64 C                     0.243224
     65 N                    -0.502945
     66 N                    -0.551351
     67 C                     0.185940
     68 C                     0.246984
     69 S                     0.599870
     70 N                    -0.541113
     71 C                    -0.194155
     72 S                     0.339045
     73 C                    -0.108176
     74 C                    -0.216364
     75 S                     0.262123
     76 C                     0.159349
     77 C                     0.086399
     78 C                    -0.300028
     79 C                    -0.098902
     80 N                    -0.428275
     81 S                     0.270873
     82 C                     0.112772
     83 C                    -0.311623
     84 C                    -0.225217
     85 H                     0.095151
     86 H                     0.104893
     87 H                     0.098636
     88 H                     0.117856
     89 H                     0.128748
     90 H                     0.120763
     91 H                     0.109903
     92 H                     0.142428
     93 H                     0.087179
     94 C                    -0.177736
     95 H                     0.117666
     96 H                     0.092722
     97 H                     0.119633
     98 C                    -0.177209
     99 H                     0.093098
    100 C                    -0.179523
    101 H                     0.110268
    102 H                     0.085555
    103 H                     0.088871
    104 C                    -0.173438
    105 H                     0.092256
    106 C                    -0.313268
    107 H                     0.092091
    108 H                     0.105722
    109 H                     0.095693
    110 H                     0.101266
  ----------------------------------------
  Sum of atomic charges =     0.000000

                    Cartesian Multipole Moments
 -----------------------------------------------------------------
    Charge (ESU x 10^10)
                 0.0000
    Dipole Moment (Debye)
         X       1.3198      Y       0.1961      Z      -2.4166
       Tot       2.7604
    Quadrupole Moments (Debye-Ang)
        XX    -462.0191     XY      13.9015     YY    -428.7755
        XZ      -1.5040     YZ       2.1369     ZZ    -422.9309

 Total job time:  86.20s(wall), 935.11s(cpu)
        *  Thank you very much for using Q-Chem.  Have a nice day.  *
