 Q-Chem 4.4, Q-Chem, Inc., Pleasanton, CA (2016)
 Q-Chem 4.4.2 for Intel X86 Linux

User input:
--------------------------------------------------------------
$comment
SP
$end

$rem
MEM_STATIC 5000
MEM_TOTAL 20000
JOBTYPE SP
EXCHANGE B3LYP
BASIS 6-31g(d,p)
$end

$molecule
0 1
C         -11.630000      6.888000     -2.764000
C         -11.740000      6.266000     -1.534000
N         -10.425000      6.943000     -3.341000
C         -10.729000      5.483000     -0.993000
C          -9.346000      6.294000     -2.790000
C          -9.408000      5.514000     -1.626000
C          -8.239000      4.674000     -1.233000
C          -8.391000      3.547000     -0.440000
C          -6.925000      4.880000     -1.703000
N          -7.411000      2.676000     -0.198000
N          -6.496000      5.960000     -2.356000
C          -5.895000      4.031000     -1.383000
C          -6.144000      2.881000     -0.654000
S          -4.896000      5.892000     -2.445000
N          -4.668000      4.478000     -1.635000
C          -5.190000      1.888000     -0.257000
S          -3.712000      1.400000     -1.094000
C          -5.313000      1.188000      0.929000
C          -3.351000      0.160000      0.175000
S          -6.532000      1.424000      2.187000
C          -4.343000      0.231000      1.137000
C          -2.182000     -0.676000      0.219000
C          -5.718000      0.033000      2.964000
C          -4.586000     -0.417000      2.345000
N          -2.078000     -1.617000      1.135000
S          -0.899000     -0.498000     -0.960000
C          -0.872000     -2.308000      0.907000
C          -0.218000     -1.941000     -0.219000
C         -12.803000      7.720000     -3.355000
H         -12.681000      6.232000     -0.994000
H         -10.913000      5.015000     -0.030000
H          -8.465000      6.127000     -3.409000
H          -9.332000      3.396000      0.087000
H          -6.100000     -0.352000      3.900000
H          -3.961000     -1.242000      2.669000
H          -0.650000     -3.196000      1.483000
H           0.653000     -2.374000     -0.694000
H         -12.859000      8.625000     -2.737000
C         -14.160000      7.050000     -3.059000
H         -12.656000      7.958000     -4.416000
H         -14.882000      7.554000     -3.713000
H         -14.558000      7.114000     -2.039000
C         -14.238000      5.626000     -3.590000
H         -13.863000      5.581000     -4.620000
C         -15.705000      5.099000     -3.484000
H         -13.604000      4.976000     -2.976000
H         -16.403000      5.800000     -3.957000
H         -16.091000      5.023000     -2.459000
C         -15.800000      3.704000     -4.155000
H         -15.483000      3.679000     -5.205000
C         -17.288000      3.372000     -4.015000
H         -15.131000      3.022000     -3.617000
H         -17.746000      3.418000     -3.019000
H         -17.475000      2.330000     -4.304000
H         -17.859000      4.060000     -4.650000
C         -10.666000      8.941000      0.122000
C          -9.790000      9.360000     -0.850000
N         -10.202000      8.335000      1.226000
C          -8.464000      8.857000     -0.801000
C          -8.921000      7.926000      1.230000
C          -7.966000      8.168000      0.297000
C          -6.531000      7.747000      0.351000
C          -5.526000      8.474000     -0.316000
C          -6.004000      6.713000      1.207000
N          -4.198000      8.278000     -0.271000
N          -6.795000      5.901000      1.956000
C          -4.603000      6.490000      1.211000
C          -3.715000      7.181000      0.378000
S          -5.712000      5.051000      2.837000
N          -4.312000      5.564000      2.132000
C          -2.252000      7.136000      0.365000
S          -1.078000      8.488000      0.175000
C          -1.553000      5.900000      0.380000
C           0.230000      7.358000      0.187000
S          -2.124000      4.241000      0.395000
C          -0.164000      6.085000      0.316000
C           1.590000      7.695000     -0.194000
C          -0.373000      3.782000      0.210000
C           0.479000      4.868000      0.275000
N           1.710000      8.706000     -1.048000
S           3.080000      6.948000      0.321000
C           3.077000      9.030000     -1.263000
C           3.900000      8.314000     -0.480000
C         -12.117000      9.469000      0.319000
H         -10.168000      9.971000     -1.664000
H          -7.864000      9.148000     -1.659000
H          -8.771000      7.341000      2.136000
H          -5.810000      9.244000     -1.032000
H          -0.193000      2.719000      0.128000
H           1.530000      4.745000      0.041000
H           3.244000      9.847000     -1.952000
H           4.977000      8.423000     -0.461000
H         -11.999000     10.492000      0.696000
C         -13.108000      8.619000      1.135000
H         -12.598000      9.628000     -0.655000
H         -12.791000      8.288000      2.132000
H         -13.257000      7.715000      0.531000
C         -14.439000      9.435000      1.237000
H         -14.341000     10.492000      1.514000
C         -15.410000      8.669000      2.219000
H         -15.026000      9.481000      0.312000
H         -15.130000      8.796000      3.272000
H         -15.273000      7.583000      2.144000
C         -16.885000      8.969000      2.056000
H         -17.092000     10.020000      2.295000
C         -17.790000      8.204000      3.053000
H         -17.271000      8.848000      1.036000
H         -17.557000      8.545000      4.070000
H         -17.779000      7.120000      2.886000
H         -18.838000      8.465000      2.863000
$end

--------------------------------------------------------------

             Standard Nuclear Orientation (Angstroms)
    I     Atom           X                Y                Z
 ----------------------------------------------------------------
    1      C      -5.7150639177    -0.4706659966     2.1560129231
    2      C      -5.6031232878     0.1476278213     0.9243205711
    3      N      -4.5931563698    -0.7742690616     2.8171692078
    4      C      -4.4131448624     0.6923874499     0.4605541493
    5      C      -3.3646814466    -0.3749902675     2.3476281473
    6      C      -3.1770416806     0.3881874618     1.1859521719
    7      C      -1.8314230879     0.9566375646     0.8813457317
    8      C      -1.6839619661     2.0818678789     0.0849827759
    9      C      -0.6278183665     0.4812229143     1.4428157533
   10      N      -0.5266242332     2.7223208583    -0.0823323551
   11      N      -0.4854329316    -0.6583658140     2.1195091242
   12      C       0.5790856551     1.0887466853     1.2011578334
   13      C       0.6323768546     2.2577177605     0.4618279521
   14      S       1.0820735029    -0.9307565885     2.3226638530
   15      N       1.6620835091     0.3940402556     1.5378188271
   16      C       1.8012623588     3.0212840616     0.1386450597
   17      S       3.2862735135     3.1930090395     1.0812209995
   18      C       1.9140027122     3.7190146432    -1.0497095373
   19      C       3.9913613730     4.3147478791    -0.1528110448
   20      S       0.7647303347     3.7341323641    -2.3925295018
   21      C       3.0774711763     4.4459799975    -1.1834088516
   22      C       5.3114624850     4.8829338886    -0.1093287198
   23      C       1.9086285826     4.9123605490    -3.1027978618
   24      C       3.0637628803     5.1181521234    -2.4025125042
   25      N       5.6775768838     5.7707697829    -1.0110274898
   26      S       6.4406944767     4.4488658131     1.1572548798
   27      C       6.9836924013     6.1922542092    -0.6943034245
   28      C       7.4634807142     5.7065240672     0.4736650699
   29      C      -7.0768750336    -1.0283819607     2.6578668740
   30      H      -6.4748180204     0.3750360761     0.3187871047
   31      H      -4.4249288579     1.1787044683    -0.5108396407
   32      H      -2.5143222109    -0.3924277904     3.0286539200
   33      H      -2.5317065874     2.4237369314    -0.5070185822
   34      H       1.6843254368     5.3599031138    -4.0617758341
   35      H       3.8711395532     5.7881859720    -2.6771459869
   36      H       7.4295117973     7.0067946030    -1.2487157378
   37      H       8.3708116123     5.9496248262     1.0116312979
   38      H      -7.2801342950    -1.9072527779     2.0330815033
   39      C      -8.2360598176    -0.0886274776     2.2691289827
   40      H      -7.0591897950    -1.2810769905     3.7254840592
   41      H      -9.0930658213    -0.4209559779     2.8675556512
   42      H      -8.5654565387    -0.0772990054     1.2230556268
   43      C      -8.0469302959     1.3249243672     2.8000924523
   44      H      -7.7446944788     1.3000188441     3.8544089255
   45      C      -9.3571444740     2.1502912052     2.5923368495
   46      H      -7.2474823134     1.8190196931     2.2359960668
   47      H     -10.2198406394     1.6184801034     3.0109850050
   48      H      -9.6447350051     2.2958184218     1.5428081383
   49      C      -9.2006422482     3.5405780406     3.2615905895
   50      H      -8.9605973207     3.5086551251     4.3316248695
   51      C     -10.5703679399     4.1795075128     3.0174827053
   52      H      -8.3656535365     4.0593030196     2.7759495210
   53      H     -10.9561103544     4.2214162807     1.9911579785
   54      H     -10.5515602105     5.2404123964     3.2974489481
   55      H     -11.3179781553     3.6351220036     3.6068326721
   56      C      -5.0079533212    -2.7115744769    -0.6638141614
   57      C      -4.3119743131    -3.2968663662     0.3661215767
   58      N      -4.3489048618    -2.2294899587    -1.7289890980
   59      C      -2.9092901064    -3.0874587227     0.4141991708
   60      C      -3.0132379560    -2.1019073858    -1.6396884616
   61      C      -2.1998876082    -2.5314291838    -0.6421664133
   62      C      -0.7080492673    -2.4253455218    -0.5917023540
   63      C       0.0697421563    -3.3421742224     0.1417201949
   64      C       0.0858433241    -1.5358348212    -1.4029521717
   65      N       1.4088384007    -3.4331306149     0.1924467435
   66      N      -0.4595230165    -0.5822493888    -2.2024997798
   67      C       1.4989257170    -1.6154821664    -1.3059962461
   68      C       2.1586093024    -2.4705551131    -0.4151641504
   69      S       0.8388981875     0.0091385085    -2.9999411458
   70      N       2.0444534236    -0.7820656333    -2.1994247008
   71      C       3.5930798754    -2.7371212567    -0.2976921691
   72      S       4.4364442517    -4.3055294977    -0.0310236137
   73      C       4.5380962582    -1.6779714482    -0.2568544487
   74      C       5.9522427543    -3.4792481362     0.0557059147
   75      S       4.3352947989     0.0641962229    -0.3045028913
   76      C       5.8479548596    -2.1530324074    -0.0948991175
   77      C       7.1791243764    -4.0933653967     0.5310494491
   78      C       6.1262880355     0.1428031851     0.0070595774
   79      C       6.7303976130    -1.0999716286    -0.0022881934
   80      N       7.0208213152    -5.0978154976     1.3865359398
   81      S       8.8264415098    -3.6852284911     0.1271874327
   82      C       8.2690211319    -5.7024499152     1.6968655043
   83      C       9.2786400579    -5.1857631304     0.9779925039
   84      C      -6.5203878548    -2.9214352409    -0.9662943114
   85      H      -4.8677737012    -3.8051273090     1.1481438617
   86      H      -2.4470332429    -3.4902579650     1.3113704826
   87      H      -2.6786688615    -1.5715961424    -2.5298538992
   88      H      -0.4213154602    -4.0267845629     0.8319253086
   89      H       6.5218644915     1.1441326288     0.1068173474
   90      H       7.7642963714    -1.2005236560     0.3066270814
   91      H       8.2094216421    -6.5290390470     2.3920613818
   92      H      10.3064473521    -5.5211741304     1.0352867204
   93      H      -6.5961838871    -3.9500410782    -1.3388624166
   94      C      -7.2478594512    -1.8889475634    -1.8467437831
   95      H      -7.0918038190    -2.9644869866    -0.0298391107
   96      H      -6.7980910473    -1.6432424477    -2.8169996148
   97      H      -7.2436140737    -0.9676676262    -1.2505405846
   98      C      -8.7112737039    -2.4047141892    -2.0473042795
   99      H      -8.8208563831    -3.4612513638    -2.3217178999
  100      C      -9.4253752889    -1.4602865651    -3.0923097288
  101      H      -9.3585141143    -2.3153516611    -1.1667339020
  102      H      -9.1050588710    -1.6548379623    -4.1232729417
  103      H      -9.0663226547    -0.4274248679    -3.0024881269
  104      C     -10.9381821414    -1.4385042574    -3.0363190311
  105      H     -11.3464251191    -2.4240139957    -3.2945422425
  106      C     -11.5871131774    -0.5092257353    -4.0915862668
  107      H     -11.3607479420    -1.2276508241    -2.0458565261
  108      H     -11.3606337354    -0.9025279351    -5.0910258307
  109      H     -11.3577864740     0.5493989358    -3.9189911663
  110      H     -12.6773890215    -0.5397280448    -3.9780380698
 ----------------------------------------------------------------

   10   -5663.4830612714      3.67E-06 Convergence criterion met
 Total energy in the final basis set = -5663.4830612714

                    Orbital Energies (a.u.)
 --------------------------------------------------------------

 Alpha MOs
 -- Occupied --
-88.988 -88.985 -88.928 -88.928 -88.927 -88.924 -88.912 -88.905
-14.382 -14.381 -14.380 -14.376 -14.347 -14.346 -14.345 -14.336
-14.324 -14.317 -10.272 -10.266 -10.259 -10.257 -10.256 -10.255
-10.250 -10.246 -10.243 -10.240 -10.237 -10.235 -10.233 -10.232
-10.231 -10.230 -10.229 -10.228 -10.228 -10.227 -10.226 -10.226
-10.226 -10.223 -10.222 -10.221 -10.219 -10.217 -10.214 -10.211
-10.208 -10.207 -10.204 -10.198 -10.197 -10.193 -10.193 -10.192
-10.190 -10.186 -10.183 -10.182 -10.181 -10.179 -10.177 -10.176
-10.175 -10.174 -10.172 -10.170  -8.043  -8.040  -7.989  -7.988
 -7.987  -7.982  -7.971  -7.964  -6.008  -6.005  -6.002  -6.001
 -6.000  -5.998  -5.953  -5.953  -5.951  -5.950  -5.949  -5.947
 -5.947  -5.946  -5.945  -5.943  -5.943  -5.939  -5.935  -5.932
 -5.929  -5.927  -5.925  -5.920  -1.048  -1.033  -0.969  -0.961
 -0.958  -0.954  -0.937  -0.930  -0.915  -0.911  -0.908  -0.901
 -0.843  -0.840  -0.833  -0.831  -0.812  -0.810  -0.808  -0.804
 -0.800  -0.796  -0.796  -0.794  -0.784  -0.779  -0.770  -0.765
 -0.753  -0.751  -0.744  -0.743  -0.723  -0.721  -0.712  -0.708
 -0.697  -0.694  -0.678  -0.673  -0.654  -0.651  -0.646  -0.642
 -0.638  -0.631  -0.622  -0.621  -0.612  -0.606  -0.596  -0.595
 -0.594  -0.593  -0.583  -0.582  -0.581  -0.576  -0.573  -0.572
 -0.557  -0.544  -0.540  -0.536  -0.529  -0.519  -0.515  -0.515
 -0.508  -0.505  -0.502  -0.500  -0.488  -0.484  -0.479  -0.476
 -0.472  -0.468  -0.466  -0.464  -0.461  -0.455  -0.453  -0.447
 -0.445  -0.442  -0.440  -0.436  -0.436  -0.434  -0.433  -0.427
 -0.427  -0.423  -0.421  -0.418  -0.417  -0.416  -0.415  -0.411
 -0.410  -0.409  -0.402  -0.401  -0.399  -0.398  -0.396  -0.393
 -0.391  -0.390  -0.390  -0.388  -0.387  -0.385  -0.382  -0.382
 -0.380  -0.373  -0.370  -0.366  -0.365  -0.363  -0.362  -0.362
 -0.357  -0.353  -0.351  -0.349  -0.348  -0.345  -0.344  -0.343
 -0.339  -0.335  -0.333  -0.333  -0.329  -0.327  -0.327  -0.322
 -0.319  -0.311  -0.311  -0.309  -0.305  -0.303  -0.298  -0.296
 -0.292  -0.292  -0.290  -0.287  -0.285  -0.281  -0.280  -0.276
 -0.274  -0.271  -0.268  -0.263  -0.254  -0.253  -0.248  -0.243
 -0.242  -0.240  -0.231  -0.228  -0.195  -0.192

          Ground-State Mulliken Net Atomic Charges

     Atom                 Charge (a.u.)
  ----------------------------------------
      1 C                     0.285561
      2 C                    -0.106051
      3 N                    -0.511839
      4 C                    -0.083620
      5 C                     0.078146
      6 C                     0.040614
      7 C                     0.085495
      8 C                     0.065830
      9 C                     0.223789
     10 N                    -0.528930
     11 N                    -0.564542
     12 C                     0.193818
     13 C                     0.263608
     14 S                     0.628854
     15 N                    -0.569928
     16 C                    -0.187167
     17 S                     0.305615
     18 C                    -0.121086
     19 C                    -0.252052
     20 S                     0.280866
     21 C                     0.200324
     22 C                     0.085221
     23 C                    -0.305744
     24 C                    -0.060056
     25 N                    -0.453421
     26 S                     0.246144
     27 C                     0.122066
     28 C                    -0.298927
     29 C                    -0.226132
     30 H                     0.086072
     31 H                     0.109134
     32 H                     0.121539
     33 H                     0.108353
     34 H                     0.120724
     35 H                     0.128529
     36 H                     0.117094
     37 H                     0.133017
     38 H                     0.119338
     39 C                    -0.203500
     40 H                     0.119364
     41 H                     0.095417
     42 H                     0.098489
     43 C                    -0.171955
     44 H                     0.095916
     45 C                    -0.173187
     46 H                     0.095518
     47 H                     0.087386
     48 H                     0.091481
     49 C                    -0.172850
     50 H                     0.098085
     51 C                    -0.320309
     52 H                     0.096190
     53 H                     0.101014
     54 H                     0.090236
     55 H                     0.104793
     56 C                     0.254609
     57 C                    -0.110400
     58 N                    -0.476714
     59 C                    -0.105830
     60 C                     0.044627
     61 C                     0.096085
     62 C                     0.080996
     63 C                     0.035218
     64 C                     0.168452
     65 N                    -0.495317
     66 N                    -0.554891
     67 C                     0.276754
     68 C                     0.222388
     69 S                     0.617887
     70 N                    -0.554103
     71 C                    -0.226664
     72 S                     0.356477
     73 C                    -0.142045
     74 C                    -0.207258
     75 S                     0.316299
     76 C                     0.173881
     77 C                     0.041820
     78 C                    -0.314258
     79 C                    -0.085619
     80 N                    -0.427889
     81 S                     0.262327
     82 C                     0.124185
     83 C                    -0.305952
     84 C                    -0.235769
     85 H                     0.094164
     86 H                     0.104172
     87 H                     0.113158
     88 H                     0.104658
     89 H                     0.137554
     90 H                     0.105984
     91 H                     0.122096
     92 H                     0.127056
     93 H                     0.119852
     94 C                    -0.169014
     95 H                     0.093329
     96 H                     0.123590
     97 H                     0.093585
     98 C                    -0.185638
     99 H                     0.097042
    100 C                    -0.171243
    101 H                     0.091443
    102 H                     0.090487
    103 H                     0.087049
    104 C                    -0.184111
    105 H                     0.091654
    106 C                    -0.320853
    107 H                     0.087969
    108 H                     0.105795
    109 H                     0.101342
    110 H                     0.097239
  ----------------------------------------
  Sum of atomic charges =     0.000000

                    Cartesian Multipole Moments
 -----------------------------------------------------------------
    Charge (ESU x 10^10)
                 0.0000
    Dipole Moment (Debye)
         X       1.7872      Y       1.4557      Z       0.3110
       Tot       2.3259
    Quadrupole Moments (Debye-Ang)
        XX    -375.9940     XY      10.5500     YY    -440.1387
        XZ       7.5271     YZ      -7.6212     ZZ    -446.2426

 Total job time:  120.79s(wall), 1285.72s(cpu)
        *  Thank you very much for using Q-Chem.  Have a nice day.  *
