 Q-Chem 4.4, Q-Chem, Inc., Pleasanton, CA (2016)
 Q-Chem 4.4.2 for Intel X86 Linux

User input:
--------------------------------------------------------------
$comment
SP
$end

$rem
MEM_STATIC 5000
MEM_TOTAL 20000
JOBTYPE SP
EXCHANGE B3LYP
BASIS 6-31g(d,p)
$end

$molecule
0 1
C           4.495000     12.857000     -0.653000
C           5.222000     14.008000     -0.309000
N           5.019000     11.941000     -1.495000
C           6.491000     14.271000     -0.995000
C           6.200000     12.184000     -2.095000
C           7.012000     13.310000     -1.932000
C           8.323000     13.531000     -2.697000
C           8.848000     14.819000     -2.801000
C           9.094000     12.486000     -3.208000
N           9.960000     15.063000     -3.554000
N           8.788000     11.153000     -3.231000
C          10.217000     12.756000     -3.960000
C          10.684000     14.048000     -4.121000
S           9.999000     10.402000     -3.967000
N          10.915000     11.706000     -4.363000
C          11.889000     14.579000     -4.880000
S          13.091000     13.586000     -5.614000
C          12.288000     15.940000     -4.985000
C          14.114000     14.970000     -6.018000
S          11.538000     17.424000     -4.383000
C          13.543000     16.130000     -5.619000
C          15.493000     14.914000     -6.567000
C          12.822000     18.279000     -5.131000
C          13.811000     17.523000     -5.697000
N          15.997000     13.697000     -6.735000
S          16.714000     16.161000     -6.727000
C          17.331000     13.729000     -7.090000
C          17.768000     15.011000     -7.289000
C           3.384000     12.358000      0.317000
H           4.824000     14.654000      0.467000
H           7.031000     15.185000     -0.769000
H           6.446000     11.416000     -2.828000
H           8.411000     15.723000     -2.382000
H          12.801000     19.358000     -5.056000
H          14.713000     17.941000     -6.128000
H          17.847000     12.805000     -7.317000
H          18.779000     15.303000     -7.539000
H           3.512000     11.332000      0.684000
C           2.016000     12.458000     -0.420000
H           3.290000     13.008000      1.195000
H           1.874000     11.821000     -1.302000
H           2.039000     13.501000     -0.759000
C           0.900000     12.262000      0.604000
H           0.823000     11.174000      0.719000
C          -0.408000     12.895000     -0.061000
H           1.004000     12.782000      1.564000
H          -0.689000     12.202000     -0.864000
H          -0.259000     13.913000     -0.441000
C          -1.637000     13.008000      0.941000
H          -1.859000     11.976000      1.240000
C          -2.912000     13.512000      0.239000
H          -1.284000     13.520000      1.845000
H          -3.413000     12.637000     -0.191000
H          -2.723000     14.321000     -0.478000
H          -3.599000     13.960000      0.967000
C         -10.666000      8.941000      0.122000
C          -9.790000      9.360000     -0.850000
N         -10.202000      8.335000      1.226000
C          -8.464000      8.857000     -0.801000
C          -8.921000      7.926000      1.230000
C          -7.966000      8.168000      0.297000
C          -6.531000      7.747000      0.351000
C          -5.526000      8.474000     -0.316000
C          -6.004000      6.713000      1.207000
N          -4.198000      8.278000     -0.271000
N          -6.795000      5.901000      1.956000
C          -4.603000      6.490000      1.211000
C          -3.715000      7.181000      0.378000
S          -5.712000      5.051000      2.837000
N          -4.312000      5.564000      2.132000
C          -2.252000      7.136000      0.365000
S          -1.078000      8.488000      0.175000
C          -1.553000      5.900000      0.380000
C           0.230000      7.358000      0.187000
S          -2.124000      4.241000      0.395000
C          -0.164000      6.085000      0.316000
C           1.590000      7.695000     -0.194000
C          -0.373000      3.782000      0.210000
C           0.479000      4.868000      0.275000
N           1.710000      8.706000     -1.048000
S           3.080000      6.948000      0.321000
C           3.077000      9.030000     -1.263000
C           3.900000      8.314000     -0.480000
C         -12.117000      9.469000      0.319000
H         -10.168000      9.971000     -1.664000
H          -7.864000      9.148000     -1.659000
H          -8.771000      7.341000      2.136000
H          -5.810000      9.244000     -1.032000
H          -0.193000      2.719000      0.128000
H           1.530000      4.745000      0.041000
H           3.244000      9.847000     -1.952000
H           4.977000      8.423000     -0.461000
H         -11.999000     10.492000      0.696000
C         -13.108000      8.619000      1.135000
H         -12.598000      9.628000     -0.655000
H         -12.791000      8.288000      2.132000
H         -13.257000      7.715000      0.531000
C         -14.439000      9.435000      1.237000
H         -14.341000     10.492000      1.514000
C         -15.410000      8.669000      2.219000
H         -15.026000      9.481000      0.312000
H         -15.130000      8.796000      3.272000
H         -15.273000      7.583000      2.144000
C         -16.885000      8.969000      2.056000
H         -17.092000     10.020000      2.295000
C         -17.790000      8.204000      3.053000
H         -17.271000      8.848000      1.036000
H         -17.557000      8.545000      4.070000
H         -17.779000      7.120000      2.886000
H         -18.838000      8.465000      2.863000
$end

--------------------------------------------------------------

             Standard Nuclear Orientation (Angstroms)
    I     Atom           X                Y                Z
 ----------------------------------------------------------------
    1      C       2.7247862688     1.1144116088     1.7083694630
    2      C       3.6335684785     1.8957533548     2.4400018648
    3      N       3.1667706165     0.2130980069     0.8056626294
    4      C       5.0580103037     1.8239557148     2.0995072456
    5      C       4.4818959866     0.1389088204     0.5250361416
    6      C       5.5092061499     0.8958526496     1.0955261657
    7      C       6.9810376755     0.7828122896     0.6787278484
    8      C       7.8595698713     1.8253448043     0.9731631332
    9      C       7.5276059079    -0.3696602405     0.1124618027
   10      N       9.1512982681     1.7976858513     0.5329793860
   11      N       6.8713796300    -1.5075432016    -0.2691707942
   12      C       8.8366302139    -0.3768691216    -0.3187416279
   13      C       9.6776969694     0.6970464330    -0.0894250469
   14      S       7.9663061288    -2.4978024756    -0.8958609350
   15      N       9.2862471659    -1.5259869356    -0.7977884377
   16      C      11.1385818120     0.9070532576    -0.4524396616
   17      S      12.1556939858    -0.3060812654    -1.1331719546
   18      C      11.9219839272     2.0593928845    -0.1679374471
   19      C      13.5992114473     0.7061445656    -1.0033366531
   20      S      11.4961747142     3.6005231433     0.5875518246
   21      C      13.2991240022     1.9164307875    -0.4779826903
   22      C      14.9983816085     0.2802746679    -1.2624422108
   23      C      13.1194137221     4.0847711155     0.3233851637
   24      C      13.9637844854     3.1378424279    -0.1868864059
   25      N      15.1601076192    -0.9954384176    -1.5936971293
   26      S      16.5217305142     1.0630392369    -0.8907733513
   27      C      16.4922056158    -1.3533433900    -1.6571318061
   28      C      17.3126770522    -0.2731742242    -1.4723205639
   29      C       1.3046169852     0.8717279080     2.2986624643
   30      H       3.2480470850     2.5136379737     3.2446681638
   31      H       5.7575796553     2.4637663783     2.6280117745
   32      H       4.6812266281    -0.5488838576    -0.2964488111
   33      H       7.6048574683     2.7497886801     1.4872361943
   34      H      13.3880743704     5.0861830940     0.6320962022
   35      H      15.0273635771     3.2937255576    -0.3232277622
   36      H      16.7639366716    -2.3511425024    -1.9766942640
   37      H      18.3935949780    -0.2977108825    -1.4423307298
   38      H       1.0343270682    -0.1815154252     2.4448501575
   39      C       0.2639479645     1.5266644754     1.3433305418
   40      H       1.1739630739     1.3777194214     3.2625722857
   41      H       0.1817028686     1.1113408970     0.3311057301
   42      H       0.6710317109     2.5417003261     1.2579839246
   43      C      -1.0885511548     1.5599866511     2.0519092353
   44      H      -1.4997721723     0.5542363583     1.9027059401
   45      C      -1.9407336682     2.6811409624     1.2965444398
   46      H      -1.0950750181     1.8671887875     3.1047151465
   47      H      -2.1877650348     2.2477626522     0.3192124879
   48      H      -1.4138680673     3.6373674094     1.1918132571
   49      C      -3.3036086477     3.0430642120     2.0305726079
   50      H      -3.8806378756     2.1099765878     2.0402553535
   51      C      -4.1524719588     4.0386020016     1.2176884904
   52      H      -3.0681511065     3.2689079823     3.0782000883
   53      H      -4.7516848432     3.4526660790     0.5111837037
   54      H      -3.5602998368     4.8370556908     0.7528284209
   55      H      -4.8484356863     4.5745628856     1.8742228923
   56      C     -12.5761515951     2.3570530583    -1.4741994224
   57      C     -11.3949947361     2.6030979476    -2.1315055815
   58      N     -12.6092818213     1.4744156535    -0.4636542232
   59      C     -10.3282943333     1.6889820397    -1.9309355000
   60      C     -11.5455331020     0.6694821470    -0.2940113268
   61      C     -10.3521639695     0.7186500767    -0.9378518569
   62      C      -9.1628671555    -0.1557899086    -0.6922713195
   63      C      -7.8545774113     0.2892441384    -0.9638696297
   64      C      -9.1951545461    -1.4211771851    -0.0013490627
   65      N      -6.6974652632    -0.3388045525    -0.6980288531
   66      N     -10.3517292646    -2.0283446028     0.3724271369
   67      C      -7.9677096822    -2.0923924024     0.2340128674
   68      C      -6.7342383069    -1.6175199304    -0.2274614025
   69      S      -9.8253203299    -3.3096233862     1.2400493546
   70      N      -8.2038304285    -3.1888545235     0.9636811551
   71      C      -5.3944290010    -2.1407805142     0.0439651719
   72      S      -3.8766572156    -1.2401565313     0.4010719473
   73      C      -5.1060687213    -3.5258923195    -0.0778364536
   74      C      -2.9956470757    -2.7271910269     0.4224621802
   75      S      -6.1095521635    -4.8857450113    -0.5493962459
   76      C      -3.7556171242    -3.8027415063     0.1815416714
   77      C      -1.5458287987    -2.8055411781     0.4076899893
   78      C      -4.5772495851    -5.8643575348    -0.4767785016
   79      C      -3.4988625699    -5.1432995982    -0.0006672776
   80      N      -0.9239285602    -1.7756052281    -0.1564988376
   81      S      -0.5191286706    -4.0707054518     1.0310520088
   82      C       0.4852917645    -1.8931278885    -0.0144548278
   83      C       0.8357099255    -2.9490244352     0.7374518120
   84      C     -13.8152431456     3.2990907615    -1.4596703046
   85      H     -11.3568535731     3.4187606257    -2.8470757369
   86      H      -9.4679372763     1.8899030674    -2.5635977125
   87      H     -11.8105575691    -0.0603485835     0.4693170014
   88      H      -7.7100065864     1.2074408648    -1.5315192119
   89      H      -4.6928840077    -6.9023344776    -0.7566455177
   90      H      -2.5035454326    -5.5702242860    -0.0402287110
   91      H       1.0521436059    -1.0841246531    -0.4552402122
   92      H       1.8550806303    -3.2060198378     0.9963103243
   93      H     -13.5132166675     4.1573788537    -0.8475399612
   94      C     -15.1845958689     2.7125832599    -1.0706727856
   95      H     -13.9591732926     3.7513507136    -2.4496516421
   96      H     -15.2469553365     2.1507590397    -0.1301815084
   97      H     -15.4220097884     2.0092826283    -1.8789028595
   98      C     -16.2061047607     3.8975664776    -1.0582085322
   99      H     -15.8867171552     4.8090557954    -0.5378617432
  100      C     -17.5764124935     3.3579987212    -0.4880819204
  101      H     -16.4928033767     4.2722175428    -2.0480319927
  102      H     -17.5569468746     3.2269163229     0.6008517298
  103      H     -17.7400884135     2.3117455214    -0.7750565450
  104      C     -18.8086319096     4.1491240140    -0.8727247181
  105      H     -18.7623164964     5.1614328706    -0.4512313475
  106      C     -20.1217033575     3.5864513044    -0.2748101803
  107      H     -18.9327621742     4.3158934367    -1.9501367270
  108      H     -20.0751732337     3.6757133837     0.8182251480
  109      H     -20.3769879929     2.5973959107    -0.6743914399
  110      H     -20.9641924048     4.2042058748    -0.6081515905
 ----------------------------------------------------------------

    9   -5663.4892929230      8.94E-06 Convergence criterion met
 Total energy in the final basis set = -5663.4892929230

                    Orbital Energies (a.u.)
 --------------------------------------------------------------

 Alpha MOs
 -- Occupied --
-88.994 -88.986 -88.930 -88.926 -88.925 -88.924 -88.913 -88.911
-14.386 -14.384 -14.383 -14.382 -14.351 -14.347 -14.339 -14.335
-14.331 -14.319 -10.269 -10.267 -10.264 -10.260 -10.259 -10.258
-10.256 -10.252 -10.246 -10.245 -10.241 -10.239 -10.234 -10.234
-10.232 -10.232 -10.231 -10.230 -10.229 -10.228 -10.227 -10.225
-10.225 -10.224 -10.223 -10.223 -10.223 -10.222 -10.218 -10.213
-10.211 -10.210 -10.208 -10.207 -10.202 -10.202 -10.199 -10.196
-10.184 -10.184 -10.178 -10.178 -10.173 -10.172 -10.172 -10.171
-10.170 -10.169 -10.169 -10.166  -8.049  -8.042  -7.993  -7.985
 -7.984  -7.983  -7.973  -7.971  -6.014  -6.009  -6.007  -6.007
 -6.001  -5.999  -5.956  -5.953  -5.950  -5.950  -5.949  -5.948
 -5.946  -5.945  -5.944  -5.942  -5.941  -5.940  -5.937  -5.935
 -5.933  -5.932  -5.929  -5.927  -1.049  -1.034  -0.970  -0.956
 -0.955  -0.953  -0.939  -0.935  -0.914  -0.913  -0.909  -0.902
 -0.852  -0.843  -0.834  -0.832  -0.818  -0.809  -0.805  -0.798
 -0.797  -0.794  -0.793  -0.792  -0.779  -0.773  -0.765  -0.764
 -0.749  -0.747  -0.745  -0.743  -0.724  -0.724  -0.708  -0.706
 -0.694  -0.691  -0.679  -0.673  -0.653  -0.650  -0.646  -0.643
 -0.632  -0.631  -0.624  -0.623  -0.606  -0.606  -0.598  -0.596
 -0.593  -0.592  -0.581  -0.580  -0.575  -0.572  -0.571  -0.562
 -0.546  -0.545  -0.543  -0.536  -0.529  -0.521  -0.520  -0.514
 -0.509  -0.507  -0.502  -0.500  -0.484  -0.482  -0.479  -0.476
 -0.471  -0.469  -0.468  -0.464  -0.464  -0.456  -0.453  -0.447
 -0.444  -0.443  -0.439  -0.434  -0.434  -0.432  -0.432  -0.428
 -0.427  -0.423  -0.419  -0.414  -0.413  -0.412  -0.410  -0.409
 -0.409  -0.407  -0.403  -0.402  -0.402  -0.400  -0.395  -0.393
 -0.391  -0.390  -0.390  -0.388  -0.387  -0.385  -0.383  -0.381
 -0.378  -0.371  -0.368  -0.364  -0.362  -0.361  -0.360  -0.359
 -0.355  -0.353  -0.352  -0.350  -0.346  -0.343  -0.343  -0.341
 -0.340  -0.336  -0.334  -0.330  -0.326  -0.319  -0.318  -0.314
 -0.312  -0.311  -0.310  -0.307  -0.307  -0.301  -0.299  -0.296
 -0.294  -0.293  -0.290  -0.284  -0.279  -0.278  -0.275  -0.275
 -0.274  -0.272  -0.268  -0.267  -0.255  -0.255  -0.251  -0.244
 -0.244  -0.243  -0.234  -0.234  -0.196  -0.195

          Ground-State Mulliken Net Atomic Charges

     Atom                 Charge (a.u.)
  ----------------------------------------
      1 C                     0.272439
      2 C                    -0.132157
      3 N                    -0.488927
      4 C                    -0.100138
      5 C                     0.064954
      6 C                     0.057708
      7 C                     0.034614
      8 C                     0.059331
      9 C                     0.245766
     10 N                    -0.536033
     11 N                    -0.541426
     12 C                     0.194090
     13 C                     0.316286
     14 S                     0.614840
     15 N                    -0.553546
     16 C                    -0.235019
     17 S                     0.360099
     18 C                    -0.128884
     19 C                    -0.249576
     20 S                     0.297008
     21 C                     0.172626
     22 C                     0.052502
     23 C                    -0.303742
     24 C                    -0.083757
     25 N                    -0.428020
     26 S                     0.290826
     27 C                     0.107269
     28 C                    -0.306447
     29 C                    -0.223467
     30 H                     0.095702
     31 H                     0.098135
     32 H                     0.120447
     33 H                     0.120607
     34 H                     0.127444
     35 H                     0.108414
     36 H                     0.118610
     37 H                     0.134404
     38 H                     0.120600
     39 C                    -0.173909
     40 H                     0.095687
     41 H                     0.118801
     42 H                     0.087628
     43 C                    -0.194913
     44 H                     0.114702
     45 C                    -0.178765
     46 H                     0.085842
     47 H                     0.103296
     48 H                     0.087575
     49 C                    -0.192769
     50 H                     0.100914
     51 C                    -0.318781
     52 H                     0.085797
     53 H                     0.113364
     54 H                     0.099135
     55 H                     0.097434
     56 C                     0.245943
     57 C                    -0.113484
     58 N                    -0.466375
     59 C                    -0.116877
     60 C                     0.048077
     61 C                     0.100904
     62 C                     0.059344
     63 C                     0.050928
     64 C                     0.192618
     65 N                    -0.502902
     66 N                    -0.547245
     67 C                     0.248029
     68 C                     0.254484
     69 S                     0.602660
     70 N                    -0.552035
     71 C                    -0.225563
     72 S                     0.367673
     73 C                    -0.127610
     74 C                    -0.213754
     75 S                     0.259990
     76 C                     0.178051
     77 C                     0.042101
     78 C                    -0.302540
     79 C                    -0.079587
     80 N                    -0.437980
     81 S                     0.254836
     82 C                     0.130654
     83 C                    -0.313868
     84 C                    -0.230884
     85 H                     0.089555
     86 H                     0.097363
     87 H                     0.116817
     88 H                     0.104003
     89 H                     0.133227
     90 H                     0.110811
     91 H                     0.145717
     92 H                     0.135910
     93 H                     0.118570
     94 C                    -0.166613
     95 H                     0.092817
     96 H                     0.122977
     97 H                     0.101037
     98 C                    -0.184234
     99 H                     0.094316
    100 C                    -0.171952
    101 H                     0.092352
    102 H                     0.088991
    103 H                     0.090445
    104 C                    -0.183358
    105 H                     0.090071
    106 C                    -0.320920
    107 H                     0.088596
    108 H                     0.104919
    109 H                     0.102132
    110 H                     0.096241
  ----------------------------------------
  Sum of atomic charges =     0.000000

                    Cartesian Multipole Moments
 -----------------------------------------------------------------
    Charge (ESU x 10^10)
                 0.0000
    Dipole Moment (Debye)
         X       4.8501      Y       0.0933      Z       0.7409
       Tot       4.9073
    Quadrupole Moments (Debye-Ang)
        XX    -386.5688     XY       7.8609     YY    -411.3626
        XZ      16.4721     YZ       3.6275     ZZ    -443.8209

 Total job time:  86.31s(wall), 936.95s(cpu)
        *  Thank you very much for using Q-Chem.  Have a nice day.  *
