 Q-Chem 4.4, Q-Chem, Inc., Pleasanton, CA (2016)
 Q-Chem 4.4.2 for Intel X86 Linux

User input:
--------------------------------------------------------------
$comment
SP
$end

$rem
MEM_STATIC 5000
MEM_TOTAL 20000
JOBTYPE SP
EXCHANGE B3LYP
BASIS 6-31g(d,p)
$end

$molecule
0 1
C           8.643000     18.493000     -6.994000
C           7.331000     18.106000     -6.943000
N           9.607000     17.570000     -6.936000
C           6.987000     16.849000     -6.563000
C           9.333000     16.266000     -6.707000
C           7.968000     15.816000     -6.454000
C           7.544000     14.406000     -6.205000
C           6.416000     14.161000     -5.473000
C           8.211000     13.240000     -6.709000
N           5.828000     12.961000     -5.267000
N           9.352000     13.250000     -7.466000
C           7.649000     11.981000     -6.509000
C           6.455000     11.864000     -5.737000
S           9.617000     11.699000     -7.782000
N           8.353000     11.019000     -7.152000
C           5.748000     10.613000     -5.444000
S           6.288000      8.973000     -5.848000
C           4.439000     10.508000     -4.812000
C           4.932000      8.230000     -4.956000
S           3.181000     11.713000     -4.381000
C           4.037000      9.192000     -4.649000
C           4.673000      6.870000     -4.717000
C           2.038000     10.409000     -4.145000
C           2.688000      9.181000     -4.288000
N           5.346000      6.058000     -5.483000
S           3.604000      6.116000     -3.644000
C           4.946000      4.701000     -5.269000
C           4.121000      4.540000     -4.194000
C           9.065000     19.878000     -7.183000
H           6.524000     18.804000     -7.148000
H           5.939000     16.585000     -6.452000
H          10.142000     15.553000     -6.559000
H           5.855000     14.927000     -4.940000
H           0.999000     10.605000     -3.917000
H           2.273000      8.191000     -4.134000
H           5.442000      3.970000     -5.893000
H           3.705000      3.607000     -3.837000
H           9.971000     19.931000     -7.800000
C           9.387000     20.601000     -5.870000
H           8.260000     20.419000     -7.696000
H          10.038000     19.963000     -5.259000
H           8.477000     20.789000     -5.286000
C           9.972000     22.066000     -6.196000
H          10.984000     22.008000     -6.617000
C           9.875000     23.090000     -5.055000
H           9.325000     22.437000     -7.000000
H          10.485000     22.611000     -4.279000
H           8.835000     23.152000     -4.714000
C          10.413000     24.502000     -5.327000
H          11.464000     24.448000     -5.637000
C          10.090000     25.453000     -4.232000
H           9.855000     24.915000     -6.176000
H          10.348000     25.117000     -3.220000
H           9.118000     25.897000     -3.984000
H          10.628000     26.405000     -4.315000
C         -10.666000      8.941000      0.122000
C          -9.790000      9.360000     -0.850000
N         -10.202000      8.335000      1.226000
C          -8.464000      8.857000     -0.801000
C          -8.921000      7.926000      1.230000
C          -7.966000      8.168000      0.297000
C          -6.531000      7.747000      0.351000
C          -5.526000      8.474000     -0.316000
C          -6.004000      6.713000      1.207000
N          -4.198000      8.278000     -0.271000
N          -6.795000      5.901000      1.956000
C          -4.603000      6.490000      1.211000
C          -3.715000      7.181000      0.378000
S          -5.712000      5.051000      2.837000
N          -4.312000      5.564000      2.132000
C          -2.252000      7.136000      0.365000
S          -1.078000      8.488000      0.175000
C          -1.553000      5.900000      0.380000
C           0.230000      7.358000      0.187000
S          -2.124000      4.241000      0.395000
C          -0.164000      6.085000      0.316000
C           1.590000      7.695000     -0.194000
C          -0.373000      3.782000      0.210000
C           0.479000      4.868000      0.275000
N           1.710000      8.706000     -1.048000
S           3.080000      6.948000      0.321000
C           3.077000      9.030000     -1.263000
C           3.900000      8.314000     -0.480000
C         -12.117000      9.469000      0.319000
H         -10.168000      9.971000     -1.664000
H          -7.864000      9.148000     -1.659000
H          -8.771000      7.341000      2.136000
H          -5.810000      9.244000     -1.032000
H          -0.193000      2.719000      0.128000
H           1.530000      4.745000      0.041000
H           3.244000      9.847000     -1.952000
H           4.977000      8.423000     -0.461000
H         -11.999000     10.492000      0.696000
C         -13.108000      8.619000      1.135000
H         -12.598000      9.628000     -0.655000
H         -12.791000      8.288000      2.132000
H         -13.257000      7.715000      0.531000
C         -14.439000      9.435000      1.237000
H         -14.341000     10.492000      1.514000
C         -15.410000      8.669000      2.219000
H         -15.026000      9.481000      0.312000
H         -15.130000      8.796000      3.272000
H         -15.273000      7.583000      2.144000
C         -16.885000      8.969000      2.056000
H         -17.092000     10.020000      2.295000
C         -17.790000      8.204000      3.053000
H         -17.271000      8.848000      1.036000
H         -17.557000      8.545000      4.070000
H         -17.779000      7.120000      2.886000
H         -18.838000      8.465000      2.863000
$end

--------------------------------------------------------------

             Standard Nuclear Orientation (Angstroms)
    I     Atom           X                Y                Z
 ----------------------------------------------------------------
    1      C      11.5842560607     3.7380034899    -0.6042516287
    2      C      10.3039888568     3.9684174484    -1.0303259114
    3      N      11.9845840461     2.4870321879    -0.3605360043
    4      C       9.3555531452     3.0005003598    -0.9503808641
    5      C      11.1275323625     1.4423550320    -0.4057582509
    6      C       9.7062119869     1.6445709171    -0.6678481704
    7      C       8.6719248251     0.5711438403    -0.7566252937
    8      C       7.3690731907     0.8653042768    -0.4663146729
    9      C       8.9163414877    -0.7816079607    -1.1674586663
   10      N       6.3004415286     0.0514314652    -0.6206435981
   11      N      10.1400526240    -1.2931150345    -1.5079312325
   12      C       7.8468064329    -1.6600341300    -1.3267923779
   13      C       6.5285008675    -1.2209315116    -1.0034221155
   14      S       9.8204069118    -2.8101547457    -1.9227795583
   15      N       8.2562158745    -2.8493698404    -1.8291602481
   16      C       5.3084609273    -2.0261108151    -1.1212687675
   17      S       5.2125479879    -3.7461354539    -1.5416637603
   18      C       3.9474009024    -1.5292095864    -0.9646329552
   19      C       3.4537689433    -3.7949006025    -1.2403877529
   20      S       3.2492260821     0.1164671079    -0.8076293310
   21      C       3.0009140321    -2.5300646217    -1.1145689504
   22      C       2.5822951509    -4.8962009334    -1.2787675706
   23      C       1.6611746551    -0.5461131483    -1.1264412967
   24      C       1.7399218249    -1.9379914806    -1.2125028514
   25      N       3.0714446046    -5.9403190989    -1.8866977215
   26      S       0.9966564818    -5.0764296315    -0.7167412123
   27      C       2.0916990309    -6.9775851967    -1.9935745344
   28      C       0.9590503604    -6.7325494903    -1.2729945654
   29      C      12.5855268218     4.7913699387    -0.4631630487
   30      H       9.9918198854     4.9446680942    -1.3908300168
   31      H       8.3274574552     3.2268363155    -1.2189181751
   32      H      11.4548721461     0.4503246577    -0.1000158715
   33      H       7.0354182249     1.8130409333    -0.0467487144
   34      H       0.7932347048     0.0922384503    -1.2218796501
   35      H       0.9226117155    -2.6406459397    -1.3321769762
   36      H       2.4171645212    -7.8676151261    -2.5147961181
   37      H       0.0943477134    -7.3784833971    -1.1951953342
   38      H      13.5816578902     4.4252715877    -0.7424995698
   39      C      12.7032295938     5.3320236250     0.9665997459
   40      H      12.3160447060     5.6180326684    -1.1324037533
   41      H      12.7688150162     4.4884100338     1.6652990096
   42      H      11.8164478721     5.9154430574     1.2454185832
   43      C      13.9223452849     6.3821412725     1.0423351945
   44      H      14.8926478798     5.8747155084     0.9663025158
   45      C      13.8749404270     7.3728871162     2.2153831273
   46      H      13.8149751630     6.9794094654     0.1288756374
   47      H      13.9156437908     6.6942041233     3.0764578229
   48      H      12.9106260657     7.8942000142     2.2079215633
   49      C      15.0136328827     8.3974296107     2.3196144485
   50      H      15.9797644527     7.8792444077     2.3607348193
   51      C      14.7620582979     9.4207991339     3.3670780743
   52      H      15.0141521386     8.9921635032     1.3981887448
   53      H      14.4857585834     9.0311474686     4.3547187212
   54      H      14.0475284155    10.2528847571     3.3446155988
   55      H      15.6418705036    10.0370599118     3.5879629682
   56      C     -11.0884204190     3.8263454250    -1.4151634297
   57      C      -9.8404000302     3.7931402774    -1.9888040203
   58      N     -11.3373855702     3.1060384041    -0.3103909875
   59      C      -8.9570069070     2.7599609889    -1.5815655792
   60      C     -10.4366036927     2.1759075864     0.0525231500
   61      C      -9.2102504937     1.9500352062    -0.4823763724
   62      C      -8.2027606838     0.9427038980    -0.0245227731
   63      C      -6.8231209573     1.1370193871    -0.2301406607
   64      C      -8.4925791505    -0.1958216573     0.8117701279
   65      N      -5.8076932971     0.3785139182     0.2143828154
   66      N      -9.7569870157    -0.5584494382     1.1520638878
   67      C      -7.4130520734    -1.0116836506     1.2378411287
   68      C      -6.0889785882    -0.8024427986     0.8341560142
   69      S      -9.5120407043    -1.7754934806     2.2152454825
   70      N      -7.8779363608    -1.9478825585     2.0731926740
   71      C      -4.8767903037    -1.4861556042     1.2876969301
   72      S      -3.2585592822    -0.7929448766     1.6659392440
   73      C      -4.8151938182    -2.9027819980     1.3644923294
   74      C      -2.6408060735    -2.3821222844     1.9501999340
   75      S      -5.9960634475    -4.1410589474     0.9762087791
   76      C      -3.5507139587    -3.3487382305     1.7766278939
   77      C      -1.2266953625    -2.6868191406     2.0758212809
   78      C      -4.6566012820    -5.3273963315     1.3068924924
   79      C      -3.5086379246    -4.7251001434     1.7853738733
   80      N      -0.4047894625    -1.8532480287     1.4469596959
   81      S      -0.4701436922    -3.9994516390     2.9406677959
   82      C       0.9520790374    -2.1685226022     1.7287394276
   83      C       1.0693683030    -3.1534428655     2.6338633435
   84      C     -12.1515439153     4.9430905632    -1.6288050172
   85      H      -9.6179455944     4.4874275321    -2.7933412985
   86      H      -8.0337473824     2.7359907064    -2.1541581706
   87      H     -10.8712411666     1.6074822231     0.8732203369
   88      H      -6.4890964255     1.9352218170    -0.8915879322
   89      H      -4.9237708387    -6.3630268101     1.1482011574
   90      H      -2.5978866612    -5.3033302218     1.8886604294
   91      H       1.6745891195    -1.5256528641     1.2441811948
   92      H       2.0115157018    -3.5284309435     3.0132223030
   93      H     -11.7537851167     5.8192488068    -1.1027663586
   94      C     -13.6228634085     4.6359254134    -1.2951801983
   95      H     -12.1497605997     5.2727773030    -2.6760019774
   96      H     -13.8423877979     4.2244560911    -0.3019224074
   97      H     -13.9177871387     3.8745366304    -2.0283514706
   98      C     -14.4313998553     5.9561372938    -1.5213005310
   99      H     -14.0013970793     6.8691009457    -1.0909785785
  100      C     -15.9083133401     5.7197766696    -1.0145646888
  101      H     -14.5829744635     6.2321798177    -2.5716031841
  102      H     -15.9859039673     5.7372111146     0.0795165398
  103      H     -16.2236272108     4.6825688172    -1.1835825395
  104      C     -16.9623159947     6.6333036221    -1.6034117923
  105      H     -16.7773485306     7.6739709426    -1.3078283603
  106      C     -18.3886843713     6.3692111637    -1.0612057174
  107      H     -16.9825356036     6.6686722363    -2.6999414218
  108      H     -18.4032774591     6.5985464550     0.0121308403
  109      H     -18.7768458413     5.3868636062    -1.3568236285
  110      H     -19.0916975123     7.0593775042    -1.5428362251
 ----------------------------------------------------------------

    9   -5663.4801104460      7.36E-06 Convergence criterion met
 Total energy in the final basis set = -5663.4801104460

                    Orbital Energies (a.u.)
 --------------------------------------------------------------

 Alpha MOs
 -- Occupied --
-88.992 -88.989 -88.930 -88.929 -88.929 -88.929 -88.916 -88.915
-14.386 -14.385 -14.385 -14.381 -14.350 -14.348 -14.339 -14.338
-14.324 -14.321 -10.268 -10.264 -10.263 -10.262 -10.261 -10.259
-10.258 -10.257 -10.249 -10.242 -10.239 -10.238 -10.237 -10.236
-10.235 -10.234 -10.233 -10.233 -10.233 -10.230 -10.229 -10.229
-10.228 -10.224 -10.224 -10.223 -10.221 -10.218 -10.215 -10.214
-10.213 -10.207 -10.206 -10.203 -10.201 -10.199 -10.198 -10.190
-10.186 -10.186 -10.182 -10.180 -10.180 -10.180 -10.180 -10.176
-10.174 -10.172 -10.170 -10.169  -8.048  -8.044  -7.991  -7.990
 -7.988  -7.987  -7.975  -7.974  -6.013  -6.010  -6.007  -6.006
 -6.004  -6.002  -5.955  -5.954  -5.952  -5.952  -5.951  -5.950
 -5.948  -5.948  -5.948  -5.946  -5.944  -5.944  -5.939  -5.939
 -5.936  -5.935  -5.931  -5.931  -1.054  -1.037  -0.972  -0.960
 -0.960  -0.957  -0.942  -0.938  -0.916  -0.913  -0.907  -0.905
 -0.847  -0.846  -0.835  -0.834  -0.812  -0.808  -0.808  -0.806
 -0.801  -0.800  -0.797  -0.796  -0.790  -0.781  -0.775  -0.768
 -0.753  -0.752  -0.748  -0.744  -0.728  -0.723  -0.714  -0.710
 -0.698  -0.696  -0.678  -0.677  -0.655  -0.652  -0.648  -0.645
 -0.637  -0.633  -0.626  -0.623  -0.611  -0.609  -0.605  -0.599
 -0.597  -0.597  -0.586  -0.582  -0.578  -0.576  -0.572  -0.572
 -0.548  -0.548  -0.544  -0.540  -0.523  -0.522  -0.519  -0.518
 -0.510  -0.509  -0.504  -0.498  -0.489  -0.483  -0.482  -0.479
 -0.475  -0.471  -0.471  -0.470  -0.465  -0.458  -0.452  -0.449
 -0.447  -0.447  -0.445  -0.440  -0.439  -0.437  -0.433  -0.432
 -0.430  -0.428  -0.424  -0.420  -0.416  -0.416  -0.415  -0.414
 -0.412  -0.410  -0.404  -0.402  -0.402  -0.400  -0.399  -0.397
 -0.395  -0.393  -0.391  -0.391  -0.388  -0.386  -0.385  -0.382
 -0.378  -0.374  -0.370  -0.367  -0.366  -0.362  -0.361  -0.355
 -0.354  -0.353  -0.351  -0.349  -0.346  -0.345  -0.343  -0.342
 -0.339  -0.338  -0.335  -0.332  -0.329  -0.328  -0.326  -0.319
 -0.315  -0.314  -0.309  -0.309  -0.305  -0.303  -0.302  -0.299
 -0.299  -0.296  -0.289  -0.287  -0.285  -0.283  -0.281  -0.279
 -0.277  -0.275  -0.272  -0.270  -0.261  -0.256  -0.248  -0.246
 -0.246  -0.243  -0.237  -0.231  -0.199  -0.194

          Ground-State Mulliken Net Atomic Charges

     Atom                 Charge (a.u.)
  ----------------------------------------
      1 C                     0.290728
      2 C                    -0.116633
      3 N                    -0.496832
      4 C                    -0.068468
      5 C                     0.093319
      6 C                     0.007365
      7 C                     0.077024
      8 C                     0.026903
      9 C                     0.197688
     10 N                    -0.530438
     11 N                    -0.549147
     12 C                     0.205655
     13 C                     0.324140
     14 S                     0.618924
     15 N                    -0.540783
     16 C                    -0.248733
     17 S                     0.359299
     18 C                    -0.138991
     19 C                    -0.190666
     20 S                     0.278116
     21 C                     0.177100
     22 C                     0.045261
     23 C                    -0.313641
     24 C                    -0.093691
     25 N                    -0.438389
     26 S                     0.289886
     27 C                     0.105292
     28 C                    -0.308423
     29 C                    -0.220811
     30 H                     0.084884
     31 H                     0.096744
     32 H                     0.118773
     33 H                     0.112813
     34 H                     0.154372
     35 H                     0.097793
     36 H                     0.119010
     37 H                     0.137695
     38 H                     0.120757
     39 C                    -0.182769
     40 H                     0.093899
     41 H                     0.112257
     42 H                     0.092350
     43 C                    -0.186576
     44 H                     0.094005
     45 C                    -0.172670
     46 H                     0.088881
     47 H                     0.094210
     48 H                     0.090294
     49 C                    -0.165730
     50 H                     0.100226
     51 C                    -0.330449
     52 H                     0.096666
     53 H                     0.097981
     54 H                     0.105360
     55 H                     0.096365
     56 C                     0.246112
     57 C                    -0.113233
     58 N                    -0.465949
     59 C                    -0.116465
     60 C                     0.048166
     61 C                     0.100737
     62 C                     0.059027
     63 C                     0.051756
     64 C                     0.192838
     65 N                    -0.502157
     66 N                    -0.546474
     67 C                     0.248495
     68 C                     0.253121
     69 S                     0.603939
     70 N                    -0.552532
     71 C                    -0.218719
     72 S                     0.359461
     73 C                    -0.127117
     74 C                    -0.207552
     75 S                     0.261307
     76 C                     0.176667
     77 C                     0.041594
     78 C                    -0.303309
     79 C                    -0.080054
     80 N                    -0.438230
     81 S                     0.258567
     82 C                     0.136277
     83 C                    -0.311327
     84 C                    -0.231301
     85 H                     0.089879
     86 H                     0.097060
     87 H                     0.117125
     88 H                     0.104108
     89 H                     0.132540
     90 H                     0.106666
     91 H                     0.131389
     92 H                     0.131585
     93 H                     0.118904
     94 C                    -0.166205
     95 H                     0.093085
     96 H                     0.123003
     97 H                     0.101026
     98 C                    -0.184733
     99 H                     0.094567
    100 C                    -0.171914
    101 H                     0.092495
    102 H                     0.089087
    103 H                     0.090490
    104 C                    -0.183703
    105 H                     0.090289
    106 C                    -0.320730
    107 H                     0.088676
    108 H                     0.104958
    109 H                     0.102111
    110 H                     0.096397
  ----------------------------------------
  Sum of atomic charges =     0.000000

                    Cartesian Multipole Moments
 -----------------------------------------------------------------
    Charge (ESU x 10^10)
                 0.0000
    Dipole Moment (Debye)
         X      -1.0464      Y      -1.2903      Z      -0.6731
       Tot       1.7924
    Quadrupole Moments (Debye-Ang)
        XX    -475.2918     XY      17.5693     YY    -394.8639
        XZ      12.8885     YZ     -11.2730     ZZ    -446.0392

 Total job time:  86.54s(wall), 937.93s(cpu)
        *  Thank you very much for using Q-Chem.  Have a nice day.  *
