 Q-Chem 4.4, Q-Chem, Inc., Pleasanton, CA (2016)
 Q-Chem 4.4.2 for Intel X86 Linux

User input:
--------------------------------------------------------------
$comment
SP
$end

$rem
MEM_STATIC 5000
MEM_TOTAL 20000
JOBTYPE SP
EXCHANGE B3LYP
BASIS 6-31g(d,p)
$end

$molecule
0 1
C           1.335000      6.992000      3.809000
C           0.156000      6.218000      3.856000
N           2.537000      6.480000      3.574000
C           0.285000      4.787000      3.812000
C           2.624000      5.136000      3.367000
C           1.536000      4.207000      3.488000
C           1.826000      2.724000      3.330000
C           2.377000      2.331000      2.117000
C           1.695000      1.824000      4.397000
N           2.811000      1.096000      1.906000
N           1.079000      2.029000      5.521000
C           2.294000      0.563000      4.228000
C           2.918000      0.276000      2.996000
S           1.248000      0.603000      6.345000
N           2.228000     -0.231000      5.303000
C           3.888000     -0.823000      2.790000
S           4.171000     -1.621000      1.200000
C           4.913000     -1.198000      3.678000
C           5.653000     -2.353000      1.756000
S           5.221000     -0.567000      5.163000
C           5.900000     -1.938000      3.037000
C           6.403000     -3.389000      1.062000
C           6.874000     -1.282000      5.042000
C           6.982000     -2.083000      3.976000
N           5.649000     -4.211000      0.366000
S           8.128000     -3.743000      1.196000
C           6.443000     -5.280000     -0.041000
C           7.735000     -5.237000      0.326000
C           1.446000      8.461000      4.208000
H          -0.810000      6.672000      4.055000
H          -0.627000      4.198000      3.845000
H           3.595000      4.662000      3.237000
H           2.335000      3.109000      1.357000
H           7.600000     -1.143000      5.832000
H           7.880000     -2.661000      3.789000
H           5.857000     -6.078000     -0.477000
H           8.559000     -5.937000      0.270000
H           2.071000      8.876000      3.407000
C           1.988000      8.796000      5.631000
H           0.471000      8.961000      4.159000
H           2.970000      8.374000      5.877000
H           1.298000      8.343000      6.353000
C           2.137000     10.328000      5.836000
H           2.821000     10.743000      5.086000
C           2.768000     10.580000      7.266000
H           1.185000     10.872000      5.832000
H           3.140000     11.609000      7.187000
H           3.611000      9.921000      7.510000
C           1.719000     10.368000      8.334000
H           0.980000     11.178000      8.303000
C           2.379000     10.538000      9.692000
H           1.230000      9.393000      8.216000
H           1.627000     10.410000     10.481000
H           2.846000     11.529000      9.743000
H           3.163000      9.798000      9.895000
C         -10.666000      8.941000      0.122000
C          -9.790000      9.360000     -0.850000
N         -10.202000      8.335000      1.226000
C          -8.464000      8.857000     -0.801000
C          -8.921000      7.926000      1.230000
C          -7.966000      8.168000      0.297000
C          -6.531000      7.747000      0.351000
C          -5.526000      8.474000     -0.316000
C          -6.004000      6.713000      1.207000
N          -4.198000      8.278000     -0.271000
N          -6.795000      5.901000      1.956000
C          -4.603000      6.490000      1.211000
C          -3.715000      7.181000      0.378000
S          -5.712000      5.051000      2.837000
N          -4.312000      5.564000      2.132000
C          -2.252000      7.136000      0.365000
S          -1.078000      8.488000      0.175000
C          -1.553000      5.900000      0.380000
C           0.230000      7.358000      0.187000
S          -2.124000      4.241000      0.395000
C          -0.164000      6.085000      0.316000
C           1.590000      7.695000     -0.194000
C          -0.373000      3.782000      0.210000
C           0.479000      4.868000      0.275000
N           1.710000      8.706000     -1.048000
S           3.080000      6.948000      0.321000
C           3.077000      9.030000     -1.263000
C           3.900000      8.314000     -0.480000
C         -12.117000      9.469000      0.319000
H         -10.168000      9.971000     -1.664000
H          -7.864000      9.148000     -1.659000
H          -8.771000      7.341000      2.136000
H          -5.810000      9.244000     -1.032000
H          -0.193000      2.719000      0.128000
H           1.530000      4.745000      0.041000
H           3.244000      9.847000     -1.952000
H           4.977000      8.423000     -0.461000
H         -11.999000     10.492000      0.696000
C         -13.108000      8.619000      1.135000
H         -12.598000      9.628000     -0.655000
H         -12.791000      8.288000      2.132000
H         -13.257000      7.715000      0.531000
C         -14.439000      9.435000      1.237000
H         -14.341000     10.492000      1.514000
C         -15.410000      8.669000      2.219000
H         -15.026000      9.481000      0.312000
H         -15.130000      8.796000      3.272000
H         -15.273000      7.583000      2.144000
C         -16.885000      8.969000      2.056000
H         -17.092000     10.020000      2.295000
C         -17.790000      8.204000      3.053000
H         -17.271000      8.848000      1.036000
H         -17.557000      8.545000      4.070000
H         -17.779000      7.120000      2.886000
H         -18.838000      8.465000      2.863000
$end

--------------------------------------------------------------

             Standard Nuclear Orientation (Angstroms)
    I     Atom           X                Y                Z
 ----------------------------------------------------------------
    1      C       0.7902224600     3.4424827583     0.5124625134
    2      C       0.1738842274     2.2582607170     0.9697057092
    3      N       2.0636845196     3.5086469532     0.1435591628
    4      C       1.0065893480     1.1101733565     1.2038757213
    5      C       2.8036949336     2.3665547932     0.2125815170
    6      C       2.3497441953     1.1167238127     0.7541322971
    7      C       3.3382708490    -0.0324775126     0.8566231198
    8      C       3.9172583888    -0.4535663948    -0.3337031305
    9      C       3.7640434344    -0.5376065329     2.0932363893
   10      N       4.8996410115    -1.3435474302    -0.3646892427
   11      N       3.2176945452    -0.3296824465     3.2521701517
   12      C       4.9045013434    -1.3600619204     2.0730895923
   13      C       5.4909759519    -1.6639475701     0.8267870426
   14      S       4.1489670727    -1.2042575113     4.3051957618
   15      N       5.3329689091    -1.7439306269     3.2811779009
   16      C       6.8650099017    -2.1883185342     0.6588501592
   17      S       7.3901841523    -3.1819324278    -0.7489553803
   18      C       8.0034318608    -1.7661443596     1.3698764663
   19      C       9.0763976137    -2.9403116023    -0.3753412219
   20      S       8.0622526970    -0.6661487191     2.5884000402
   21      C       9.1766390967    -2.1082133101     0.7071369891
   22      C      10.1920778087    -3.6557843168    -0.9759979435
   23      C       9.8345988037    -0.5258828583     2.2763267052
   24      C      10.2513425640    -1.4524929756     1.4060742540
   25      N       9.9078231183    -4.8960083254    -1.3071469729
   26      S      11.8628739000    -3.1065978350    -1.1364087581
   27      C      11.1000810893    -5.5356160479    -1.6361893591
   28      C      12.2158027294    -4.7898228635    -1.5671984341
   29      C       0.1716197422     4.8370067633     0.5584676989
   30      H      -0.8703222289     2.2435476555     1.2668410362
   31      H       0.5246453110     0.2012843346     1.5523074810
   32      H       3.8676385535     2.3868178188    -0.0155201785
   33      H       3.4284004847    -0.0425892637    -1.2150451455
   34      H      10.4482353422     0.1577131187     2.8478542538
   35      H      11.3009401694    -1.5697073532     1.1609974161
   36      H      10.9679004162    -6.6021861788    -1.7596900703
   37      H      13.2737785968    -5.0057363364    -1.6458141854
   38      H       0.4362782435     5.2446003206    -0.4255416353
   39      C       0.5766145384     5.7811492528     1.7312814840
   40      H      -0.9227038450     4.7849116029     0.6110793013
   41      H       1.6525636950     5.9585739642     1.8486607165
   42      H       0.2693332051     5.2886115488     2.6616458171
   43      C      -0.0562154775     7.1900564754     1.5707928268
   44      H       0.2630219361     7.6399535706     0.6230264645
   45      C       0.4678019527     8.1084686069     2.7491348356
   46      H      -1.1496329559     7.1984700051     1.6521772880
   47      H       0.2595495317     9.1193181751     2.3772745398
   48      H       1.5443824029     8.0223197138     2.9441192000
   49      C      -0.2432558868     7.7494085611     4.0342191256
   50      H      -1.2906990761     8.0718411350     3.9885901837
   51      C       0.3416863137     8.5920698395     5.1551243812
   52      H      -0.1779802239     6.6721076477     4.2312770607
   53      H      -0.1784071774     8.3614543825     6.0935956229
   54      H       0.2442588580     9.6531101357     4.8953699188
   55      H       1.4055134752     8.3988250645     5.3405784928
   56      C     -10.7851076010    -1.6030263370    -0.8915114712
   57      C     -10.3201236379    -1.1241479114    -2.0924221121
   58      N      -9.9946516304    -1.5737105227     0.1927707530
   59      C      -8.9229163564    -0.9104990352    -2.2183267202
   60      C      -8.6871874534    -1.3155468597     0.0134750506
   61      C      -8.0616597249    -0.9363748434    -1.1293379888
   62      C      -6.6120455923    -0.6018192393    -1.2908106313
   63      C      -6.1689626700     0.2827754081    -2.2931143946
   64      C      -5.5696320249    -0.9722847485    -0.3657429252
   65      N      -4.9259551335     0.7527191901    -2.4883324925
   66      N      -5.7795872429    -1.8041982763     0.6877582322
   67      C      -4.2534156639    -0.5026190078    -0.6097400218
   68      C      -3.9053069185     0.2492757906    -1.7381851971
   69      S      -4.3511422394    -1.7538238751     1.4805742839
   70      N      -3.4633708224    -0.8743840897     0.4041721401
   71      C      -2.6273887772     0.8917406717    -2.0491950046
   72      S      -2.3193128807     2.5152841560    -2.7643703655
   73      C      -1.3995926571     0.1900456601    -1.9201105432
   74      C      -0.6225979481     2.1859433832    -2.7888875579
   75      S      -1.0477923137    -1.4586975040    -1.4338703791
   76      C      -0.3057124280     0.9753733155    -2.3129572286
   77      C       0.3449583514     2.9931854997    -3.5103617242
   78      C       0.6740139039    -1.0772040012    -1.8819251260
   79      C       0.8600654383     0.2472087508    -2.2295465995
   80      N      -0.1301393417     3.6474240617    -4.5649190180
   81      S       2.0424902119     3.2141733813    -3.1743796728
   82      C       0.8627835227     4.4950089438    -5.1266966013
   83      C       1.9925387167     4.5075235266    -4.4010447655
   84      C     -12.2833896781    -1.7831790187    -0.5098181014
   85      H     -11.0169716433    -1.0253502612    -2.9191281552
   86      H      -8.6212544125    -0.6346583556    -3.2251817202
   87      H      -8.1921995254    -1.4726239005     0.9704885063
   88      H      -6.8581589395     0.5866604148    -3.0798001037
   89      H       1.3610558435    -1.9049422658    -1.7727658910
   90      H       1.8067855227     0.5681135567    -2.6481480657
   91      H       0.5390624318     5.0567625680    -5.9925698720
   92      H       2.8634463937     5.1074841791    -4.6328594191
   93      H     -12.6716100557    -0.7643928563    -0.3917431514
   94      C     -12.6406476606    -2.7209788026     0.6578013997
   95      H     -12.8518720515    -2.1563954754    -1.3717086208
   96      H     -12.1240224242    -2.5614913053     1.6126422782
   97      H     -12.3568196990    -3.7203707753     0.3044030788
   98      C     -14.1891848596    -2.6318344888     0.8625129881
   99      H     -14.6195015814    -1.6228630243     0.8821624865
  100      C     -14.5590811288    -3.4421664507     2.1665298061
  101      H     -14.7876321714    -3.1348649265     0.0936624215
  102      H     -14.3020632482    -2.9011190915     3.0855224960
  103      H     -13.8967619156    -4.3071997484     2.2963013507
  104      C     -15.9900905451    -3.9279945884     2.2580561470
  105      H     -16.6821568512    -3.0775686757     2.3069539471
  106      C     -16.3026734635    -4.7023107313     3.5622744684
  107      H     -16.3386215336    -4.5040450514     1.3916099489
  108      H     -16.1972481315    -4.0148181291     4.4114496101
  109      H     -15.7566253848    -5.6511317275     3.6303642097
  110      H     -17.3493760249    -5.0289384045     3.5463649991
 ----------------------------------------------------------------

    9   -5663.4699891764      7.96E-06 Convergence criterion met
 Total energy in the final basis set = -5663.4699891764

                    Orbital Energies (a.u.)
 --------------------------------------------------------------

 Alpha MOs
 -- Occupied --
-88.991 -88.988 -88.930 -88.927 -88.924 -88.922 -88.913 -88.909
-14.397 -14.386 -14.385 -14.385 -14.352 -14.348 -14.343 -14.335
-14.327 -14.320 -10.272 -10.267 -10.263 -10.261 -10.260 -10.259
-10.258 -10.254 -10.241 -10.240 -10.239 -10.236 -10.235 -10.234
-10.232 -10.232 -10.231 -10.229 -10.228 -10.228 -10.226 -10.226
-10.225 -10.225 -10.223 -10.223 -10.218 -10.214 -10.214 -10.212
-10.211 -10.211 -10.209 -10.204 -10.203 -10.200 -10.200 -10.197
-10.185 -10.179 -10.179 -10.179 -10.179 -10.177 -10.173 -10.173
-10.172 -10.171 -10.170 -10.167  -8.046  -8.044  -7.991  -7.985
 -7.984  -7.981  -7.973  -7.972  -6.011  -6.009  -6.006  -6.004
 -6.003  -6.001  -5.955  -5.952  -5.949  -5.948  -5.948  -5.946
 -5.945  -5.944  -5.942  -5.941  -5.940  -5.937  -5.937  -5.936
 -5.934  -5.933  -5.929  -5.928  -1.047  -1.036  -0.971  -0.962
 -0.957  -0.954  -0.940  -0.935  -0.924  -0.918  -0.914  -0.904
 -0.851  -0.844  -0.834  -0.830  -0.812  -0.807  -0.807  -0.802
 -0.799  -0.795  -0.793  -0.792  -0.780  -0.777  -0.767  -0.766
 -0.753  -0.751  -0.746  -0.742  -0.725  -0.725  -0.710  -0.709
 -0.695  -0.691  -0.680  -0.675  -0.651  -0.651  -0.647  -0.644
 -0.633  -0.632  -0.625  -0.624  -0.608  -0.607  -0.600  -0.597
 -0.595  -0.594  -0.583  -0.581  -0.577  -0.574  -0.571  -0.562
 -0.553  -0.546  -0.544  -0.538  -0.528  -0.526  -0.521  -0.515
 -0.510  -0.508  -0.502  -0.500  -0.484  -0.482  -0.480  -0.473
 -0.471  -0.470  -0.464  -0.463  -0.462  -0.457  -0.449  -0.449
 -0.448  -0.445  -0.444  -0.440  -0.438  -0.437  -0.434  -0.429
 -0.426  -0.425  -0.416  -0.416  -0.415  -0.413  -0.413  -0.410
 -0.410  -0.408  -0.404  -0.403  -0.401  -0.400  -0.396  -0.393
 -0.392  -0.392  -0.390  -0.389  -0.386  -0.385  -0.381  -0.380
 -0.378  -0.372  -0.369  -0.365  -0.365  -0.361  -0.360  -0.358
 -0.354  -0.352  -0.350  -0.348  -0.344  -0.344  -0.343  -0.341
 -0.340  -0.336  -0.335  -0.331  -0.327  -0.325  -0.324  -0.323
 -0.319  -0.314  -0.311  -0.308  -0.303  -0.301  -0.301  -0.298
 -0.295  -0.294  -0.294  -0.288  -0.286  -0.283  -0.278  -0.276
 -0.273  -0.271  -0.269  -0.262  -0.260  -0.254  -0.248  -0.245
 -0.245  -0.242  -0.240  -0.234  -0.197  -0.196

          Ground-State Mulliken Net Atomic Charges

     Atom                 Charge (a.u.)
  ----------------------------------------
      1 C                     0.253450
      2 C                    -0.117529
      3 N                    -0.462523
      4 C                    -0.073433
      5 C                     0.068505
      6 C                     0.018753
      7 C                    -0.017086
      8 C                     0.089767
      9 C                     0.302605
     10 N                    -0.499530
     11 N                    -0.557273
     12 C                     0.215577
     13 C                     0.240451
     14 S                     0.593121
     15 N                    -0.547693
     16 C                    -0.211882
     17 S                     0.342338
     18 C                    -0.099634
     19 C                    -0.212952
     20 S                     0.257228
     21 C                     0.135987
     22 C                     0.046945
     23 C                    -0.300129
     24 C                    -0.069145
     25 N                    -0.412512
     26 S                     0.258567
     27 C                     0.128330
     28 C                    -0.307832
     29 C                    -0.213728
     30 H                     0.100606
     31 H                     0.110800
     32 H                     0.098886
     33 H                     0.109429
     34 H                     0.127906
     35 H                     0.108344
     36 H                     0.116770
     37 H                     0.138586
     38 H                     0.118071
     39 C                    -0.164703
     40 H                     0.088707
     41 H                     0.108196
     42 H                     0.092697
     43 C                    -0.181111
     44 H                     0.092174
     45 C                    -0.175262
     46 H                     0.092204
     47 H                     0.085941
     48 H                     0.090201
     49 C                    -0.167679
     50 H                     0.094233
     51 C                    -0.315944
     52 H                     0.097639
     53 H                     0.092957
     54 H                     0.102336
     55 H                     0.097996
     56 C                     0.246329
     57 C                    -0.113606
     58 N                    -0.466113
     59 C                    -0.116854
     60 C                     0.047506
     61 C                     0.101621
     62 C                     0.059842
     63 C                     0.051054
     64 C                     0.192079
     65 N                    -0.501127
     66 N                    -0.544715
     67 C                     0.247717
     68 C                     0.253323
     69 S                     0.601233
     70 N                    -0.558386
     71 C                    -0.223990
     72 S                     0.358913
     73 C                    -0.127513
     74 C                    -0.201768
     75 S                     0.254514
     76 C                     0.179248
     77 C                     0.030496
     78 C                    -0.308911
     79 C                    -0.075821
     80 N                    -0.429468
     81 S                     0.291360
     82 C                     0.121282
     83 C                    -0.309875
     84 C                    -0.231132
     85 H                     0.089886
     86 H                     0.097626
     87 H                     0.116392
     88 H                     0.104853
     89 H                     0.139169
     90 H                     0.111667
     91 H                     0.120439
     92 H                     0.127042
     93 H                     0.118665
     94 C                    -0.166520
     95 H                     0.093054
     96 H                     0.122837
     97 H                     0.101072
     98 C                    -0.184506
     99 H                     0.094396
    100 C                    -0.171831
    101 H                     0.092566
    102 H                     0.088940
    103 H                     0.090433
    104 C                    -0.183406
    105 H                     0.090103
    106 C                    -0.320868
    107 H                     0.088716
    108 H                     0.104831
    109 H                     0.102137
    110 H                     0.096348
  ----------------------------------------
  Sum of atomic charges =     0.000000

                    Cartesian Multipole Moments
 -----------------------------------------------------------------
    Charge (ESU x 10^10)
                 0.0000
    Dipole Moment (Debye)
         X       3.6644      Y       0.2418      Z       0.8796
       Tot       3.7762
    Quadrupole Moments (Debye-Ang)
        XX    -375.8547     XY      -3.8091     YY    -442.3580
        XZ      10.0801     YZ      -1.4792     ZZ    -440.5793

 Total job time:  93.42s(wall), 995.65s(cpu)
        *  Thank you very much for using Q-Chem.  Have a nice day.  *
