 Q-Chem 4.4, Q-Chem, Inc., Pleasanton, CA (2016)
 Q-Chem 4.4.2 for Intel X86 Linux

User input:
--------------------------------------------------------------
$comment
SP
$end

$rem
MEM_STATIC 5000
MEM_TOTAL 20000
JOBTYPE SP
EXCHANGE B3LYP
BASIS 6-31g(d,p)
$end

$molecule
0 1
C          15.500000     -2.874000     11.798000
C          16.911000     -3.201000     11.805000
N          14.865000     -2.380000     10.739000
C          17.543000     -2.993000     10.618000
C          15.477000     -2.216000      9.583000
C          16.846000     -2.517000      9.474000
C          17.666000     -2.277000      8.303000
C          19.063000     -1.924000      8.437000
C          17.265000     -2.429000      7.009000
N          19.859000     -1.709000      7.375000
N          16.073000     -2.963000      6.583000
C          18.089000     -2.281000      5.886000
C          19.455000     -1.901000      6.105000
S          15.964000     -2.868000      4.965000
N          17.564000     -2.499000      4.666000
C          20.367000     -1.602000      4.979000
S          20.107000     -2.113000      3.410000
C          21.564000     -0.991000      5.193000
C          21.556000     -1.175000      2.931000
S          22.236000     -0.277000      6.673000
C          22.170000     -0.677000      4.030000
C          22.045000     -0.985000      1.573000
C          23.532000      0.371000      5.665000
C          23.333000      0.077000      4.320000
N          21.432000     -1.669000      0.612000
S          22.896000      0.467000      1.055000
C          21.758000     -1.135000     -0.623000
C          22.651000     -0.072000     -0.560000
C          14.693000     -2.965000     13.078000
H          17.469000     -3.461000     12.700000
H          18.572000     -3.322000     10.510000
H          14.974000     -1.774000      8.723000
H          19.674000     -1.895000      9.338000
H          24.327000      0.950000      6.118000
H          24.015000      0.451000      3.565000
H          21.314000     -1.573000     -1.507000
H          23.130000      0.415000     -1.399000
H          15.315000     -2.554000     13.883000
C          14.019000     -4.390000     13.342000
H          13.894000     -2.213000     13.085000
H          13.730000     -4.576000     14.384000
H          14.773000     -5.166000     13.162000
C          12.780000     -4.700000     12.441000
H          12.008000     -3.925000     12.517000
C          12.077000     -6.066000     12.925000
H          13.017000     -4.901000     11.389000
H          11.104000     -6.243000     12.452000
H          11.732000     -5.996000     13.964000
C          13.035000     -7.262000     12.830000
H          13.652000     -7.238000     11.923000
C          12.313000     -8.631000     12.974000
H          13.787000     -7.260000     13.629000
H          11.876000     -8.671000     11.969000
H          11.508000     -8.690000     13.717000
H          12.981000     -9.483000     13.144000
C          11.925000     -1.707000      3.819000
C          11.347000     -2.545000      2.852000
N          13.176000     -1.137000      3.686000
C          12.105000     -2.838000      1.703000
C          13.872000     -1.459000      2.607000
C          13.421000     -2.335000      1.589000
C          14.255000     -2.641000      0.394000
C          13.685000     -2.843000     -0.813000
C          15.646000     -2.831000      0.505000
N          14.379000     -3.263000     -1.846000
N          16.409000     -2.707000      1.582000
C          16.422000     -3.297000     -0.613000
C          15.639000     -3.571000     -1.802000
S          17.949000     -3.190000      1.152000
N          17.694000     -3.598000     -0.366000
C          16.180000     -3.990000     -3.062000
S          15.350000     -4.988000     -4.255000
C          17.236000     -3.331000     -3.628000
C          16.488000     -4.454000     -5.527000
S          18.067000     -1.903000     -3.065000
C          17.412000     -3.600000     -4.976000
C          16.231000     -4.466000     -6.964000
C          18.873000     -1.788000     -4.713000
C          18.420000     -2.765000     -5.595000
N          17.259000     -4.383000     -7.788000
S          14.698000     -4.739000     -7.661000
C          16.796000     -4.255000     -9.084000
C          15.491000     -4.545000     -9.190000
C          11.209000     -1.390000      5.065000
H          10.317000     -2.873000      2.961000
H          11.698000     -3.536000      0.978000
H          14.826000     -0.956000      2.454000
H          12.619000     -2.784000     -1.028000
H          19.780000     -1.232000     -4.911000
H          18.857000     -2.909000     -6.577000
H          17.530000     -4.074000     -9.859000
H          14.827000     -4.652000    -10.038000
H          11.532000     -0.403000      5.419000
C          11.315000     -2.599000      6.154000
H          10.148000     -1.198000      4.859000
H          12.350000     -2.931000      6.302000
H          10.818000     -3.456000      5.682000
C          10.687000     -2.214000      7.498000
H           9.747000     -1.680000      7.315000
C          11.713000     -1.330000      8.403000
H          10.609000     -3.179000      8.014000
H          11.470000     -0.285000      8.172000
H          12.779000     -1.480000      8.195000
C          11.436000     -1.352000      9.920000
H          10.408000     -1.660000     10.152000
C          11.790000     -0.039000     10.582000
H          12.199000     -2.039000     10.307000
H          11.123000      0.744000     10.201000
H          12.816000      0.272000     10.349000
H          11.765000     -0.150000     11.673000
$end

--------------------------------------------------------------

             Standard Nuclear Orientation (Angstroms)
    I     Atom           X                Y                Z
 ----------------------------------------------------------------
    1      C       8.7118007512     0.2217595054    -0.3381033972
    2      C       8.4768332089     1.4393483819    -1.0865461683
    3      N       7.7777829570    -0.3878292108     0.3862959108
    4      C       7.1995329807     1.9037525851    -1.0195397260
    5      C       6.5343805719     0.0490256704     0.4160334505
    6      C       6.1923469323     1.2167529248    -0.2882882435
    7      C       4.8986992476     1.8696385749    -0.2501176266
    8      C       4.7922814294     3.3089657040    -0.3558846507
    9      C       3.6921411649     1.2372748840    -0.1983995891
   10      N       3.6100947270     3.9491750915    -0.3400246099
   11      N       3.4755220392    -0.1146497812    -0.3118537823
   12      C       2.4449627101     1.8726816989    -0.2514380781
   13      C       2.4276356378     3.3052868697    -0.3266657135
   14      S       1.9001625913    -0.4485681834    -0.0983798712
   15      N       1.3324259733     1.1155417323    -0.2279842856
   16      C       1.1626758697     4.0700820375    -0.2635298549
   17      S      -0.3394905186     3.4119345134    -0.5810514734
   18      C       1.1696810883     5.4166269467    -0.0668226249
   19      C      -1.0578838281     4.9849933781    -0.1138439597
   20      S       2.5139878808     6.5096148473     0.3204714450
   21      C      -0.0793651928     5.8940035565     0.1075217471
   22      C      -2.4792284342     5.2823178775    -0.0101007543
   23      C       1.3001273717     7.7625807863     0.5891776417
   24      C       0.0085518197     7.2661163448     0.4462872932
   25      N      -3.3222333142     4.3379727444    -0.4159345156
   26      S      -3.1329746434     6.4518084462     1.1325876125
   27      C      -4.5939882194     4.6111754318     0.0580451811
   28      C      -4.6830711775     5.7914187204     0.7863837056
   29      C      10.1108428521    -0.3543735886    -0.2449269085
   30      H       9.2627938299     2.0241169006    -1.5559081627
   31      H       6.9166038813     2.7448681414    -1.6450169403
   32      H       5.7737703850    -0.4212947001     1.0391256530
   33      H       5.5755236998     4.0353338060    -0.5677429198
   34      H       1.6113286310     8.7618018316     0.8670014687
   35      H      -0.8514190536     7.8995177080     0.6314299683
   36      H      -5.3896663696     3.9148511262    -0.1710066531
   37      H      -5.5909072609     6.2569938065     1.1463899343
   38      H      10.7981954845     0.4871108474    -0.0923480678
   39      C      10.4840958593    -1.3909525290    -1.4028488803
   40      H      10.2555550466    -0.8634652847     0.7162380230
   41      H      11.5598920197    -1.5511409676    -1.5473593828
   42      H      10.1765954910    -0.9595103344    -2.3632618937
   43      C       9.8078570497    -2.7931387192    -1.2628597361
   44      H      10.0159681282    -3.2585642405    -0.2920591061
   45      C      10.4029169496    -3.8026321257    -2.3679605359
   46      H       8.7305191378    -2.8051425476    -1.4689493565
   47      H      10.1030669196    -4.8448749827    -2.2079393294
   48      H      11.4857235064    -3.9350076072    -2.2519747931
   49      C      10.1436323443    -3.2990039284    -3.7949626845
   50      H       9.1444926648    -2.8612798636    -3.9134175033
   51      C      10.4069499065    -4.3822497486    -4.8782093575
   52      H      10.8022174903    -2.4657994506    -4.0705437136
   53      H       9.4914590643    -4.9662036373    -4.7250154484
   54      H      11.2766142005    -5.0333588458    -4.7255792188
   55      H      10.4588868165    -3.9985202873    -5.9034323859
   56      C       1.4637345374    -4.0453122098     2.3198262743
   57      C       0.6085983076    -5.0064246163     1.7573123008
   58      N       1.1195555865    -2.7173610031     2.4800649789
   59      C      -0.6535727052    -4.5759079187     1.3076527546
   60      C      -0.0630851700    -2.3426299757     2.0182441281
   61      C      -0.9902520469    -3.2052083585     1.3830897249
   62      C      -2.3107654214    -2.7151632002     0.9000605635
   63      C      -3.4027717746    -3.5072387419     0.9519398541
   64      C      -2.4396378712    -1.4562723454     0.2820899271
   65      N      -4.5398964998    -3.1578118349     0.3951874891
   66      N      -1.5088482111    -0.5293356962     0.1035036536
   67      C      -3.6746062720    -1.0584178846    -0.3390548844
   68      C      -4.7125501911    -2.0694538782    -0.2904273160
   69      S      -2.1966766551     0.6889893279    -0.8088368352
   70      N      -3.6492946044     0.0762292766    -1.0329778910
   71      C      -6.0471544617    -1.8995364563    -0.7862110499
   72      S      -7.0820928459    -3.1833081514    -1.4098982916
   73      C      -6.7844587179    -0.7959890510    -0.4570628185
   74      C      -8.5292058382    -2.1567541102    -1.1857671068
   75      S      -6.3697550769     0.5222285120     0.6092567147
   76      C      -8.1431010788    -0.9343806584    -0.6923917335
   77      C      -9.9010776394    -2.6334904946    -1.0379422749
   78      C      -8.1311651290     1.0454170681     0.5595237970
   79      C      -8.9241472080     0.1711584674    -0.1783876621
   80      N     -10.8886588014    -1.7793929596    -1.2324926521
   81      S     -10.3259751130    -4.2659280122    -0.7829189661
   82      C     -12.0861586027    -2.3818301814    -0.8956950573
   83      C     -11.9677962275    -3.7107393353    -0.7602262097
   84      C       2.8143272409    -4.4132877480     2.7738685107
   85      H       0.8916915039    -6.0553375730     1.7595149260
   86      H      -1.2993167053    -5.2938201202     0.8115733686
   87      H      -0.3762646437    -1.3167676516     2.2081364905
   88      H      -3.4321597036    -4.5203205236     1.3505168897
   89      H      -8.4805612274     2.0367433608     0.8167854301
   90      H      -9.9666436033     0.3754770344    -0.3962963333
   91      H     -12.9750214274    -1.7638539865    -0.9087450141
   92      H     -12.6898712147    -4.5026688867    -0.6088845484
   93      H       3.1093459911    -3.7429202008     3.5908050375
   94      C       3.8673155390    -4.5188366379     1.5333391576
   95      H       2.7931521860    -5.3783278685     3.2966210169
   96      H       3.8355817963    -3.6316141721     0.8889927711
   97      H       3.4859976119    -5.3300582815     0.9002845917
   98      C       5.2995127245    -4.7672276563     2.0191972887
   99      H       5.2808164486    -5.5076255269     2.8277184341
  100      C       6.0169959570    -3.3827102668     2.4898207148
  101      H       5.8197918658    -5.0607156282     1.0990128368
  102      H       5.8325477723    -3.3180608222     3.5697440067
  103      H       5.6294819569    -2.4667783857     2.0282779877
  104      C       7.5589849933    -3.4031065660     2.4709579750
  105      H       7.9629531072    -4.4239358556     2.4847175003
  106      C       8.1526528428    -2.5511659976     3.5706328144
  107      H       7.8087212385    -2.8434175920     1.5608552005
  108      H       7.8925510437    -2.9898592929     4.5417323184
  109      H       7.7480461276    -1.5314235704     3.5603962025
  110      H       9.2316792082    -2.4329101003     3.4126940747
 ----------------------------------------------------------------

    9   -5663.4872815139      7.37E-06 Convergence criterion met
 Total energy in the final basis set = -5663.4872815139

                    Orbital Energies (a.u.)
 --------------------------------------------------------------

 Alpha MOs
 -- Occupied --
-88.982 -88.981 -88.926 -88.924 -88.923 -88.922 -88.908 -88.908
-14.383 -14.376 -14.376 -14.370 -14.345 -14.341 -14.335 -14.335
-14.331 -14.330 -10.264 -10.263 -10.256 -10.253 -10.253 -10.252
-10.246 -10.245 -10.242 -10.236 -10.234 -10.233 -10.229 -10.229
-10.229 -10.229 -10.228 -10.228 -10.227 -10.227 -10.226 -10.225
-10.224 -10.223 -10.222 -10.221 -10.219 -10.217 -10.215 -10.213
-10.211 -10.208 -10.205 -10.204 -10.202 -10.200 -10.199 -10.198
-10.189 -10.188 -10.186 -10.183 -10.181 -10.181 -10.178 -10.177
-10.170 -10.170 -10.159 -10.158  -8.037  -8.035  -7.988  -7.985
 -7.984  -7.981  -7.967  -7.967  -6.002  -6.000  -5.996  -5.995
 -5.995  -5.993  -5.952  -5.949  -5.948  -5.948  -5.946  -5.945
 -5.945  -5.945  -5.942  -5.942  -5.941  -5.938  -5.932  -5.931
 -5.929  -5.928  -5.923  -5.923  -1.039  -1.023  -0.973  -0.971
 -0.963  -0.954  -0.949  -0.938  -0.924  -0.913  -0.905  -0.890
 -0.848  -0.838  -0.836  -0.829  -0.809  -0.807  -0.807  -0.805
 -0.800  -0.799  -0.796  -0.794  -0.782  -0.779  -0.767  -0.763
 -0.746  -0.745  -0.739  -0.739  -0.728  -0.722  -0.709  -0.708
 -0.690  -0.687  -0.673  -0.672  -0.652  -0.651  -0.647  -0.645
 -0.631  -0.631  -0.626  -0.620  -0.610  -0.603  -0.600  -0.597
 -0.591  -0.591  -0.590  -0.578  -0.575  -0.573  -0.563  -0.555
 -0.549  -0.542  -0.541  -0.538  -0.526  -0.521  -0.515  -0.514
 -0.512  -0.508  -0.507  -0.492  -0.486  -0.485  -0.478  -0.478
 -0.470  -0.469  -0.467  -0.462  -0.458  -0.455  -0.452  -0.449
 -0.442  -0.438  -0.436  -0.435  -0.434  -0.433  -0.431  -0.430
 -0.428  -0.426  -0.424  -0.421  -0.416  -0.415  -0.412  -0.412
 -0.408  -0.407  -0.403  -0.401  -0.399  -0.399  -0.397  -0.396
 -0.394  -0.393  -0.390  -0.387  -0.386  -0.385  -0.381  -0.380
 -0.378  -0.377  -0.376  -0.366  -0.365  -0.364  -0.358  -0.355
 -0.351  -0.349  -0.348  -0.347  -0.346  -0.343  -0.343  -0.338
 -0.337  -0.336  -0.330  -0.328  -0.327  -0.324  -0.320  -0.314
 -0.308  -0.307  -0.302  -0.299  -0.298  -0.297  -0.295  -0.293
 -0.291  -0.290  -0.290  -0.288  -0.286  -0.284  -0.283  -0.274
 -0.271  -0.270  -0.266  -0.263  -0.253  -0.252  -0.251  -0.246
 -0.245  -0.243  -0.230  -0.228  -0.196  -0.191

          Ground-State Mulliken Net Atomic Charges

     Atom                 Charge (a.u.)
  ----------------------------------------
      1 C                     0.270062
      2 C                    -0.122911
      3 N                    -0.480617
      4 C                    -0.073185
      5 C                     0.112237
      6 C                     0.045647
      7 C                     0.007281
      8 C                     0.055536
      9 C                     0.235417
     10 N                    -0.543354
     11 N                    -0.561000
     12 C                     0.207419
     13 C                     0.320526
     14 S                     0.641022
     15 N                    -0.610777
     16 C                    -0.215733
     17 S                     0.380160
     18 C                    -0.138408
     19 C                    -0.258160
     20 S                     0.285229
     21 C                     0.213181
     22 C                     0.046032
     23 C                    -0.304592
     24 C                    -0.094998
     25 N                    -0.437870
     26 S                     0.282435
     27 C                     0.110990
     28 C                    -0.313942
     29 C                    -0.237476
     30 H                     0.101068
     31 H                     0.101509
     32 H                     0.122717
     33 H                     0.117468
     34 H                     0.131610
     35 H                     0.102236
     36 H                     0.126464
     37 H                     0.133009
     38 H                     0.094991
     39 C                    -0.179693
     40 H                     0.118320
     41 H                     0.098032
     42 H                     0.100342
     43 C                    -0.174909
     44 H                     0.099266
     45 C                    -0.190542
     46 H                     0.109481
     47 H                     0.088261
     48 H                     0.089519
     49 C                    -0.177155
     50 H                     0.094175
     51 C                    -0.324322
     52 H                     0.093066
     53 H                     0.106158
     54 H                     0.102853
     55 H                     0.098653
     56 C                     0.258730
     57 C                    -0.108779
     58 N                    -0.481875
     59 C                    -0.086248
     60 C                     0.088388
     61 C                     0.035920
     62 C                     0.069329
     63 C                     0.032866
     64 C                     0.260300
     65 N                    -0.477369
     66 N                    -0.606994
     67 C                     0.168929
     68 C                     0.244209
     69 S                     0.656623
     70 N                    -0.524119
     71 C                    -0.180236
     72 S                     0.295286
     73 C                    -0.105214
     74 C                    -0.220436
     75 S                     0.238392
     76 C                     0.135368
     77 C                     0.050052
     78 C                    -0.308113
     79 C                    -0.041433
     80 N                    -0.426919
     81 S                     0.275554
     82 C                     0.122787
     83 C                    -0.310066
     84 C                    -0.239955
     85 H                     0.095975
     86 H                     0.101029
     87 H                     0.120086
     88 H                     0.110552
     89 H                     0.126124
     90 H                     0.133906
     91 H                     0.113585
     92 H                     0.129827
     93 H                     0.121348
     94 C                    -0.182037
     95 H                     0.094991
     96 H                     0.112955
     97 H                     0.088509
     98 C                    -0.184704
     99 H                     0.095936
    100 C                    -0.182318
    101 H                     0.098011
    102 H                     0.087392
    103 H                     0.104815
    104 C                    -0.193126
    105 H                     0.084579
    106 C                    -0.314292
    107 H                     0.128336
    108 H                     0.091619
    109 H                     0.105227
    110 H                     0.093970
  ----------------------------------------
  Sum of atomic charges =     0.000000

                    Cartesian Multipole Moments
 -----------------------------------------------------------------
    Charge (ESU x 10^10)
                 0.0000
    Dipole Moment (Debye)
         X      -0.8185      Y       0.3519      Z       0.4513
       Tot       0.9988
    Quadrupole Moments (Debye-Ang)
        XX    -389.9226     XY       8.0232     YY    -402.2873
        XZ     -21.1595     YZ       5.6845     ZZ    -457.1462

 Total job time:  92.58s(wall), 1024.25s(cpu)
        *  Thank you very much for using Q-Chem.  Have a nice day.  *
