 Q-Chem 4.4, Q-Chem, Inc., Pleasanton, CA (2016)
 Q-Chem 4.4.2 for Intel X86 Linux

User input:
--------------------------------------------------------------
$comment
SP
$end

$rem
MEM_STATIC 5000
MEM_TOTAL 20000
JOBTYPE SP
EXCHANGE B3LYP
BASIS 6-31g(d,p)
$end

$molecule
0 1
C           1.335000      6.992000      3.809000
C           0.156000      6.218000      3.856000
N           2.537000      6.480000      3.574000
C           0.285000      4.787000      3.812000
C           2.624000      5.136000      3.367000
C           1.536000      4.207000      3.488000
C           1.826000      2.724000      3.330000
C           2.377000      2.331000      2.117000
C           1.695000      1.824000      4.397000
N           2.811000      1.096000      1.906000
N           1.079000      2.029000      5.521000
C           2.294000      0.563000      4.228000
C           2.918000      0.276000      2.996000
S           1.248000      0.603000      6.345000
N           2.228000     -0.231000      5.303000
C           3.888000     -0.823000      2.790000
S           4.171000     -1.621000      1.200000
C           4.913000     -1.198000      3.678000
C           5.653000     -2.353000      1.756000
S           5.221000     -0.567000      5.163000
C           5.900000     -1.938000      3.037000
C           6.403000     -3.389000      1.062000
C           6.874000     -1.282000      5.042000
C           6.982000     -2.083000      3.976000
N           5.649000     -4.211000      0.366000
S           8.128000     -3.743000      1.196000
C           6.443000     -5.280000     -0.041000
C           7.735000     -5.237000      0.326000
C           1.446000      8.461000      4.208000
H          -0.810000      6.672000      4.055000
H          -0.627000      4.198000      3.845000
H           3.595000      4.662000      3.237000
H           2.335000      3.109000      1.357000
H           7.600000     -1.143000      5.832000
H           7.880000     -2.661000      3.789000
H           5.857000     -6.078000     -0.477000
H           8.559000     -5.937000      0.270000
H           2.071000      8.876000      3.407000
C           1.988000      8.796000      5.631000
H           0.471000      8.961000      4.159000
H           2.970000      8.374000      5.877000
H           1.298000      8.343000      6.353000
C           2.137000     10.328000      5.836000
H           2.821000     10.743000      5.086000
C           2.768000     10.580000      7.266000
H           1.185000     10.872000      5.832000
H           3.140000     11.609000      7.187000
H           3.611000      9.921000      7.510000
C           1.719000     10.368000      8.334000
H           0.980000     11.178000      8.303000
C           2.379000     10.538000      9.692000
H           1.230000      9.393000      8.216000
H           1.627000     10.410000     10.481000
H           2.846000     11.529000      9.743000
H           3.163000      9.798000      9.895000
C          11.925000     -1.707000      3.819000
C          11.347000     -2.545000      2.852000
N          13.176000     -1.137000      3.686000
C          12.105000     -2.838000      1.703000
C          13.872000     -1.459000      2.607000
C          13.421000     -2.335000      1.589000
C          14.255000     -2.641000      0.394000
C          13.685000     -2.843000     -0.813000
C          15.646000     -2.831000      0.505000
N          14.379000     -3.263000     -1.846000
N          16.409000     -2.707000      1.582000
C          16.422000     -3.297000     -0.613000
C          15.639000     -3.571000     -1.802000
S          17.949000     -3.190000      1.152000
N          17.694000     -3.598000     -0.366000
C          16.180000     -3.990000     -3.062000
S          15.350000     -4.988000     -4.255000
C          17.236000     -3.331000     -3.628000
C          16.488000     -4.454000     -5.527000
S          18.067000     -1.903000     -3.065000
C          17.412000     -3.600000     -4.976000
C          16.231000     -4.466000     -6.964000
C          18.873000     -1.788000     -4.713000
C          18.420000     -2.765000     -5.595000
N          17.259000     -4.383000     -7.788000
S          14.698000     -4.739000     -7.661000
C          16.796000     -4.255000     -9.084000
C          15.491000     -4.545000     -9.190000
C          11.209000     -1.390000      5.065000
H          10.317000     -2.873000      2.961000
H          11.698000     -3.536000      0.978000
H          14.826000     -0.956000      2.454000
H          12.619000     -2.784000     -1.028000
H          19.780000     -1.232000     -4.911000
H          18.857000     -2.909000     -6.577000
H          17.530000     -4.074000     -9.859000
H          14.827000     -4.652000    -10.038000
H          11.532000     -0.403000      5.419000
C          11.315000     -2.599000      6.154000
H          10.148000     -1.198000      4.859000
H          12.350000     -2.931000      6.302000
H          10.818000     -3.456000      5.682000
C          10.687000     -2.214000      7.498000
H           9.747000     -1.680000      7.315000
C          11.713000     -1.330000      8.403000
H          10.609000     -3.179000      8.014000
H          11.470000     -0.285000      8.172000
H          12.779000     -1.480000      8.195000
C          11.436000     -1.352000      9.920000
H          10.408000     -1.660000     10.152000
C          11.790000     -0.039000     10.582000
H          12.199000     -2.039000     10.307000
H          11.123000      0.744000     10.201000
H          12.816000      0.272000     10.349000
H          11.765000     -0.150000     11.673000
$end

--------------------------------------------------------------

             Standard Nuclear Orientation (Angstroms)
    I     Atom           X                Y                Z
 ----------------------------------------------------------------
    1      C     -10.3687907033     2.6090912710     3.1186730668
    2      C     -10.9194059520     3.1969847983     1.9599970774
    3      N      -9.1259853743     2.1472528148     3.1843476784
    4      C     -10.1528788374     3.1424006873     0.7451741448
    5      C      -8.3505123311     2.2537037617     2.0689716185
    6      C      -8.7992095454     2.7277523181     0.7901538926
    7      C      -7.8333868968     2.6808952707    -0.3817437260
    8      C      -6.6515060903     3.3954557039    -0.2334866974
    9      C      -8.0445896135     1.8417999638    -1.4849039494
   10      N      -5.6649148841     3.3188221974    -1.1160211713
   11      N      -9.1461468856     1.2344100752    -1.8050696870
   12      C      -6.9437838230     1.6400458621    -2.3363761415
   13      C      -5.7462784176     2.3326023996    -2.0608489259
   14      S      -8.7764647947     0.4289190444    -3.2034731877
   15      N      -7.1585245815     0.7605974818    -3.3217055042
   16      C      -4.4243675810     1.9632824533    -2.6151877367
   17      S      -3.0742329257     3.1337504558    -2.8435165955
   18      C      -3.9246486686     0.6559048703    -2.7595444624
   19      C      -1.9097493447     1.8522074528    -3.0506627305
   20      S      -4.7073010782    -0.7492192618    -2.4258808909
   21      C      -2.5401745832     0.6482863463    -2.8853358183
   22      C      -0.5417570144     2.0131129505    -3.5198518235
   23      C      -3.0920933423    -1.5543759005    -2.3926881651
   24      C      -2.1272065336    -0.7293626622    -2.8145502317
   25      N      -0.3906215220     2.9941824322    -4.3819868100
   26      S       0.8387359604     0.9601316432    -3.1967937591
   27      C       0.8848025753     2.8895991643    -4.9308052792
   28      C       1.6486815706     1.8815591143    -4.4767720886
   29      C     -11.1472662920     2.2358830155     4.3773129501
   30      H     -11.9424403435     3.5602693819     1.9427359888
   31      H     -10.5815654979     3.6001248276    -0.1416574957
   32      H      -7.3484187223     1.8294322910     2.0541689703
   33      H      -6.6640040834     4.0685386424     0.6217624815
   34      H      -3.0003495070    -2.6095703379    -2.1721325759
   35      H      -1.1044861763    -1.0677442196    -2.9370165229
   36      H       1.0231304686     3.5615123036    -5.7672824918
   37      H       2.6075277529     1.4713784122    -4.7674227209
   38      H     -10.4780616099     2.5763780618     5.1777373482
   39      C     -11.5910058375     0.7515373620     4.5526161065
   40      H     -12.0766129233     2.8131128573     4.4557128782
   41      H     -10.7881296457     0.0061711153     4.5002426505
   42      H     -12.2527932348     0.5120778994     3.7116109897
   43      C     -12.2748792590     0.5216835499     5.9276558762
   44      H     -11.5866422732     0.7873468172     6.7390336426
   45      C     -12.6180814326    -1.0180408311     6.0619171832
   46      H     -13.2290392867     1.0493018225     6.0436455312
   47      H     -12.7688346619    -1.1377560701     7.1419207598
   48      H     -11.8103448259    -1.6899632067     5.7448243019
   49      C     -13.8258479571    -1.3499723067     5.2151052101
   50      H     -14.7286939506    -0.9111055639     5.6571991979
   51      C     -14.0750538420    -2.8461606511     5.3044408984
   52      H     -13.6904524463    -1.0004996651     4.1839859501
   53      H     -14.9631724166    -3.1033946023     4.7132682570
   54      H     -14.2013412157    -3.1271723603     6.3569877707
   55      H     -13.2545095972    -3.4528775682     4.9018657814
   56      C       1.4626357385    -3.2711398402    -0.5228968462
   57      C       1.8846819482    -2.1580173786    -1.2673781303
   58      N       2.2014567801    -3.8288866639     0.5021162996
   59      C       3.1441855748    -1.6079239995    -0.9646209854
   60      C       3.3936825946    -3.3044387917     0.7385333814
   61      C       3.9525366903    -2.2178809230     0.0214733436
   62      C       5.2970616614    -1.6705305711     0.3529506342
   63      C       5.5540192588    -0.3504821055     0.2346381604
   64      C       6.3655342144    -2.5206623649     0.6978337113
   65      N       6.7667019157     0.1349191351     0.3721569199
   66      N       6.3513312999    -3.8372791363     0.8520820647
   67      C       7.7017412671    -2.0089871385     0.8461414148
   68      C       7.8238164852    -0.5896931359     0.5767194867
   69      S       7.9282081577    -4.3180530078     1.1206055453
   70      N       8.6653726228    -2.9105604327     1.0139931517
   71      C       9.0330142364     0.1693846345     0.7089455697
   72      S       9.4503156652     1.6065733880    -0.2229884431
   73      C       9.7978665957     0.0824934463     1.8390888304
   74      C      10.6781366518     2.0665311874     0.9931852484
   75      S       9.4943505482    -0.8194074075     3.3023614841
   76      C      10.7100707176     1.1156263095     1.9838684109
   77      C      11.1946429335     3.4130362299     1.2196966862
   78      C      10.8485912202     0.1300976090     4.1043823229
   79      C      11.3852593186     1.1019448056     3.2646428523
   80      N      12.3259571472     3.5493904259     1.8861685033
   81      S      10.5168058656     4.8255035972     0.5444931274
   82      C      12.5565291425     4.8912052651     2.1243669339
   83      C      11.7673545239     5.6832646069     1.3839573037
   84      C       0.1761225962    -3.9251368991    -0.8107036939
   85      H       1.2125525759    -1.6962418782    -1.9852712241
   86      H       3.5118606348    -0.7887070657    -1.5746838228
   87      H       3.9513354341    -3.6854040808     1.5931811212
   88      H       4.8379898646     0.4088838110    -0.0763719867
   89      H      11.3691880645    -0.1867807474     4.9985612944
   90      H      12.2563363630     1.6879748116     3.5363460262
   91      H      13.4003563070     5.1472343267     2.7524965670
   92      H      11.7356610700     6.7540674005     1.2296008907
   93      H      -0.2038053891    -4.3827362453     0.1112895622
   94      C       0.2708935489    -4.9158538242    -2.1023446816
   95      H      -0.6008894752    -3.1740329456    -1.0033590648
   96      H       1.1203702838    -5.6062483005    -2.0309461947
   97      H       0.5198998344    -4.2628277402    -2.9483912544
   98      C      -1.0287899907    -5.6988642317    -2.3183594928
   99      H      -1.8819555858    -5.0275045594    -2.1646400804
  100      C      -1.1075269956    -7.0020387354    -1.3443504081
  101      H      -0.9016252514    -6.1047163418    -3.3296350209
  102      H      -1.6495235516    -6.6604373872    -0.4532930294
  103      H      -0.1434190050    -7.4073721551    -1.0152294557
  104      C      -2.0456726101    -8.1268174660    -1.8273179156
  105      H      -2.7855181741    -7.7691693453    -2.5554582614
  106      C      -2.7009113491    -8.8550772736    -0.6750033546
  107      H      -1.3547725253    -8.8759484293    -2.2339711740
  108      H      -3.3667356243    -8.1615737819    -0.1469219769
  109      H      -1.9634276226    -9.2107557363     0.0552682280
  110      H      -3.2026253586    -9.7598702527    -1.0395026242
 ----------------------------------------------------------------

   10   -5663.4762408299      3.74E-06 Convergence criterion met
 Total energy in the final basis set = -5663.4762408299

                    Orbital Energies (a.u.)
 --------------------------------------------------------------

 Alpha MOs
 -- Occupied --
-88.991 -88.989 -88.934 -88.924 -88.923 -88.923 -88.911 -88.908
-14.397 -14.389 -14.387 -14.381 -14.352 -14.345 -14.338 -14.336
-14.331 -14.329 -10.275 -10.268 -10.264 -10.259 -10.258 -10.257
-10.257 -10.255 -10.243 -10.240 -10.236 -10.236 -10.235 -10.232
-10.231 -10.231 -10.231 -10.230 -10.229 -10.228 -10.227 -10.227
-10.226 -10.225 -10.224 -10.223 -10.222 -10.218 -10.216 -10.216
-10.215 -10.215 -10.211 -10.207 -10.206 -10.203 -10.203 -10.199
-10.193 -10.191 -10.188 -10.182 -10.181 -10.181 -10.178 -10.177
-10.174 -10.173 -10.172 -10.168  -8.047  -8.045  -7.995  -7.986
 -7.983  -7.982  -7.974  -7.968  -6.012  -6.010  -6.006  -6.004
 -6.004  -6.003  -5.959  -5.956  -5.951  -5.950  -5.947  -5.947
 -5.946  -5.943  -5.943  -5.942  -5.939  -5.939  -5.938  -5.935
 -5.932  -5.930  -5.929  -5.923  -1.048  -1.045  -0.976  -0.973
 -0.972  -0.962  -0.938  -0.937  -0.926  -0.919  -0.917  -0.908
 -0.853  -0.839  -0.831  -0.831  -0.813  -0.813  -0.810  -0.808
 -0.805  -0.804  -0.798  -0.795  -0.788  -0.780  -0.772  -0.768
 -0.756  -0.752  -0.744  -0.742  -0.727  -0.723  -0.713  -0.712
 -0.693  -0.691  -0.681  -0.677  -0.660  -0.652  -0.651  -0.647
 -0.635  -0.635  -0.628  -0.627  -0.610  -0.607  -0.602  -0.597
 -0.594  -0.592  -0.586  -0.585  -0.576  -0.575  -0.567  -0.564
 -0.553  -0.551  -0.547  -0.545  -0.530  -0.529  -0.526  -0.517
 -0.512  -0.510  -0.509  -0.502  -0.488  -0.486  -0.483  -0.481
 -0.474  -0.473  -0.471  -0.469  -0.464  -0.464  -0.453  -0.451
 -0.451  -0.446  -0.442  -0.441  -0.439  -0.438  -0.435  -0.431
 -0.426  -0.426  -0.425  -0.418  -0.418  -0.418  -0.415  -0.414
 -0.412  -0.412  -0.407  -0.407  -0.403  -0.402  -0.401  -0.400
 -0.398  -0.394  -0.393  -0.391  -0.389  -0.386  -0.385  -0.383
 -0.383  -0.382  -0.376  -0.371  -0.370  -0.367  -0.360  -0.358
 -0.354  -0.351  -0.350  -0.350  -0.346  -0.346  -0.344  -0.344
 -0.342  -0.341  -0.337  -0.337  -0.326  -0.326  -0.325  -0.325
 -0.325  -0.312  -0.312  -0.310  -0.305  -0.302  -0.301  -0.299
 -0.297  -0.295  -0.295  -0.292  -0.291  -0.286  -0.281  -0.277
 -0.275  -0.273  -0.268  -0.263  -0.262  -0.253  -0.252  -0.251
 -0.244  -0.244  -0.241  -0.232  -0.198  -0.198

          Ground-State Mulliken Net Atomic Charges

     Atom                 Charge (a.u.)
  ----------------------------------------
      1 C                     0.254225
      2 C                    -0.122708
      3 N                    -0.467501
      4 C                    -0.071214
      5 C                     0.078821
      6 C                     0.011208
      7 C                    -0.020793
      8 C                     0.088733
      9 C                     0.302512
     10 N                    -0.493937
     11 N                    -0.558196
     12 C                     0.215939
     13 C                     0.240885
     14 S                     0.593780
     15 N                    -0.547955
     16 C                    -0.211945
     17 S                     0.347728
     18 C                    -0.099756
     19 C                    -0.212809
     20 S                     0.259679
     21 C                     0.134920
     22 C                     0.038950
     23 C                    -0.306396
     24 C                    -0.066827
     25 N                    -0.410009
     26 S                     0.264778
     27 C                     0.132198
     28 C                    -0.317495
     29 C                    -0.209989
     30 H                     0.093612
     31 H                     0.101324
     32 H                     0.102628
     33 H                     0.122780
     34 H                     0.129849
     35 H                     0.103943
     36 H                     0.118573
     37 H                     0.138889
     38 H                     0.115576
     39 C                    -0.163952
     40 H                     0.084231
     41 H                     0.110195
     42 H                     0.092810
     43 C                    -0.181704
     44 H                     0.092854
     45 C                    -0.175140
     46 H                     0.091022
     47 H                     0.086347
     48 H                     0.091305
     49 C                    -0.167707
     50 H                     0.093807
     51 C                    -0.316013
     52 H                     0.097334
     53 H                     0.092960
     54 H                     0.102629
     55 H                     0.098609
     56 C                     0.263955
     57 C                    -0.108003
     58 N                    -0.483073
     59 C                    -0.087575
     60 C                     0.106085
     61 C                     0.034128
     62 C                     0.066477
     63 C                     0.033540
     64 C                     0.250507
     65 N                    -0.475590
     66 N                    -0.580456
     67 C                     0.178717
     68 C                     0.245939
     69 S                     0.602648
     70 N                    -0.518789
     71 C                    -0.180233
     72 S                     0.294191
     73 C                    -0.105543
     74 C                    -0.221072
     75 S                     0.237638
     76 C                     0.135355
     77 C                     0.049783
     78 C                    -0.304014
     79 C                    -0.042920
     80 N                    -0.426483
     81 S                     0.276226
     82 C                     0.123435
     83 C                    -0.310003
     84 C                    -0.248287
     85 H                     0.093072
     86 H                     0.095245
     87 H                     0.114340
     88 H                     0.113214
     89 H                     0.130138
     90 H                     0.134641
     91 H                     0.114294
     92 H                     0.130524
     93 H                     0.122889
     94 C                    -0.177120
     95 H                     0.094242
     96 H                     0.111823
     97 H                     0.089582
     98 C                    -0.189282
     99 H                     0.093697
    100 C                    -0.176150
    101 H                     0.099869
    102 H                     0.092885
    103 H                     0.102106
    104 C                    -0.176796
    105 H                     0.095709
    106 C                    -0.318316
    107 H                     0.094772
    108 H                     0.100665
    109 H                     0.103845
    110 H                     0.099944
  ----------------------------------------
  Sum of atomic charges =     0.000000

                    Cartesian Multipole Moments
 -----------------------------------------------------------------
    Charge (ESU x 10^10)
                 0.0000
    Dipole Moment (Debye)
         X      -0.5266      Y      -0.0595      Z      -1.6573
       Tot       1.7400
    Quadrupole Moments (Debye-Ang)
        XX    -405.3536     XY      13.3647     YY    -431.4524
        XZ       9.2212     YZ       7.8252     ZZ    -438.5897

 Total job time:  95.67s(wall), 1004.54s(cpu)
        *  Thank you very much for using Q-Chem.  Have a nice day.  *
