 Q-Chem 4.4, Q-Chem, Inc., Pleasanton, CA (2016)
 Q-Chem 4.4.2 for Intel X86 Linux

User input:
--------------------------------------------------------------
$comment
SP
$end

$rem
MEM_STATIC 5000
MEM_TOTAL 20000
JOBTYPE SP
EXCHANGE B3LYP
BASIS 6-31g(d,p)
$end

$molecule
0 1
C           0.902000     14.124000     -4.074000
C           1.259000     14.301000     -5.398000
N           1.206000     14.985000     -3.187000
C           2.109000     15.418000     -5.704000
C           2.141000     15.902000     -3.393000
C           2.696000     16.163000     -4.661000
C           3.595000     17.311000     -4.926000
C           3.335000     18.282000     -5.985000
C           4.655000     17.736000     -4.082000
N           3.803000     19.550000     -6.026000
N           5.262000     16.893000     -3.255000
C           5.282000     19.005000     -4.188000
C           4.734000     19.937000     -5.144000
S           6.455000     17.745000     -2.541000
N           6.402000     19.159000     -3.363000
C           5.204000     21.306000     -5.275000
S           5.405000     22.157000     -6.781000
C           5.715000     22.004000     -4.173000
C           6.113000     23.563000     -5.927000
S           5.516000     21.705000     -2.513000
C           6.187000     23.290000     -4.584000
C           6.433000     24.835000     -6.503000
C           6.083000     23.402000     -2.224000
C           6.372000     24.077000     -3.384000
N           6.957000     25.817000     -5.760000
S           6.240000     25.139000     -8.200000
C           7.159000     26.922000     -6.524000
C           6.865000     26.765000     -7.784000
C          -0.185000     13.098000     -3.784000
H           0.869000     13.643000     -6.169000
H           2.376000     15.641000     -6.733000
H           2.562000     16.488000     -2.578000
H           2.473000     18.185000     -6.644000
H           6.260000     23.744000     -1.212000
H           6.730000     25.100000     -3.384000
H           7.492000     27.802000     -5.990000
H           6.926000     27.516000     -8.561000
H          -0.130000     12.299000     -4.534000
C          -1.579000     13.791000     -3.680000
H           0.163000     12.561000     -2.892000
H          -1.782000     14.335000     -4.611000
H          -1.631000     14.585000     -2.925000
C          -2.734000     12.783000     -3.413000
H          -2.515000     11.888000     -4.008000
C          -4.020000     13.444000     -3.772000
H          -2.759000     12.556000     -2.340000
H          -3.901000     14.114000     -4.633000
H          -4.259000     14.108000     -2.932000
C          -5.339000     12.613000     -3.848000
H          -6.197000     13.294000     -3.923000
C          -5.443000     11.709000     -2.561000
H          -5.148000     11.943000     -4.695000
H          -4.762000     10.854000     -2.651000
H          -6.421000     11.238000     -2.721000
H          -5.513000     12.222000     -1.594000
C          -6.798000     24.022000    -12.274000
C          -5.736000     23.445000    -11.563000
N          -6.859000     25.295000    -12.776000
C          -4.680000     24.236000    -11.266000
C          -5.729000     26.045000    -12.549000
C          -4.584000     25.611000    -11.739000
C          -3.355000     26.386000    -11.472000
C          -2.112000     25.786000    -11.402000
C          -3.356000     27.723000    -10.908000
N          -0.920000     26.366000    -10.965000
N          -4.438000     28.432000    -10.716000
C          -2.230000     28.360000    -10.460000
C          -0.976000     27.644000    -10.480000
S          -3.987000     29.895000    -10.329000
N          -2.431000     29.640000    -10.020000
C           0.272000     28.247000     -9.980000
S           0.365000     29.157000     -8.432000
C           1.553000     27.742000    -10.258000
C           2.066000     28.792000     -8.238000
S           2.128000     26.606000    -11.500000
C           2.497000     28.056000     -9.347000
C           2.956000     29.099000     -7.191000
C           3.737000     26.625000    -10.741000
C           3.775000     27.470000     -9.661000
N           2.372000     29.235000     -6.070000
S           4.683000     29.380000     -7.180000
C           3.158000     29.870000     -5.165000
C           4.476000     29.976000     -5.581000
C          -7.955000     23.166000    -12.692000
H          -5.862000     22.434000    -11.189000
H          -3.891000     23.764000    -10.688000
H          -5.753000     27.101000    -12.815000
H          -2.080000     24.768000    -11.789000
H           4.468000     26.016000    -11.256000
H           4.636000     27.626000     -9.022000
H           2.695000     29.927000     -4.189000
H           5.206000     30.481000     -4.964000
H          -8.087000     22.533000    -11.806000
C          -7.527000     22.194000    -13.912000
H          -8.858000     23.788000    -12.745000
H          -7.130000     21.281000    -13.451000
H          -6.636000     22.590000    -14.413000
C          -8.707000     21.881000    -14.800000
H          -8.308000     21.133000    -15.497000
C          -9.350000     23.126000    -15.573000
H          -9.516000     21.455000    -14.193000
H          -8.663000     23.687000    -16.218000
H          -9.747000     23.819000    -14.820000
C         -10.515000     22.672000    -16.560000
H         -10.137000     22.115000    -17.426000
C         -11.386000     23.830000    -17.127000
H         -11.161000     21.952000    -16.043000
H         -10.861000     24.441000    -17.871000
H         -11.840000     24.463000    -16.355000
H         -12.197000     23.315000    -17.656000
$end

--------------------------------------------------------------

             Standard Nuclear Orientation (Angstroms)
    I     Atom           X                Y                Z
 ----------------------------------------------------------------
    1      C      -7.2051759116     6.2770664816    -0.3190344400
    2      C      -6.5363132702     5.9837407337    -1.4930603224
    3      N      -7.4253831317     5.3806158720     0.5575447547
    4      C      -6.2314097489     4.6029002047    -1.7463156798
    5      C      -7.3405846602     4.0883824365     0.2738336915
    6      C      -6.7738145279     3.5985361262    -0.9189748470
    7      C      -6.5044592871     2.1598665990    -1.1513705132
    8      C      -5.1877094097     1.6614811097    -1.5382860909
    9      C      -7.3850834865     1.0957065819    -0.8217867190
   10      N      -4.7309156223     0.4037320880    -1.3435148554
   11      N      -8.6971482640     1.2826883926    -0.7408495699
   12      C      -6.9825865136    -0.2637685597    -0.7543365440
   13      C      -5.5795418468    -0.5491430057    -0.9356955486
   14      S      -9.3411528843    -0.1822929427    -0.4277413838
   15      N      -8.0382074527    -1.1628627769    -0.5645076165
   16      C      -5.0146547135    -1.8789795834    -0.7786630576
   17      S      -3.7716595067    -2.5654787320    -1.7867899518
   18      C      -5.5734749433    -2.8013604877     0.1155753995
   19      C      -3.9052704387    -4.1351464395    -0.9349053312
   20      S      -6.6006217930    -2.5393136086     1.4425655209
   21      C      -4.8912186753    -4.0544360254     0.0164336744
   22      C      -3.0446901167    -5.2683984333    -1.1001367686
   23      C      -6.1569272897    -4.2028969722     2.0086437664
   24      C      -5.2672067254    -4.8346268833     1.1755407495
   25      N      -3.2415361857    -6.3923739956    -0.4009375405
   26      S      -1.7634213192    -5.2741542745    -2.2696628003
   27      C      -2.2942805678    -7.3120022324    -0.7211182712
   28      C      -1.4680131764    -6.9297418988    -1.6537726742
   29      C      -7.3111540828     7.7464423279     0.0657359455
   30      H      -6.2208753915     6.7778347502    -2.1634472537
   31      H      -5.6578335862     4.3176609290    -2.6235316972
   32      H      -7.7402031945     3.3254735602     0.9395191078
   33      H      -4.3491091647     2.3386535415    -1.6961503577
   34      H      -6.6656015294    -4.6331149711     2.8622244547
   35      H      -4.9066797270    -5.8383368480     1.3686199822
   36      H      -2.3131138900    -8.2219385881    -0.1362198744
   37      H      -0.6278392240    -7.4900493561    -2.0431494621
   38      H      -7.3472584254     8.3523838130    -0.8482976387
   39      C      -6.1697826475     8.1375984687     1.0549624718
   40      H      -8.3392533314     7.8704457680     0.4301149814
   41      H      -5.1997405190     7.9151136668     0.5929832710
   42      H      -6.1411647731     7.5331556673     1.9698367348
   43      C      -6.2123699442     9.6395019871     1.4597465421
   44      H      -6.4892489432    10.2008794987     0.5590777299
   45      C      -4.8795694896    10.0096683856     2.0131160261
   46      H      -6.9557896790     9.7660158638     2.2564926352
   47      H      -4.0690662572     9.4767388313     1.4998396870
   48      H      -4.8639281037     9.6211120316     3.0389797144
   49      C      -4.5255843844    11.5058962661     2.2816205413
   50      H      -3.5994317185    11.5634103572     2.8685475971
   51      C      -5.7260254989    12.1806816535     3.0484365634
   52      H      -4.5123407473    11.9309389708     1.2707034798
   53      H      -6.5483907556    12.3795790883     2.3505531956
   54      H      -5.3216442718    13.1869282763     3.2153753467
   55      H      -5.9682612530    11.7871434646     4.0432267590
   56      C       7.6470082795     4.3737122204     0.2197338868
   57      C       6.2850234316     4.0680736555     0.0860314492
   58      N       8.6877076976     3.4862695810     0.2948623306
   59      C       5.9326838116     2.7625156967     0.1060616344
   60      C       8.3103818101     2.1667385286     0.2088857279
   61      C       6.9212245052     1.6935373874     0.1664161824
   62      C       6.4763144338     0.2878352516     0.0747017690
   63      C       5.3727917321    -0.0835731503    -0.6697728417
   64      C       6.8901278862    -0.7471332948     1.0038220704
   65      N       4.7408072274    -1.3280771142    -0.6759752341
   66      N       7.8059130936    -0.5782604601     1.9220205346
   67      C       6.3220883631    -1.9916222251     1.0579275474
   68      C       5.2004424849    -2.2781060207     0.1945565040
   69      S       8.1294366168    -1.9953232909     2.5391140961
   70      N       6.8942371837    -2.8452004837     1.9615042645
   71      C       4.5114029739    -3.5802766665     0.2208083880
   72      S       4.0530215614    -4.4118629632     1.7477018722
   73      C       3.6433998247    -4.0284395225    -0.7886422484
   74      C       2.7392861116    -5.2680951221     0.9697380825
   75      S       3.4045297884    -3.4839707076    -2.4650013434
   76      C       2.7294051299    -4.9366892778    -0.3894567279
   77      C       1.7729665916    -6.1432063286     1.5016825925
   78      C       2.0261500233    -4.5997818474    -2.6076818378
   79      C       1.8392017143    -5.3200331144    -1.4552247054
   80      N       1.5309694736    -5.9240919100     2.7303482371
   81      S       0.9117658753    -7.4913003940     0.7927490857
   82      C       0.8919431135    -6.9690524158     3.3132280297
   83      C       0.4240397458    -7.8925684315     2.3914902106
   84      C       8.0934836165     5.8013495937     0.1268882956
   85      H       5.5751970707     4.8890551293     0.0890242798
   86      H       4.8673723365     2.5651749902     0.0315156316
   87      H       9.0695641604     1.4046016309     0.3799339907
   88      H       5.0144430831     0.6815132426    -1.3577743368
   89      H       1.5617578844    -4.5945812456    -3.5848102301
   90      H       1.0458425155    -6.0397222541    -1.2921090290
   91      H       0.6203997850    -6.7620875005     4.3396897896
   92      H      -0.0851393725    -8.7868596661     2.7225397736
   93      H       7.2965010543     6.3136457118     0.6795911841
   94      C       8.0191554033     6.3181769387    -1.4040371801
   95      H       9.0001560068     5.9315390364     0.7319485288
   96      H       7.0064714439     6.7165089187    -1.5436861404
   97      H       8.0129680037     5.4626928107    -2.0894615909
   98      C       9.0583734806     7.3796859261    -1.6726213521
   99      H       8.8180510199     7.7179756439    -2.6886524449
  100      C      10.5837938484     6.9115135352    -1.5505135559
  101      H       8.9374315745     8.1977689528    -0.9511511747
  102      H      10.8737885678     6.0744883926    -2.1970481438
  103      H      10.7593303993     6.6100532140    -0.5097563345
  104      C      11.5939096129     8.0745925991    -1.9560049042
  105      H      11.5718087931     8.2927993005    -3.0307078349
  106      C      13.0831121482     7.8101918238    -1.5906803378
  107      H      11.2666230648     9.0112252662    -1.4884498140
  108      H      13.5541118100     7.0478023872    -2.2226642502
  109      H      13.2474040747     7.5902233576    -0.5288842007
  110      H      13.5823573331     8.7603431487    -1.8159661675
 ----------------------------------------------------------------

   10   -5663.4540214657      3.40E-06 Convergence criterion met
 Total energy in the final basis set = -5663.4540214657

                    Orbital Energies (a.u.)
 --------------------------------------------------------------

 Alpha MOs
 -- Occupied --
-88.990 -88.984 -88.932 -88.929 -88.928 -88.927 -88.909 -88.905
-14.394 -14.384 -14.381 -14.369 -14.353 -14.351 -14.337 -14.333
-14.331 -14.323 -10.269 -10.264 -10.263 -10.261 -10.259 -10.259
-10.249 -10.247 -10.244 -10.240 -10.238 -10.238 -10.237 -10.235
-10.234 -10.231 -10.231 -10.230 -10.229 -10.228 -10.227 -10.226
-10.225 -10.225 -10.224 -10.222 -10.222 -10.221 -10.220 -10.218
-10.215 -10.211 -10.210 -10.204 -10.202 -10.200 -10.198 -10.194
-10.188 -10.186 -10.184 -10.183 -10.183 -10.182 -10.179 -10.179
-10.176 -10.174 -10.171 -10.169  -8.046  -8.041  -7.993  -7.988
 -7.988  -7.986  -7.970  -7.965  -6.011  -6.006  -6.005  -6.004
 -6.000  -5.999  -5.957  -5.954  -5.952  -5.952  -5.950  -5.950
 -5.948  -5.948  -5.946  -5.944  -5.944  -5.943  -5.935  -5.931
 -5.930  -5.926  -5.926  -5.921  -1.055  -1.038  -0.988  -0.972
 -0.962  -0.958  -0.941  -0.926  -0.913  -0.911  -0.906  -0.904
 -0.845  -0.843  -0.834  -0.828  -0.814  -0.810  -0.808  -0.805
 -0.802  -0.800  -0.797  -0.796  -0.786  -0.779  -0.767  -0.763
 -0.752  -0.745  -0.744  -0.736  -0.728  -0.724  -0.712  -0.708
 -0.696  -0.687  -0.675  -0.669  -0.657  -0.655  -0.646  -0.642
 -0.638  -0.637  -0.633  -0.620  -0.611  -0.610  -0.602  -0.596
 -0.592  -0.592  -0.587  -0.584  -0.579  -0.576  -0.564  -0.557
 -0.550  -0.541  -0.538  -0.537  -0.526  -0.523  -0.520  -0.515
 -0.511  -0.506  -0.502  -0.498  -0.487  -0.487  -0.476  -0.476
 -0.474  -0.474  -0.470  -0.468  -0.465  -0.454  -0.450  -0.447
 -0.446  -0.443  -0.438  -0.437  -0.436  -0.435  -0.434  -0.431
 -0.428  -0.426  -0.425  -0.422  -0.419  -0.416  -0.415  -0.413
 -0.410  -0.410  -0.408  -0.401  -0.400  -0.398  -0.397  -0.396
 -0.394  -0.390  -0.390  -0.388  -0.387  -0.385  -0.383  -0.379
 -0.377  -0.375  -0.374  -0.373  -0.365  -0.362  -0.361  -0.359
 -0.354  -0.351  -0.347  -0.347  -0.346  -0.343  -0.343  -0.342
 -0.341  -0.336  -0.335  -0.334  -0.330  -0.327  -0.324  -0.319
 -0.316  -0.312  -0.312  -0.309  -0.306  -0.300  -0.298  -0.297
 -0.294  -0.292  -0.290  -0.289  -0.288  -0.285  -0.280  -0.279
 -0.279  -0.275  -0.270  -0.267  -0.256  -0.255  -0.249  -0.246
 -0.244  -0.242  -0.233  -0.230  -0.196  -0.194

          Ground-State Mulliken Net Atomic Charges

     Atom                 Charge (a.u.)
  ----------------------------------------
      1 C                     0.267096
      2 C                    -0.113183
      3 N                    -0.459943
      4 C                    -0.097864
      5 C                     0.090445
      6 C                     0.053637
      7 C                     0.024996
      8 C                     0.053947
      9 C                     0.194811
     10 N                    -0.492118
     11 N                    -0.522082
     12 C                     0.185922
     13 C                     0.261436
     14 S                     0.610392
     15 N                    -0.532911
     16 C                    -0.193267
     17 S                     0.317672
     18 C                    -0.121250
     19 C                    -0.225366
     20 S                     0.269446
     21 C                     0.145784
     22 C                     0.075283
     23 C                    -0.298696
     24 C                    -0.048358
     25 N                    -0.458131
     26 S                     0.255550
     27 C                     0.168919
     28 C                    -0.323463
     29 C                    -0.223877
     30 H                     0.093057
     31 H                     0.097417
     32 H                     0.104539
     33 H                     0.111526
     34 H                     0.128883
     35 H                     0.126727
     36 H                     0.110890
     37 H                     0.123407
     38 H                     0.089744
     39 C                    -0.173247
     40 H                     0.109442
     41 H                     0.092596
     42 H                     0.118287
     43 C                    -0.167391
     44 H                     0.084258
     45 C                    -0.175771
     46 H                     0.105912
     47 H                     0.080742
     48 H                     0.087658
     49 C                    -0.183953
     50 H                     0.097312
     51 C                    -0.324779
     52 H                     0.094349
     53 H                     0.111744
     54 H                     0.098181
     55 H                     0.107024
     56 C                     0.248485
     57 C                    -0.089682
     58 N                    -0.471479
     59 C                    -0.082343
     60 C                     0.076290
     61 C                     0.019862
     62 C                     0.060850
     63 C                     0.036057
     64 C                     0.220564
     65 N                    -0.521288
     66 N                    -0.526724
     67 C                     0.201291
     68 C                     0.274976
     69 S                     0.598795
     70 N                    -0.545913
     71 C                    -0.246987
     72 S                     0.355252
     73 C                    -0.103161
     74 C                    -0.183946
     75 S                     0.270600
     76 C                     0.125953
     77 C                     0.042384
     78 C                    -0.319145
     79 C                    -0.039458
     80 N                    -0.396939
     81 S                     0.280912
     82 C                     0.101735
     83 C                    -0.314612
     84 C                    -0.232710
     85 H                     0.095105
     86 H                     0.098234
     87 H                     0.112737
     88 H                     0.107594
     89 H                     0.138098
     90 H                     0.082128
     91 H                     0.116132
     92 H                     0.133299
     93 H                     0.091412
     94 C                    -0.177161
     95 H                     0.119435
     96 H                     0.092738
     97 H                     0.109424
     98 C                    -0.175294
     99 H                     0.089714
    100 C                    -0.168565
    101 H                     0.096501
    102 H                     0.097130
    103 H                     0.101638
    104 C                    -0.183525
    105 H                     0.092957
    106 C                    -0.320697
    107 H                     0.088793
    108 H                     0.104734
    109 H                     0.104927
    110 H                     0.099516
  ----------------------------------------
  Sum of atomic charges =     0.000000

                    Cartesian Multipole Moments
 -----------------------------------------------------------------
    Charge (ESU x 10^10)
                 0.0000
    Dipole Moment (Debye)
         X      -2.3026      Y      -0.4796      Z      -0.9290
       Tot       2.5288
    Quadrupole Moments (Debye-Ang)
        XX    -466.3576     XY       3.2358     YY    -390.7584
        XZ      -5.0937     YZ     -15.5610     ZZ    -435.4873

 Total job time:  94.12s(wall), 1000.24s(cpu)
        *  Thank you very much for using Q-Chem.  Have a nice day.  *
