 Q-Chem 4.4, Q-Chem, Inc., Pleasanton, CA (2016)
 Q-Chem 4.4.2 for Intel X86 Linux

User input:
--------------------------------------------------------------
$comment
SP
$end

$rem
MEM_STATIC 5000
MEM_TOTAL 20000
JOBTYPE SP
EXCHANGE B3LYP
BASIS 6-31g(d,p)
$end

$molecule
0 1
C          -3.703000    -19.840000      2.820000
C          -3.187000    -20.189000      1.553000
N          -3.555000    -18.578000      3.289000
C          -2.678000    -19.127000      0.765000
C          -3.108000    -17.582000      2.515000
C          -2.629000    -17.763000      1.211000
C          -1.922000    -16.644000      0.475000
C          -0.758000    -16.907000     -0.327000
C          -2.256000    -15.274000      0.599000
N           0.028000    -15.939000     -0.797000
N          -3.362000    -14.797000      1.268000
C          -1.398000    -14.300000      0.127000
C          -0.210000    -14.642000     -0.648000
S          -3.300000    -13.161000      1.156000
N          -1.845000    -13.029000      0.408000
C           0.708000    -13.546000     -1.144000
S           0.422000    -11.818000     -1.008000
C           1.961000    -13.809000     -1.630000
C           2.122000    -11.474000     -1.379000
S           2.875000    -15.283000     -1.616000
C           2.692000    -12.648000     -1.805000
C           2.772000    -10.223000     -1.092000
C           4.275000    -14.345000     -2.118000
C           4.096000    -12.992000     -2.080000
N           3.996000     -9.932000     -1.635000
S           2.056000     -9.064000     -0.017000
C           4.397000     -8.610000     -1.227000
C           3.377000     -7.939000     -0.482000
C          -4.248000    -20.787000      3.827000
H          -3.243000    -21.220000      1.218000
H          -2.143000    -19.412000     -0.136000
H          -3.063000    -16.613000      3.008000
H          -0.450000    -17.923000     -0.571000
H           5.185000    -14.924000     -2.208000
H           4.884000    -12.256000     -2.190000
H           5.306000     -8.151000     -1.592000
H           3.309000     -6.896000     -0.199000
H          -3.420000    -21.186000      4.426000
C          -5.125000    -21.968000      3.329000
H          -4.865000    -20.224000      4.540000
H          -4.627000    -22.690000      2.670000
H          -5.901000    -21.432000      2.768000
C          -5.886000    -22.623000      4.439000
H          -5.198000    -23.187000      5.081000
C          -7.039000    -23.604000      3.992000
H          -6.338000    -21.898000      5.127000
H          -6.736000    -24.252000      3.160000
H          -7.789000    -23.054000      3.411000
C          -7.674000    -24.391000      5.099000
H          -6.880000    -24.696000      5.791000
C          -8.486000    -25.696000      4.626000
H          -8.348000    -23.725000      5.653000
H          -9.233000    -25.345000      3.904000
H          -8.962000    -26.192000      5.481000
H          -7.854000    -26.385000      4.052000
C          -4.499000    -15.400000      6.977000
C          -4.712000    -16.581000      6.288000
N          -3.566000    -15.339000      7.970000
C          -4.054000    -17.791000      6.685000
C          -2.902000    -16.474000      8.292000
C          -3.005000    -17.729000      7.616000
C          -2.133000    -18.923000      7.830000
C          -0.752000    -18.737000      8.239000
C          -2.533000    -20.288000      7.589000
N           0.085000    -19.796000      8.351000
N          -3.771000    -20.688000      7.294000
C          -1.622000    -21.351000      7.681000
C          -0.311000    -21.071000      8.081000
S          -3.679000    -22.316000      7.132000
N          -2.157000    -22.592000      7.513000
C           0.787000    -22.121000      8.075000
S           0.801000    -23.644000      7.176000
C           2.025000    -21.954000      8.655000
C           2.405000    -24.110000      7.691000
S           2.549000    -20.626000      9.565000
C           2.899000    -23.029000      8.455000
C           3.284000    -24.996000      6.932000
C           4.137000    -21.442000      9.625000
C           4.190000    -22.689000      8.994000
N           4.544000    -24.658000      6.785000
S           2.880000    -26.671000      6.586000
C           5.266000    -25.626000      6.174000
C           4.480000    -26.739000      5.790000
C          -5.100000    -14.058000      6.603000
H          -5.368000    -16.648000      5.425000
H          -4.254000    -18.634000      6.031000
H          -2.067000    -16.382000      8.985000
H          -0.262000    -17.779000      8.408000
H           5.004000    -20.968000     10.065000
H           5.046000    -23.353000      9.038000
H           6.316000    -25.547000      5.926000
H           4.792000    -27.585000      5.193000
H          -6.109000    -14.272000      6.230000
C          -4.228000    -13.366000      5.510000
H          -5.308000    -13.464000      7.502000
H          -4.090000    -14.033000      4.650000
H          -3.189000    -13.372000      5.860000
C          -4.597000    -11.924000      5.264000
H          -4.623000    -11.423000      6.240000
C          -6.066000    -11.822000      4.696000
H          -3.856000    -11.360000      4.686000
H          -6.765000    -12.094000      5.496000
H          -6.244000    -12.413000      3.789000
C          -6.462000    -10.384000      4.250000
H          -6.100000     -9.617000      4.946000
C          -7.947000    -10.184000      3.993000
H          -5.877000    -10.281000      3.327000
H          -8.465000    -10.738000      3.199000
H          -8.171000     -9.166000      3.649000
H          -8.508000    -10.332000      4.924000
$end

--------------------------------------------------------------

             Standard Nuclear Orientation (Angstroms)
    I     Atom           X                Y                Z
 ----------------------------------------------------------------
    1      C      -1.3583419011     2.1114771592    -2.6092004850
    2      C      -0.9710826739     1.3278714936    -3.7179558466
    3      N      -0.5232581488     2.2512775910    -1.5520344783
    4      C       0.3663935187     0.8598975773    -3.7231373242
    5      C       0.7481253777     1.8355950012    -1.5931795020
    6      C       1.2962030226     1.1078065889    -2.6573941993
    7      C       2.6632603476     0.4659132268    -2.5441105637
    8      C       2.9075153736    -0.8498365280    -3.0698586640
    9      C       3.7506398843     1.0288544459    -1.8338043431
   10      N       4.0101817268    -1.5445335217    -2.7919324139
   11      N       3.7605451006     2.2982078767    -1.2981087632
   12      C       4.8624648320     0.2648344531    -1.5375903392
   13      C       5.0263497608    -1.0818487926    -2.0747299543
   14      S       5.2143376950     2.4762786432    -0.5580669437
   15      N       5.7787252157     0.9500475057    -0.7726321823
   16      C       6.2570841471    -1.8891690796    -1.7233287240
   17      S       7.6449302987    -1.3141411920    -0.8125587268
   18      C       6.3397450886    -3.2346083899    -1.9648535281
   19      C       8.2027846984    -2.9771042372    -0.5492540001
   20      S       5.1158523167    -4.3523770739    -2.4756838835
   21      C       7.4500808197    -3.7924606664    -1.3575130949
   22      C       9.1446654264    -3.3591529401     0.4689647794
   23      C       6.2353473723    -5.6537469697    -2.0948752506
   24      C       7.3597139948    -5.2594335348    -1.4282339579
   25      N       9.7275165694    -4.5991711427     0.4503797708
   26      S       9.5389972114    -2.2878907522     1.7760461724
   27      C      10.6561440911    -4.7065069823     1.5463172431
   28      C      10.7950197023    -3.4763763078     2.2626677777
   29      C      -2.7139940460     2.6718844571    -2.3724856303
   30      H      -1.6757914958     1.1592781389    -4.5262155556
   31      H       0.6174595809     0.1336557437    -4.4904636118
   32      H       1.3169444931     2.0334418726    -0.6869033688
   33      H       2.1831620386    -1.3531661489    -3.7090984771
   34      H       5.8275451364    -6.6449516724    -2.2453796484
   35      H       8.0766519451    -5.9280851799    -0.9660165276
   36      H      11.2757386286    -5.5821744586     1.6859456072
   37      H      11.5319707813    -3.1948196546     3.0044163592
   38      H      -3.3324323102     1.9124197687    -1.8781846083
   39      C      -3.4953824444     3.2475249825    -3.5849064139
   40      H      -2.6334919557     3.4879031308    -1.6419653105
   41      H      -3.7444457738     2.5316373620    -4.3780276989
   42      H      -2.7780341066     3.9849566791    -3.9667425765
   43      C      -4.6653720703     4.0822742073    -3.1670978370
   44      H      -5.4526009948     3.4404091026    -2.7525091157
   45      C      -5.3147126960     4.9666512935    -4.3019162899
   46      H      -4.4270059378     4.7591760445    -2.3374843790
   47      H      -5.4184221115     4.4207372554    -5.2480448330
   48      H      -4.5738994319     5.6774577802    -4.6872873400
   49      C      -6.5902368254     5.6576695401    -3.9230033999
   50      H      -7.1787292682     4.9627598978    -3.3121824491
   51      C      -7.4875433274     6.1550997873    -5.1613499550
   52      H      -6.3412594191     6.5167580190    -3.2868232081
   53      H      -6.8422388260     6.8062519958    -5.7630782174
   54      H      -8.3768948525     6.6924490993    -4.8093178801
   55      H      -7.7473893784     5.3295701473    -5.8355916351
   56      C       0.2132600452     4.3318841493     2.8887741530
   57      C      -0.4404985410     4.2284961106     1.6735533400
   58      N      -0.2153420814     3.6138460094     3.9662621793
   59      C      -1.6507086084     3.4697530838     1.5536633394
   60      C      -1.3222247576     2.8476578785     3.8228345351
   61      C      -2.0411842429     2.6281072413     2.6073079923
   62      C      -3.1331107550     1.6312459764     2.3933451196
   63      C      -3.1311045746     0.3931035217     3.1523162897
   64      C      -4.1856619156     1.7607998353     1.4152562423
   65      N      -4.0562164975    -0.5667631936     2.9126961343
   66      N      -4.4235000840     2.8467579415     0.6778303157
   67      C      -5.1006277785     0.7248574078     1.1743937158
   68      C      -5.0168191670    -0.4320854486     1.9564297403
   69      S      -5.7207184258     2.4712286147    -0.2502291103
   70      N      -6.0914488853     1.0181842504     0.2873971556
   71      C      -5.8616479287    -1.6651437262     1.6844524480
   72      S      -6.6871967905    -2.0806601218     0.1765594804
   73      C      -5.9712382445    -2.7367365658     2.5427133343
   74      C      -7.2863381089    -3.6192773767     0.7500432408
   75      S      -5.2949802745    -2.8724370931     4.0888441582
   76      C      -6.7452096376    -3.7910677920     2.0438597003
   77      C      -7.6067893758    -4.7489668806    -0.1187666407
   78      C      -5.9546969960    -4.5324775180     4.1043243037
   79      C      -6.6838766787    -4.8941612432     2.9670200905
   80      N      -7.1895866786    -5.9454273571     0.2245659061
   81      S      -8.8684607545    -4.6833381506    -1.3404192926
   82      C      -7.6638143677    -6.9090521301    -0.5989414684
   83      C      -8.4431577298    -6.3905670929    -1.6609293168
   84      C       1.5261796301     5.0602567216     3.1073068952
   85      H      -0.0734497712     4.6999591989     0.7665848968
   86      H      -2.0345178981     3.4134068337     0.5398189089
   87      H      -1.5715902962     2.1758165189     4.6428247885
   88      H      -2.3835831863     0.0989558079     3.8879207327
   89      H      -5.7452051380    -5.2204791913     4.9122425291
   90      H      -7.2363864881    -5.8223006838     2.8729026672
   91      H      -7.4230090925    -7.9606403244    -0.5188160100
   92      H      -8.8379704967    -6.9343032353    -2.5082444214
   93      H       1.4970319233     5.9392301290     2.4518969775
   94      C       2.7234042688     4.1266225846     2.7483118219
   95      H       1.5528378172     5.5174259121     4.1045965584
   96      H       2.6112827054     3.7328951838     1.7305002043
   97      H       2.5785650720     3.1796450417     3.2815211057
   98      C       4.0641691927     4.6684967100     3.1781523170
   99      H       3.9789778229     4.9480804112     4.2358991603
  100      C       4.3868223466     6.0090274331     2.4101280188
  101      H       4.8775578057     3.9343010414     3.1533191845
  102      H       3.7076117228     6.7884117192     2.7759395319
  103      H       4.3507930125     5.9256994826     1.3167971723
  104      C       5.8276811442     6.5405822950     2.6649835739
  105      H       6.1315865932     6.4351645341     3.7139247418
  106      C       6.0703943181     7.9679576650     2.2013416124
  107      H       6.4226205968     5.8231193985     2.0852793044
  108      H       5.9925570129     8.2408971099     1.1406242073
  109      H       7.1075553178     8.2844808425     2.3714772605
  110      H       5.4339660744     8.6564458873     2.7708405663
 ----------------------------------------------------------------

    9   -5663.5072853050      9.87E-06 Convergence criterion met
 Total energy in the final basis set = -5663.5072853050

                    Orbital Energies (a.u.)
 --------------------------------------------------------------

 Alpha MOs
 -- Occupied --
-88.993 -88.990 -88.930 -88.927 -88.924 -88.919 -88.908 -88.904
-14.389 -14.387 -14.383 -14.380 -14.352 -14.351 -14.349 -14.339
-14.330 -14.325 -10.274 -10.272 -10.267 -10.263 -10.258 -10.258
-10.257 -10.253 -10.248 -10.245 -10.244 -10.244 -10.241 -10.240
-10.239 -10.236 -10.235 -10.233 -10.233 -10.231 -10.230 -10.228
-10.227 -10.225 -10.223 -10.221 -10.221 -10.221 -10.218 -10.216
-10.212 -10.210 -10.209 -10.204 -10.199 -10.197 -10.193 -10.192
-10.191 -10.189 -10.188 -10.186 -10.182 -10.182 -10.182 -10.181
-10.180 -10.178 -10.178 -10.172  -8.048  -8.046  -7.991  -7.985
 -7.984  -7.978  -7.968  -7.964  -6.013  -6.011  -6.007  -6.006
 -6.005  -6.003  -5.955  -5.951  -5.950  -5.948  -5.948  -5.946
 -5.945  -5.943  -5.942  -5.941  -5.939  -5.935  -5.933  -5.929
 -5.928  -5.925  -5.925  -5.920  -1.047  -1.029  -0.968  -0.963
 -0.949  -0.945  -0.941  -0.926  -0.916  -0.912  -0.905  -0.892
 -0.847  -0.838  -0.833  -0.823  -0.817  -0.808  -0.806  -0.802
 -0.797  -0.795  -0.794  -0.789  -0.786  -0.777  -0.768  -0.762
 -0.754  -0.745  -0.739  -0.736  -0.728  -0.714  -0.713  -0.704
 -0.695  -0.687  -0.677  -0.672  -0.662  -0.655  -0.646  -0.645
 -0.635  -0.630  -0.628  -0.618  -0.613  -0.604  -0.597  -0.592
 -0.591  -0.587  -0.586  -0.584  -0.583  -0.581  -0.571  -0.565
 -0.551  -0.544  -0.541  -0.537  -0.521  -0.519  -0.509  -0.507
 -0.505  -0.498  -0.497  -0.495  -0.489  -0.486  -0.482  -0.476
 -0.474  -0.471  -0.470  -0.469  -0.467  -0.456  -0.455  -0.451
 -0.447  -0.440  -0.436  -0.434  -0.433  -0.433  -0.430  -0.428
 -0.428  -0.425  -0.421  -0.420  -0.419  -0.416  -0.415  -0.411
 -0.408  -0.406  -0.405  -0.402  -0.400  -0.398  -0.397  -0.393
 -0.393  -0.392  -0.392  -0.392  -0.386  -0.384  -0.384  -0.380
 -0.379  -0.378  -0.377  -0.374  -0.373  -0.367  -0.362  -0.355
 -0.354  -0.352  -0.351  -0.349  -0.347  -0.345  -0.344  -0.343
 -0.340  -0.339  -0.334  -0.333  -0.332  -0.329  -0.327  -0.320
 -0.314  -0.314  -0.312  -0.311  -0.306  -0.302  -0.298  -0.297
 -0.294  -0.293  -0.286  -0.286  -0.285  -0.284  -0.282  -0.275
 -0.272  -0.271  -0.265  -0.260  -0.251  -0.250  -0.249  -0.247
 -0.245  -0.236  -0.234  -0.226  -0.196  -0.191

          Ground-State Mulliken Net Atomic Charges

     Atom                 Charge (a.u.)
  ----------------------------------------
      1 C                     0.274740
      2 C                    -0.112039
      3 N                    -0.496305
      4 C                    -0.100858
      5 C                     0.093653
      6 C                     0.049022
      7 C                     0.008057
      8 C                     0.070308
      9 C                     0.232075
     10 N                    -0.532562
     11 N                    -0.565138
     12 C                     0.185104
     13 C                     0.341901
     14 S                     0.616805
     15 N                    -0.567921
     16 C                    -0.219334
     17 S                     0.324111
     18 C                    -0.100190
     19 C                    -0.215324
     20 S                     0.287136
     21 C                     0.126347
     22 C                     0.061510
     23 C                    -0.305129
     24 C                    -0.053074
     25 N                    -0.445437
     26 S                     0.274999
     27 C                     0.111965
     28 C                    -0.306398
     29 C                    -0.240821
     30 H                     0.098024
     31 H                     0.095806
     32 H                     0.119287
     33 H                     0.116029
     34 H                     0.129528
     35 H                     0.130160
     36 H                     0.125692
     37 H                     0.135406
     38 H                     0.119761
     39 C                    -0.189153
     40 H                     0.130622
     41 H                     0.097665
     42 H                     0.105172
     43 C                    -0.189182
     44 H                     0.093032
     45 C                    -0.179134
     46 H                     0.101424
     47 H                     0.086784
     48 H                     0.089951
     49 C                    -0.177884
     50 H                     0.092473
     51 C                    -0.327416
     52 H                     0.098354
     53 H                     0.105279
     54 H                     0.107383
     55 H                     0.107058
     56 C                     0.240923
     57 C                    -0.121153
     58 N                    -0.468465
     59 C                    -0.065812
     60 C                     0.063996
     61 C                     0.039351
     62 C                     0.035717
     63 C                     0.058404
     64 C                     0.245202
     65 N                    -0.517505
     66 N                    -0.574579
     67 C                     0.174522
     68 C                     0.286898
     69 S                     0.615798
     70 N                    -0.529756
     71 C                    -0.213188
     72 S                     0.314159
     73 C                    -0.093172
     74 C                    -0.256801
     75 S                     0.291766
     76 C                     0.140827
     77 C                     0.074204
     78 C                    -0.311227
     79 C                    -0.048437
     80 N                    -0.417781
     81 S                     0.255730
     82 C                     0.120949
     83 C                    -0.309745
     84 C                    -0.210607
     85 H                     0.094679
     86 H                     0.130234
     87 H                     0.089687
     88 H                     0.129242
     89 H                     0.117329
     90 H                     0.111294
     91 H                     0.118482
     92 H                     0.127146
     93 H                     0.099112
     94 C                    -0.182152
     95 H                     0.113442
     96 H                     0.100470
     97 H                     0.106425
     98 C                    -0.186539
     99 H                     0.102611
    100 C                    -0.168011
    101 H                     0.088906
    102 H                     0.095650
    103 H                     0.090559
    104 C                    -0.178968
    105 H                     0.093307
    106 C                    -0.323168
    107 H                     0.087829
    108 H                     0.101107
    109 H                     0.098904
    110 H                     0.102878
  ----------------------------------------
  Sum of atomic charges =     0.000000

                    Cartesian Multipole Moments
 -----------------------------------------------------------------
    Charge (ESU x 10^10)
                 0.0000
    Dipole Moment (Debye)
         X       0.6059      Y      -0.6943      Z      -2.6266
       Tot       2.7835
    Quadrupole Moments (Debye-Ang)
        XX    -414.7801     XY       7.3613     YY    -419.8915
        XZ      39.5234     YZ      -9.5110     ZZ    -439.3338

 Total job time:  89.37s(wall), 965.22s(cpu)
        *  Thank you very much for using Q-Chem.  Have a nice day.  *
