 Q-Chem 4.4, Q-Chem, Inc., Pleasanton, CA (2016)
 Q-Chem 4.4.2 for Intel X86 Linux

User input:
--------------------------------------------------------------
$comment
SP
$end

$rem
MEM_STATIC 5000
MEM_TOTAL 20000
JOBTYPE SP
EXCHANGE B3LYP
BASIS 6-31g(d,p)
$end

$molecule
0 1
C         -23.622000     19.294000     -9.005000
C         -22.560000     19.876000     -8.295000
N         -23.870000     17.977000     -8.814000
C         -21.838000     19.123000     -7.364000
C         -23.086000     17.219000     -8.008000
C         -22.033000     17.762000     -7.214000
C         -21.262000     16.912000     -6.220000
C         -21.182000     15.527000     -6.525000
C         -20.546000     17.309000     -5.024000
N         -20.483000     14.626000     -5.772000
N         -20.459000     18.558000     -4.532000
C         -19.860000     16.366000     -4.239000
C         -19.878000     14.977000     -4.609000
S         -19.523000     18.470000     -3.268000
N         -19.108000     16.892000     -3.209000
C         -19.181000     13.857000     -3.960000
S         -18.814000     12.257000     -4.690000
C         -18.869000     13.707000     -2.596000
C         -18.150000     11.603000     -3.216000
S         -19.395000     14.667000     -1.253000
C         -18.411000     12.447000     -2.189000
C         -17.832000     10.290000     -2.932000
C         -18.945000     13.357000     -0.133000
C         -18.429000     12.230000     -0.752000
N         -18.550000      9.323000     -3.485000
S         -16.515000      9.707000     -1.851000
C         -18.164000      8.103000     -2.961000
C         -17.197000      8.146000     -1.976000
C         -24.580000     20.131000     -9.799000
H         -22.418000     20.949000     -8.384000
H         -20.955000     19.600000     -6.949000
H         -23.366000     16.167000     -7.994000
H         -21.732000     15.166000     -7.393000
H         -19.064000     13.544000      0.926000
H         -18.108000     11.332000     -0.237000
H         -18.693000      7.201000     -3.235000
H         -16.723000      7.420000     -1.328000
H         -24.004000     21.043000    -10.002000
C         -25.909000     20.508000     -8.976000
H         -24.692000     19.589000    -10.746000
H         -25.637000     21.240000     -8.206000
H         -26.295000     19.586000     -8.523000
C         -26.896000     21.209000     -9.988000
H         -26.459000     22.143000    -10.364000
C         -28.203000     21.588000     -9.130000
H         -27.178000     20.532000    -10.803000
H         -27.948000     22.072000     -8.179000
H         -28.792000     20.733000     -8.774000
C         -29.045000     22.754000     -9.780000
H         -28.401000     23.632000     -9.914000
C         -30.240000     23.165000     -8.858000
H         -29.480000     22.359000    -10.706000
H         -30.868000     22.283000     -8.678000
H         -30.865000     23.977000     -9.251000
H         -29.831000     23.487000     -7.892000
C         -16.388000     26.461000      0.239000
C         -17.492000     25.694000      0.533000
N         -15.144000     25.939000      0.062000
C         -17.364000     24.284000      0.485000
C         -15.116000     24.583000     -0.069000
C         -16.145000     23.667000      0.117000
C         -16.080000     22.202000     -0.155000
C         -16.687000     21.259000      0.727000
C         -15.336000     21.597000     -1.237000
N         -16.586000     19.930000      0.648000
N         -14.613000     22.262000     -2.061000
C         -15.208000     20.212000     -1.422000
C         -15.886000     19.367000     -0.418000
S         -13.860000     21.135000     -2.936000
N         -14.364000     19.794000     -2.324000
C         -15.842000     17.909000     -0.462000
S         -15.513000     17.061000     -1.990000
C         -16.330000     16.988000      0.415000
C         -15.656000     15.477000     -1.199000
S         -16.971000     17.317000      1.976000
C         -16.078000     15.664000      0.057000
C         -15.319000     14.163000     -1.770000
C         -17.015000     15.565000      2.188000
C         -16.415000     14.848000      1.121000
N         -15.444000     14.132000     -3.095000
S         -14.484000     12.867000     -0.893000
C         -14.740000     12.965000     -3.455000
C         -14.218000     12.252000     -2.462000
C         -16.424000     27.974000      0.148000
H         -18.467000     26.151000      0.672000
H         -18.269000     23.698000      0.612000
H         -14.177000     24.138000     -0.397000
H         -17.330000     21.626000      1.526000
H         -17.370000     15.161000      3.127000
H         -16.350000     13.768000      1.049000
H         -14.705000     12.657000     -4.492000
H         -13.695000     11.305000     -2.439000
H         -15.619000     28.266000     -0.538000
C         -16.040000     28.615000      1.388000
H         -17.370000     28.329000     -0.278000
H         -15.855000     29.680000      1.203000
H         -15.113000     28.166000      1.764000
C         -17.142000     28.506000      2.520000
H         -18.105000     28.903000      2.175000
C         -16.665000     29.324000      3.740000
H         -17.272000     27.461000      2.825000
H         -16.428000     30.347000      3.420000
H         -15.747000     28.880000      4.144000
C         -17.703000     29.266000      4.920000
H         -17.806000     28.217000      5.221000
C         -19.103000     29.931000      4.848000
H         -17.275000     29.738000      5.813000
H         -19.683000     29.972000      5.778000
H         -19.692000     29.424000      4.074000
H         -19.036000     31.006000      4.639000
$end

--------------------------------------------------------------

             Standard Nuclear Orientation (Angstroms)
    I     Atom           X                Y                Z
 ----------------------------------------------------------------
    1      C       1.1965063179    -8.0902110754    -1.3708405700
    2      C       0.3608848500    -7.0049056721    -1.6782766509
    3      N       2.4136945730    -7.8267239025    -0.8402736454
    4      C       0.7571409277    -5.7002884382    -1.3684234695
    5      C       2.8470558034    -6.5543434472    -0.6611032775
    6      C       2.0246635651    -5.4129304037    -0.8954988204
    7      C       2.4916401106    -4.0085657692    -0.5568694075
    8      C       3.8963791163    -3.8008902415    -0.5919293707
    9      C       1.7139284307    -2.8245725011    -0.2502662699
   10      N       4.4874611779    -2.5891682556    -0.3688535418
   11      N       0.3727336363    -2.7578199463    -0.1704250519
   12      C       2.3365935357    -1.5918103535     0.0117559703
   13      C       3.7708833122    -1.4962214071    -0.0030963154
   14      S       0.0226248199    -1.2495832583     0.1197161371
   15      N       1.4819634529    -0.5181286582     0.1528057442
   16      C       4.6014126552    -0.2976763889     0.1843092601
   17      S       6.3159340810    -0.0947826825    -0.3125201113
   18      C       4.3239115032     0.8307027894     0.9780935762
   19      C       6.4628239182     1.4860375716     0.4090883004
   20      S       3.0512831019     1.0563925704     2.1319592855
   21      C       5.3751622770     1.7352596153     1.1772461795
   22      C       7.6102109908     2.2230834680     0.6235999605
   23      C       3.9420999594     2.4180987419     2.8566672467
   24      C       5.1628019052     2.6839081760     2.2576863586
   25      N       8.7435188791     1.5846922739     0.8775525414
   26      S       7.7596736815     4.0176365686     0.6102181336
   27      C       9.7273092115     2.5004483844     1.2023899284
   28      C       9.3317880445     3.8227795506     1.2489333847
   29      C       0.6962043511    -9.5023100252    -1.4375001378
   30      H      -0.6461775373    -7.2215825754    -2.0222104639
   31      H       0.1202608347    -4.9070343163    -1.7486531965
   32      H       3.8654914492    -6.4916244062    -0.2814255755
   33      H       4.5323912880    -4.6644986140    -0.7814395196
   34      H       3.4619662538     2.9539481892     3.6647192219
   35      H       5.8465680784     3.4667863182     2.5646645906
   36      H      10.7040237567     2.1612090582     1.5177728334
   37      H       9.8021035368     4.7596796386     1.5185211494
   38      H      -0.1536660748    -9.4325271230    -2.1285714842
   39      C       0.1868046284   -10.0513286432    -0.0145491620
   40      H       1.4979664200   -10.0494623954    -1.9483023193
   41      H      -0.7553292388    -9.5454054843     0.2286247131
   42      H       0.9600323979    -9.8210523817     0.7293464354
   43      C      -0.1179989067   -11.5889749399    -0.1946954112
   44      H      -0.9287002124   -11.7360773433    -0.9198335193
   45      C      -0.6410563028   -12.1002030793     1.2381726044
   46      H       0.7855330838   -12.1442577641    -0.4728481164
   47      H      -1.3984658484   -11.4311709076     1.6652659590
   48      H       0.1105626352   -12.0968862102     2.0380100694
   49      C      -1.5052340664   -13.4172401046     1.1400386819
   50      H      -2.3475282274   -13.2455037204     0.4584059650
   51      C      -2.0852137496   -13.8136380169     2.5377232895
   52      H      -0.8276965125   -14.2246479371     0.8371171494
   53      H      -1.2536630474   -13.9435578305     3.2422460156
   54      H      -2.7018391659   -14.7214875636     2.5382678483
   55      H      -2.7030526145   -12.9820342339     2.8994293651
   56      C      -8.8399691356     1.2985320696    -0.8523392398
   57      C      -8.1188606867     0.8626499707     0.2355717863
   58      N      -8.3755135796     2.2292261790    -1.7295156824
   59      C      -6.7687802732     1.2742028735     0.3567950731
   60      C      -7.0457954536     2.5015359524    -1.6096069975
   61      C      -6.1561063203     2.0892392888    -0.6242351350
   62      C      -4.6836971105     2.3264931971    -0.6117570832
   63      C      -4.0008560317     2.6707856584     0.5927398085
   64      C      -3.8409705080     2.3383317846    -1.7864726749
   65      N      -2.7171081072     3.0229262271     0.6960417266
   66      N      -4.2835866384     2.1844973127    -2.9799365061
   67      C      -2.4746390223     2.6571185569    -1.7678376315
   68      C      -1.9161082136     3.0021958159    -0.4447011983
   69      S      -3.0041959578     2.4625784775    -3.9225888027
   70      N      -1.8697944649     2.8100556330    -2.9130176664
   71      C      -0.5156644297     3.3664166428    -0.2556604690
   72      S       0.7177795017     2.8514474398    -1.4284996686
   73      C       0.1395063364     3.7895332453     0.8611374572
   74      C       2.0068306246     3.6371988165    -0.4924825871
   75      S      -0.5872241688     4.2242256400     2.3573821882
   76      C       1.4897960826     4.0750015701     0.6614641323
   77      C       3.4040982291     3.8479993213    -0.9040799491
   78      C       1.0247301680     4.7581585939     2.8399822470
   79      C       1.9797511130     4.7013346185     1.7924689867
   80      N       3.8300071849     2.9262902809    -1.7650474318
   81      S       4.3263092534     5.3354551531    -0.6160313852
   82      C       5.0001822483     3.5037801948    -2.2982460070
   83      C       5.3538418340     4.6908075571    -1.8157598015
   84      C     -10.2539079029     0.8412842868    -1.1530843597
   85      H      -8.5286259059     0.1215686543     0.9150465449
   86      H      -6.1850577559     0.8342808202     1.1594697331
   87      H      -6.5896959104     3.0937449638    -2.4024447448
   88      H      -4.5406819992     2.6129706407     1.5370831510
   89      H       1.1595525542     5.1906093775     3.8227188566
   90      H       3.0264302744     4.9700233801     1.8823471408
   91      H       5.5950357553     2.9499868524    -3.0130328557
   92      H       6.2144970912     5.3231605204    -1.9897404269
   93      H     -10.3867763213     0.9269392050    -2.2388533123
   94      C     -11.2544735286     1.7490179431    -0.6326758299
   95      H     -10.4030206213    -0.2104683706    -0.8810572563
   96      H     -12.2287553476     1.5052188144    -1.0731436744
   97      H     -10.9997728446     2.7784001690    -0.9116127307
   98      C     -11.4063282509     1.6819683749     0.9421744800
   99      H     -11.6180402468     0.6585665346     1.2765839657
  100      C     -12.5762259580     2.6017050269     1.3550628985
  101      H     -10.4900085952     2.0370863232     1.4281781129
  102      H     -13.4745019500     2.3211310151     0.7898404059
  103      H     -12.3338722174     3.6409415511     1.1014330282
  104      C     -12.7951539772     2.5994256162     2.9123918062
  105      H     -11.8756980013     2.9728350873     3.3779850572
  106      C     -13.3124383029     1.3614661153     3.6916749385
  107      H     -13.5359935620     3.3618349377     3.1831421268
  108      H     -13.5839931596     1.5131634745     4.7434481417
  109      H     -12.5620164957     0.5646483529     3.6210027032
  110      H     -14.2811513145     1.0133514627     3.3119299058
 ----------------------------------------------------------------

    9   -5663.4765159084      8.95E-06 Convergence criterion met
 Total energy in the final basis set = -5663.4765159084

                    Orbital Energies (a.u.)
 --------------------------------------------------------------

 Alpha MOs
 -- Occupied --
-88.987 -88.984 -88.932 -88.924 -88.919 -88.917 -88.914 -88.903
-14.391 -14.388 -14.382 -14.378 -14.353 -14.350 -14.344 -14.344
-14.333 -14.326 -10.271 -10.268 -10.264 -10.263 -10.261 -10.259
-10.259 -10.254 -10.241 -10.240 -10.237 -10.235 -10.235 -10.231
-10.229 -10.229 -10.229 -10.227 -10.227 -10.227 -10.226 -10.226
-10.226 -10.226 -10.224 -10.224 -10.224 -10.223 -10.217 -10.216
-10.215 -10.206 -10.204 -10.204 -10.202 -10.199 -10.198 -10.193
-10.192 -10.189 -10.187 -10.181 -10.180 -10.180 -10.179 -10.177
-10.176 -10.176 -10.173 -10.172  -8.044  -8.042  -7.993  -7.985
 -7.977  -7.976  -7.974  -7.964  -6.009  -6.007  -6.003  -6.002
 -6.002  -6.000  -5.957  -5.954  -5.950  -5.949  -5.946  -5.942
 -5.942  -5.941  -5.938  -5.938  -5.937  -5.935  -5.934  -5.933
 -5.931  -5.928  -5.925  -5.920  -1.078  -1.047  -0.969  -0.967
 -0.949  -0.945  -0.942  -0.935  -0.931  -0.919  -0.911  -0.906
 -0.845  -0.841  -0.831  -0.827  -0.820  -0.812  -0.810  -0.809
 -0.805  -0.798  -0.798  -0.794  -0.780  -0.780  -0.766  -0.765
 -0.750  -0.743  -0.742  -0.736  -0.720  -0.718  -0.713  -0.707
 -0.699  -0.688  -0.676  -0.670  -0.654  -0.648  -0.646  -0.646
 -0.637  -0.636  -0.628  -0.622  -0.612  -0.605  -0.601  -0.596
 -0.594  -0.590  -0.585  -0.582  -0.578  -0.573  -0.573  -0.564
 -0.553  -0.547  -0.547  -0.538  -0.530  -0.523  -0.520  -0.520
 -0.510  -0.507  -0.500  -0.495  -0.493  -0.484  -0.484  -0.477
 -0.474  -0.472  -0.469  -0.467  -0.459  -0.457  -0.448  -0.447
 -0.443  -0.442  -0.441  -0.439  -0.434  -0.432  -0.431  -0.430
 -0.429  -0.422  -0.421  -0.420  -0.419  -0.418  -0.414  -0.412
 -0.409  -0.407  -0.403  -0.399  -0.397  -0.396  -0.395  -0.393
 -0.393  -0.389  -0.387  -0.386  -0.385  -0.384  -0.382  -0.380
 -0.379  -0.377  -0.373  -0.371  -0.364  -0.363  -0.363  -0.361
 -0.356  -0.356  -0.355  -0.352  -0.352  -0.344  -0.342  -0.340
 -0.340  -0.339  -0.335  -0.333  -0.332  -0.330  -0.326  -0.323
 -0.318  -0.316  -0.314  -0.313  -0.307  -0.303  -0.302  -0.297
 -0.296  -0.294  -0.293  -0.292  -0.289  -0.284  -0.283  -0.280
 -0.276  -0.270  -0.266  -0.264  -0.259  -0.258  -0.248  -0.243
 -0.242  -0.237  -0.233  -0.230  -0.196  -0.191

          Ground-State Mulliken Net Atomic Charges

     Atom                 Charge (a.u.)
  ----------------------------------------
      1 C                     0.260625
      2 C                    -0.121063
      3 N                    -0.491463
      4 C                    -0.078768
      5 C                     0.063950
      6 C                     0.046597
      7 C                     0.059946
      8 C                     0.062629
      9 C                     0.214198
     10 N                    -0.529763
     11 N                    -0.530787
     12 C                     0.183681
     13 C                     0.289874
     14 S                     0.611495
     15 N                    -0.534610
     16 C                    -0.204838
     17 S                     0.346405
     18 C                    -0.107920
     19 C                    -0.194773
     20 S                     0.278096
     21 C                     0.099974
     22 C                     0.014190
     23 C                    -0.315551
     24 C                    -0.048970
     25 N                    -0.403727
     26 S                     0.255101
     27 C                     0.110350
     28 C                    -0.309083
     29 C                    -0.225168
     30 H                     0.083029
     31 H                     0.108627
     32 H                     0.105164
     33 H                     0.116675
     34 H                     0.129104
     35 H                     0.118686
     36 H                     0.112117
     37 H                     0.138378
     38 H                     0.092971
     39 C                    -0.173124
     40 H                     0.117136
     41 H                     0.102822
     42 H                     0.122427
     43 C                    -0.175952
     44 H                     0.098333
     45 C                    -0.185833
     46 H                     0.106331
     47 H                     0.087884
     48 H                     0.094697
     49 C                    -0.181411
     50 H                     0.094520
     51 C                    -0.321657
     52 H                     0.095546
     53 H                     0.103381
     54 H                     0.100273
     55 H                     0.098846
     56 C                     0.259463
     57 C                    -0.100564
     58 N                    -0.482325
     59 C                    -0.101065
     60 C                     0.075078
     61 C                     0.066152
     62 C                     0.032519
     63 C                     0.064846
     64 C                     0.227109
     65 N                    -0.520629
     66 N                    -0.536857
     67 C                     0.176187
     68 C                     0.283564
     69 S                     0.580329
     70 N                    -0.501975
     71 C                    -0.230021
     72 S                     0.337893
     73 C                    -0.127202
     74 C                    -0.224035
     75 S                     0.299294
     76 C                     0.217843
     77 C                     0.044246
     78 C                    -0.316500
     79 C                    -0.100295
     80 N                    -0.414493
     81 S                     0.282080
     82 C                     0.112685
     83 C                    -0.293648
     84 C                    -0.220296
     85 H                     0.094913
     86 H                     0.096098
     87 H                     0.105232
     88 H                     0.106941
     89 H                     0.121870
     90 H                     0.102617
     91 H                     0.117576
     92 H                     0.138446
     93 H                     0.116497
     94 C                    -0.172288
     95 H                     0.092447
     96 H                     0.090331
     97 H                     0.114019
     98 C                    -0.179641
     99 H                     0.089379
    100 C                    -0.172635
    101 H                     0.095677
    102 H                     0.090048
    103 H                     0.097006
    104 C                    -0.183221
    105 H                     0.091084
    106 C                    -0.321762
    107 H                     0.086837
    108 H                     0.103483
    109 H                     0.099638
    110 H                     0.100431
  ----------------------------------------
  Sum of atomic charges =     0.000000

                    Cartesian Multipole Moments
 -----------------------------------------------------------------
    Charge (ESU x 10^10)
                 0.0000
    Dipole Moment (Debye)
         X      -0.0234      Y       2.7281      Z       1.8515
       Tot       3.2971
    Quadrupole Moments (Debye-Ang)
        XX    -433.8216     XY      56.0369     YY    -425.5002
        XZ      -3.9558     YZ      13.6147     ZZ    -439.0149

 Total job time:  96.54s(wall), 1037.86s(cpu)
        *  Thank you very much for using Q-Chem.  Have a nice day.  *
