 Q-Chem 4.4, Q-Chem, Inc., Pleasanton, CA (2016)
 Q-Chem 4.4.2 for Intel X86 Linux

User input:
--------------------------------------------------------------
$comment
SP
$end

$rem
MEM_STATIC 5000
MEM_TOTAL 20000
JOBTYPE SP
EXCHANGE B3LYP
BASIS 6-31g(d,p)
$end

$molecule
0 1
C          -4.127000    -26.955000      7.536000
C          -2.914000    -27.197000      6.894000
N          -4.302000    -26.158000      8.598000
C          -1.778000    -26.708000      7.521000
C          -3.180000    -25.644000      9.149000
C          -1.835000    -25.916000      8.691000
C          -0.643000    -25.471000      9.449000
C           0.481000    -26.373000      9.385000
C          -0.469000    -24.381000     10.318000
N           1.622000    -26.179000     10.076000
N          -1.424000    -23.403000     10.425000
C           0.752000    -24.158000     11.029000
C           1.803000    -25.130000     10.947000
S          -0.741000    -22.268000     11.375000
N           0.771000    -22.981000     11.677000
C           3.133000    -25.072000     11.547000
S           3.570000    -23.777000     12.725000
C           4.258000    -25.819000     11.156000
C           5.263000    -24.331000     12.619000
S           4.570000    -26.785000      9.726000
C           5.475000    -25.305000     11.663000
C           6.325000    -23.389000     12.794000
C           6.337000    -26.650000      9.959000
C           6.577000    -25.810000     11.034000
N           6.097000    -22.183000     12.323000
S           7.851000    -23.725000     13.467000
C           7.235000    -21.476000     12.348000
C           8.299000    -22.069000     12.956000
C          -5.403000    -27.657000      7.105000
H          -2.881000    -27.858000      6.033000
H          -0.811000    -27.013000      7.131000
H          -3.377000    -24.928000      9.946000
H           0.446000    -27.358000      8.921000
H           6.975000    -27.106000      9.213000
H           7.577000    -25.451000     11.246000
H           7.288000    -20.602000     11.712000
H           9.300000    -21.713000     13.166000
H          -6.127000    -26.918000      6.741000
C          -6.046000    -28.388000      8.338000
H          -5.277000    -28.313000      6.235000
H          -6.148000    -27.637000      9.132000
H          -5.359000    -29.117000      8.785000
C          -7.240000    -29.218000      7.912000
H          -8.084000    -28.570000      7.643000
C          -7.634000    -30.188000      9.013000
H          -6.906000    -29.804000      7.046000
H          -6.890000    -30.964000      9.228000
H          -8.507000    -30.629000      8.516000
C          -8.180000    -29.453000     10.286000
H          -8.741000    -30.252000     10.786000
C          -9.106000    -28.231000     10.032000
H          -7.385000    -29.286000     11.024000
H          -8.614000    -27.445000      9.446000
H          -9.509000    -27.691000     10.897000
H          -9.948000    -28.528000      9.394000
C          -4.499000    -15.400000      6.977000
C          -4.712000    -16.581000      6.288000
N          -3.566000    -15.339000      7.970000
C          -4.054000    -17.791000      6.685000
C          -2.902000    -16.474000      8.292000
C          -3.005000    -17.729000      7.616000
C          -2.133000    -18.923000      7.830000
C          -0.752000    -18.737000      8.239000
C          -2.533000    -20.288000      7.589000
N           0.085000    -19.796000      8.351000
N          -3.771000    -20.688000      7.294000
C          -1.622000    -21.351000      7.681000
C          -0.311000    -21.071000      8.081000
S          -3.679000    -22.316000      7.132000
N          -2.157000    -22.592000      7.513000
C           0.787000    -22.121000      8.075000
S           0.801000    -23.644000      7.176000
C           2.025000    -21.954000      8.655000
C           2.405000    -24.110000      7.691000
S           2.549000    -20.626000      9.565000
C           2.899000    -23.029000      8.455000
C           3.284000    -24.996000      6.932000
C           4.137000    -21.442000      9.625000
C           4.190000    -22.689000      8.994000
N           4.544000    -24.658000      6.785000
S           2.880000    -26.671000      6.586000
C           5.266000    -25.626000      6.174000
C           4.480000    -26.739000      5.790000
C          -5.100000    -14.058000      6.603000
H          -5.368000    -16.648000      5.425000
H          -4.254000    -18.634000      6.031000
H          -2.067000    -16.382000      8.985000
H          -0.262000    -17.779000      8.408000
H           5.004000    -20.968000     10.065000
H           5.046000    -23.353000      9.038000
H           6.316000    -25.547000      5.926000
H           4.792000    -27.585000      5.193000
H          -6.109000    -14.272000      6.230000
C          -4.228000    -13.366000      5.510000
H          -5.308000    -13.464000      7.502000
H          -4.090000    -14.033000      4.650000
H          -3.189000    -13.372000      5.860000
C          -4.597000    -11.924000      5.264000
H          -4.623000    -11.423000      6.240000
C          -6.066000    -11.822000      4.696000
H          -3.856000    -11.360000      4.686000
H          -6.765000    -12.094000      5.496000
H          -6.244000    -12.413000      3.789000
C          -6.462000    -10.384000      4.250000
H          -6.100000     -9.617000      4.946000
C          -7.947000    -10.184000      3.993000
H          -5.877000    -10.281000      3.327000
H          -8.465000    -10.738000      3.199000
H          -8.171000     -9.166000      3.649000
H          -8.508000    -10.332000      4.924000
$end

--------------------------------------------------------------

             Standard Nuclear Orientation (Angstroms)
    I     Atom           X                Y                Z
 ----------------------------------------------------------------
    1      C      -0.0543622750     5.9705145208     0.7407920070
    2      C       0.7191527413     5.3564672870     1.7240099453
    3      N      -0.3944290546     5.4284351649    -0.4357208732
    4      C       1.3255091988     4.1602597986     1.3716387049
    5      C       0.1624572191     4.2310898010    -0.7236839918
    6      C       1.0997015079     3.5297479807     0.1262958870
    7      C       1.8130319675     2.3139558515    -0.3280851800
    8      C       3.1557224809     2.1791829515     0.1819093793
    9      C       1.4443073406     1.3378051196    -1.2686748346
   10      N       3.9871248328     1.1836839818    -0.1851736227
   11      N       0.1743344721     1.2968770313    -1.7838949863
   12      C       2.3148089945     0.2641327948    -1.6368400277
   13      C       3.6517560436     0.2316645644    -1.1195128567
   14      S       0.1360236113    -0.0731278483    -2.6664100898
   15      N       1.7168208902    -0.6459206618    -2.4241182081
   16      C       4.6738335114    -0.7903566960    -1.3271042656
   17      S       4.4322593560    -2.1236883290    -2.5185515720
   18      C       5.8116478875    -1.0064374060    -0.5301082979
   19      C       5.8999225623    -2.8986187163    -1.8629231654
   20      S       6.2465624949    -0.4059900220     1.0591406515
   21      C       6.4180220792    -2.2659374838    -0.7498897657
   22      C       6.0094839203    -4.3246856709    -1.8756648209
   23      C       7.3935246634    -1.7537727187     1.3096652740
   24      C       7.3024277931    -2.6166404468     0.2298571225
   25      N       4.8886340462    -4.9816345411    -1.6747301508
   26      S       7.4535774846    -5.2093461734    -2.0383626168
   27      C       5.1641140738    -6.2796912469    -1.4885110784
   28      C       6.4591324054    -6.6537597780    -1.6793231714
   29      C      -0.5477661910     7.3980269056     0.9004853600
   30      H       0.9330161530     5.8823376152     2.6497819685
   31      H       2.0559815965     3.7394566273     2.0568749907
   32      H      -0.2170314721     3.7860895257    -1.6427253881
   33      H       3.6672890770     2.9469638899     0.7611831043
   34      H       7.9018913872    -1.8056033188     2.2637998888
   35      H       7.7820374274    -3.5878605827     0.2529015638
   36      H       4.4067588110    -6.8809684355    -1.0026512752
   37      H       6.9408540265    -7.6233587452    -1.6536497905
   38      H      -1.6439625180     7.4092058887     0.9324485109
   39      C      -0.0975832296     8.2540804241    -0.3374995651
   40      H      -0.2785453325     7.8563933932     1.8599291011
   41      H      -0.4391451939     7.7182811010    -1.2325389552
   42      H       0.9924684174     8.2540014652    -0.4600001799
   43      C      -0.4474436354     9.7151584128    -0.1403681182
   44      H      -1.5317783692     9.8660468644    -0.2181618213
   45      C       0.2913001261    10.5799605918    -1.1476971836
   46      H      -0.0874279153     9.9784828382     0.8626059235
   47      H       1.3808837524    10.5947422168    -1.0271732236
   48      H      -0.1345543035    11.5470306436    -0.8526674908
   49      C      -0.1876227239    10.3211879596    -2.6182547746
   50      H       0.1409910979    11.2351961815    -3.1278859418
   51      C      -1.7153061078    10.1191862507    -2.8198851002
   52      H       0.4476872982     9.5815817555    -3.1221613518
   53      H      -2.1067452781     9.2703020040    -2.2459278618
   54      H      -2.0897199327     9.9367497446    -3.8341657364
   55      H      -2.2622021210    10.9749760534    -2.4042583875
   56      C      -8.3946967160    -1.9455769723    -0.5795135961
   57      C      -7.9347352130    -0.8938516364     0.1932478378
   58      N      -7.5180197662    -2.7290075315    -1.2708406421
   59      C      -6.5491619936    -0.5267670684     0.1828183822
   60      C      -6.2026744989    -2.4126740718    -1.2198017340
   61      C      -5.6152543545    -1.3860514139    -0.4175589452
   62      C      -4.1546328213    -1.1627416665    -0.1972557600
   63      C      -3.2445679083    -2.2940340153    -0.2288385986
   64      C      -3.5562217496     0.1094598906     0.1263387196
   65      N      -1.9306379182    -2.1331829190     0.0580566889
   66      N      -4.1903338275     1.2831513687     0.1219584291
   67      C      -2.1966683180     0.2234454841     0.4534101969
   68      C      -1.4001052341    -0.9252007456     0.3966643376
   69      S      -3.0621293297     2.3927832362     0.5473567482
   70      N      -1.7504450670     1.4947446130     0.6514337689
   71      C       0.0444892234    -0.9417808682     0.8667834213
   72      S       0.8254271842     0.2144308993     1.9536303516
   73      C       0.9248867911    -1.9755140802     0.6360698130
   74      C       2.3623237522    -0.6176338794     1.9821635479
   75      S       0.6368986107    -3.3685547624    -0.2819500484
   76      C       2.1795808865    -1.8006697182     1.2316142496
   77      C       3.3210639404    -0.5299926321     3.0807327370
   78      C       2.2651670651    -3.8989425939     0.2266073118
   79      C       2.9639481310    -2.9907409326     1.0283889306
   80      N       3.8781139217    -1.6346776924     3.5198446086
   81      S       4.0975677769     0.9752296411     3.5496727120
   82      C       4.8341526292    -1.3927872945     4.4467254127
   83      C       4.9610090101    -0.0181814901     4.7603929775
   84      C      -9.8261134960    -2.4484164819    -0.5949871096
   85      H      -8.5846152451    -0.3108652986     0.8392949520
   86      H      -6.3017859705     0.2721018551     0.8749011419
   87      H      -5.5031252119    -3.1226512797    -1.6585512746
   88      H      -3.5261680038    -3.3326204440    -0.3975531987
   89      H       2.6471226249    -4.8801442624    -0.0210178809
   90      H       3.9989121406    -3.1181373014     1.3253530095
   91      H       5.3992673470    -2.1576692589     4.9623279111
   92      H       5.5664191163     0.4210974302     5.5414061870
   93      H     -10.4599792734    -1.5595150669    -0.4897518935
   94      C     -10.0555839459    -3.4489049739     0.5798588760
   95      H     -10.0982544298    -2.8081796112    -1.5953924288
   96      H      -9.7678465771    -2.9919733486     1.5348215435
   97      H      -9.2579737584    -4.1999889602     0.5380517653
   98      C     -11.3632740891    -4.1961311506     0.4924487495
   99      H     -11.4278768490    -4.6234289907    -0.5162613373
  100      C     -12.5773171573    -3.1941271777     0.6068011297
  101      H     -11.4353250376    -5.0610985361     1.1617028737
  102      H     -12.6103715295    -2.5864668021    -0.3054714591
  103      H     -12.5649934008    -2.5669723791     1.5068783396
  104      C     -13.9608187784    -3.9015186244     0.7021772557
  105      H     -14.0361667391    -4.7629146606     0.0268487774
  106      C     -15.1582753466    -2.9864163754     0.5022781787
  107      H     -13.9245974252    -4.2982980763     1.7249270199
  108      H     -15.3619380861    -2.1591095290     1.1949259033
  109      H     -16.1090044389    -3.5238616277     0.6122908773
  110      H     -15.1453315610    -2.5750419134    -0.5145745690
 ----------------------------------------------------------------

   11   -5663.4802193264      5.02E-06 Convergence criterion met
 Total energy in the final basis set = -5663.4802193264

                    Orbital Energies (a.u.)
 --------------------------------------------------------------

 Alpha MOs
 -- Occupied --
-88.986 -88.981 -88.931 -88.924 -88.923 -88.916 -88.907 -88.899
-14.386 -14.384 -14.383 -14.377 -14.348 -14.343 -14.337 -14.336
-14.329 -14.328 -10.264 -10.263 -10.263 -10.260 -10.256 -10.256
-10.255 -10.250 -10.245 -10.244 -10.236 -10.235 -10.233 -10.232
-10.232 -10.231 -10.230 -10.230 -10.230 -10.230 -10.227 -10.227
-10.225 -10.225 -10.224 -10.223 -10.216 -10.216 -10.215 -10.210
-10.209 -10.208 -10.206 -10.201 -10.201 -10.196 -10.196 -10.186
-10.184 -10.181 -10.180 -10.180 -10.178 -10.176 -10.176 -10.174
-10.173 -10.171 -10.169 -10.169  -8.042  -8.036  -7.992  -7.983
 -7.982  -7.975  -7.967  -7.959  -6.007  -6.001  -6.001  -6.000
 -5.995  -5.993  -5.956  -5.953  -5.949  -5.947  -5.946  -5.944
 -5.943  -5.940  -5.940  -5.938  -5.936  -5.932  -5.931  -5.927
 -5.924  -5.923  -5.920  -5.915  -1.043  -1.020  -0.983  -0.966
 -0.948  -0.943  -0.938  -0.930  -0.910  -0.909  -0.903  -0.897
 -0.841  -0.835  -0.828  -0.824  -0.811  -0.806  -0.804  -0.802
 -0.800  -0.797  -0.793  -0.786  -0.779  -0.779  -0.762  -0.761
 -0.746  -0.745  -0.736  -0.734  -0.726  -0.710  -0.707  -0.703
 -0.689  -0.685  -0.670  -0.669  -0.655  -0.651  -0.646  -0.640
 -0.633  -0.629  -0.621  -0.619  -0.613  -0.604  -0.603  -0.601
 -0.592  -0.586  -0.586  -0.583  -0.574  -0.566  -0.564  -0.548
 -0.545  -0.542  -0.536  -0.536  -0.523  -0.518  -0.518  -0.504
 -0.504  -0.499  -0.496  -0.495  -0.488  -0.479  -0.473  -0.470
 -0.470  -0.469  -0.466  -0.464  -0.459  -0.458  -0.452  -0.448
 -0.447  -0.444  -0.437  -0.434  -0.433  -0.431  -0.429  -0.427
 -0.423  -0.421  -0.421  -0.417  -0.416  -0.412  -0.411  -0.409
 -0.405  -0.402  -0.401  -0.398  -0.394  -0.394  -0.391  -0.390
 -0.389  -0.389  -0.385  -0.383  -0.382  -0.381  -0.379  -0.378
 -0.376  -0.375  -0.372  -0.369  -0.367  -0.366  -0.357  -0.357
 -0.352  -0.351  -0.347  -0.345  -0.343  -0.341  -0.340  -0.338
 -0.337  -0.333  -0.332  -0.330  -0.327  -0.319  -0.318  -0.315
 -0.312  -0.310  -0.308  -0.308  -0.302  -0.297  -0.297  -0.293
 -0.292  -0.291  -0.289  -0.284  -0.283  -0.282  -0.280  -0.274
 -0.267  -0.266  -0.264  -0.260  -0.253  -0.251  -0.250  -0.243
 -0.242  -0.235  -0.227  -0.223  -0.190  -0.188

          Ground-State Mulliken Net Atomic Charges

     Atom                 Charge (a.u.)
  ----------------------------------------
      1 C                     0.271636
      2 C                    -0.118806
      3 N                    -0.483246
      4 C                    -0.089514
      5 C                     0.062478
      6 C                     0.067730
      7 C                     0.046169
      8 C                     0.048391
      9 C                     0.197054
     10 N                    -0.525787
     11 N                    -0.542854
     12 C                     0.249610
     13 C                     0.317647
     14 S                     0.599598
     15 N                    -0.587539
     16 C                    -0.212254
     17 S                     0.368611
     18 C                    -0.133619
     19 C                    -0.234193
     20 S                     0.299146
     21 C                     0.153471
     22 C                     0.023404
     23 C                    -0.325319
     24 C                    -0.060134
     25 N                    -0.392913
     26 S                     0.266828
     27 C                     0.131005
     28 C                    -0.317881
     29 C                    -0.228919
     30 H                     0.095573
     31 H                     0.097448
     32 H                     0.119232
     33 H                     0.120878
     34 H                     0.140533
     35 H                     0.105846
     36 H                     0.112080
     37 H                     0.131930
     38 H                     0.111437
     39 C                    -0.169392
     40 H                     0.083707
     41 H                     0.131545
     42 H                     0.083114
     43 C                    -0.173784
     44 H                     0.093275
     45 C                    -0.184721
     46 H                     0.083108
     47 H                     0.093229
     48 H                     0.087191
     49 C                    -0.174934
     50 H                     0.091968
     51 C                    -0.327856
     52 H                     0.097111
     53 H                     0.113083
     54 H                     0.103776
     55 H                     0.102067
     56 C                     0.242774
     57 C                    -0.119546
     58 N                    -0.465999
     59 C                    -0.071736
     60 C                     0.065523
     61 C                     0.045288
     62 C                     0.031714
     63 C                     0.055640
     64 C                     0.238885
     65 N                    -0.517505
     66 N                    -0.569699
     67 C                     0.188573
     68 C                     0.277758
     69 S                     0.618143
     70 N                    -0.521592
     71 C                    -0.223485
     72 S                     0.314571
     73 C                    -0.095562
     74 C                    -0.253530
     75 S                     0.289407
     76 C                     0.137144
     77 C                     0.082428
     78 C                    -0.285786
     79 C                    -0.055883
     80 N                    -0.415013
     81 S                     0.254115
     82 C                     0.117892
     83 C                    -0.315008
     84 C                    -0.212138
     85 H                     0.088996
     86 H                     0.112410
     87 H                     0.092090
     88 H                     0.127948
     89 H                     0.117647
     90 H                     0.118061
     91 H                     0.114332
     92 H                     0.124214
     93 H                     0.099454
     94 C                    -0.174090
     95 H                     0.114795
     96 H                     0.094257
     97 H                     0.106117
     98 C                    -0.184730
     99 H                     0.101274
    100 C                    -0.167068
    101 H                     0.091131
    102 H                     0.093592
    103 H                     0.091856
    104 C                    -0.179104
    105 H                     0.092154
    106 C                    -0.322536
    107 H                     0.091522
    108 H                     0.100757
    109 H                     0.098519
    110 H                     0.101785
  ----------------------------------------
  Sum of atomic charges =     0.000000

                    Cartesian Multipole Moments
 -----------------------------------------------------------------
    Charge (ESU x 10^10)
                 0.0000
    Dipole Moment (Debye)
         X       2.9533      Y      -0.5241      Z       3.6818
       Tot       4.7490
    Quadrupole Moments (Debye-Ang)
        XX    -408.8634     XY     -24.5852     YY    -421.0504
        XZ       7.2232     YZ       9.9139     ZZ    -438.1298

 Total job time:  135.80s(wall), 1443.13s(cpu)
        *  Thank you very much for using Q-Chem.  Have a nice day.  *
