 Q-Chem 4.4, Q-Chem, Inc., Pleasanton, CA (2016)
 Q-Chem 4.4.2 for Intel X86 Linux

User input:
--------------------------------------------------------------
$comment
SP
$end

$rem
MEM_STATIC 5000
MEM_TOTAL 20000
JOBTYPE SP
EXCHANGE B3LYP
BASIS 6-31g(d,p)
$end

$molecule
0 1
C           3.741000    -30.911000      1.263000
C           3.083000    -30.184000      2.182000
N           4.778000    -30.350000      0.610000
C           3.466000    -28.910000      2.533000
C           5.218000    -29.138000      0.985000
C           4.633000    -28.348000      2.055000
C           4.914000    -26.958000      2.437000
C           3.869000    -26.038000      2.676000
C           6.189000    -26.475000      2.520000
N           4.061000    -24.745000      2.996000
N           7.305000    -27.279000      2.408000
C           6.433000    -25.115000      2.828000
C           5.335000    -24.301000      3.037000
S           8.502000    -26.228000      2.548000
N           7.706000    -24.830000      2.885000
C           5.435000    -22.852000      3.360000
S           6.999000    -22.025000      3.360000
C           4.399000    -21.998000      3.801000
C           6.273000    -20.659000      4.131000
S           2.764000    -22.377000      4.217000
C           4.940000    -20.847000      4.290000
C           6.929000    -19.461000      4.583000
C           2.745000    -20.683000      5.007000
C           3.945000    -20.042000      4.927000
N           6.739000    -18.948000      5.766000
S           8.098000    -18.677000      3.551000
C           7.597000    -17.850000      5.956000
C           8.366000    -17.598000      4.870000
C           3.162000    -32.220000      0.680000
H           2.212000    -30.658000      2.625000
H           2.884000    -28.309000      3.225000
H           5.985000    -28.657000      0.381000
H           2.816000    -26.295000      2.572000
H           1.755000    -20.435000      5.366000
H           4.161000    -19.047000      5.301000
H           7.615000    -17.278000      6.874000
H           9.069000    -16.793000      4.703000
H           2.134000    -32.341000      1.045000
C           3.969000    -33.517000      0.831000
H           3.065000    -31.946000     -0.377000
H           4.002000    -33.797000      1.891000
H           4.983000    -33.316000      0.464000
C           3.296000    -34.629000      0.040000
H           2.245000    -34.687000      0.350000
C           3.983000    -35.966000      0.383000
H           3.263000    -34.410000     -1.034000
H           3.661000    -36.179000      1.410000
H           5.053000    -35.907000      0.150000
C           3.489000    -37.139000     -0.483000
H           2.407000    -37.162000     -0.663000
C           4.041000    -38.429000      0.147000
H           3.809000    -36.994000     -1.522000
H           5.091000    -38.384000      0.463000
H           3.972000    -39.210000     -0.621000
H           3.364000    -38.769000      0.940000
C          -4.499000    -15.400000      6.977000
C          -4.712000    -16.581000      6.288000
N          -3.566000    -15.339000      7.970000
C          -4.054000    -17.791000      6.685000
C          -2.902000    -16.474000      8.292000
C          -3.005000    -17.729000      7.616000
C          -2.133000    -18.923000      7.830000
C          -0.752000    -18.737000      8.239000
C          -2.533000    -20.288000      7.589000
N           0.085000    -19.796000      8.351000
N          -3.771000    -20.688000      7.294000
C          -1.622000    -21.351000      7.681000
C          -0.311000    -21.071000      8.081000
S          -3.679000    -22.316000      7.132000
N          -2.157000    -22.592000      7.513000
C           0.787000    -22.121000      8.075000
S           0.801000    -23.644000      7.176000
C           2.025000    -21.954000      8.655000
C           2.405000    -24.110000      7.691000
S           2.549000    -20.626000      9.565000
C           2.899000    -23.029000      8.455000
C           3.284000    -24.996000      6.932000
C           4.137000    -21.442000      9.625000
C           4.190000    -22.689000      8.994000
N           4.544000    -24.658000      6.785000
S           2.880000    -26.671000      6.586000
C           5.266000    -25.626000      6.174000
C           4.480000    -26.739000      5.790000
C          -5.100000    -14.058000      6.603000
H          -5.368000    -16.648000      5.425000
H          -4.254000    -18.634000      6.031000
H          -2.067000    -16.382000      8.985000
H          -0.262000    -17.779000      8.408000
H           5.004000    -20.968000     10.065000
H           5.046000    -23.353000      9.038000
H           6.316000    -25.547000      5.926000
H           4.792000    -27.585000      5.193000
H          -6.109000    -14.272000      6.230000
C          -4.228000    -13.366000      5.510000
H          -5.308000    -13.464000      7.502000
H          -4.090000    -14.033000      4.650000
H          -3.189000    -13.372000      5.860000
C          -4.597000    -11.924000      5.264000
H          -4.623000    -11.423000      6.240000
C          -6.066000    -11.822000      4.696000
H          -3.856000    -11.360000      4.686000
H          -6.765000    -12.094000      5.496000
H          -6.244000    -12.413000      3.789000
C          -6.462000    -10.384000      4.250000
H          -6.100000     -9.617000      4.946000
C          -7.947000    -10.184000      3.993000
H          -5.877000    -10.281000      3.327000
H          -8.465000    -10.738000      3.199000
H          -8.171000     -9.166000      3.649000
H          -8.508000    -10.332000      4.924000
$end

--------------------------------------------------------------

             Standard Nuclear Orientation (Angstroms)
    I     Atom           X                Y                Z
 ----------------------------------------------------------------
    1      C       8.5403894255     2.5001415357     1.4493911012
    2      C       7.3838558097     2.7140890966     0.7992292471
    3      N       8.7033929564     1.3451236999     2.1245671138
    4      C       6.3821043158     1.7729411135     0.7383981820
    5      C       7.7742144669     0.3813189652     2.0202753694
    6      C       6.5582156866     0.4961029436     1.2332578316
    7      C       5.4031784136    -0.4094592443     1.1800504844
    8      C       4.0817635153     0.0821007042     1.2682405281
    9      C       5.5507669919    -1.7652931705     1.1043208591
   10      N       2.9848690144    -0.6975475005     1.2590682452
   11      N       6.7728547067    -2.3779161565     0.9156128989
   12      C       4.4235689575    -2.6215778095     1.1185056477
   13      C       3.1760853194    -2.0329633101     1.2144146874
   14      S       6.3862716081    -3.9294719366     0.9310456315
   15      N       4.7456586244    -3.8831102568     1.0195251910
   16      C       1.9036165890    -2.8033986075     1.2488062916
   17      S       1.9111692367    -4.5714526263     1.3116787347
   18      C       0.5903181073    -2.2964323048     1.1250110338
   19      C       0.2175143554    -4.5876709489     0.9670875143
   20      S       0.0612256477    -0.6875009412     0.7766964683
   21      C      -0.2703675819    -3.3255216043     0.8866869727
   22      C      -0.6212876072    -5.7390642819     0.7657205353
   23      C      -1.5948697433    -1.4824245657     0.4309487465
   24      C      -1.5739118130    -2.8391480506     0.5580044452
   25      N      -1.4506408803    -5.8500245944    -0.2335887049
   26      S      -0.4902090529    -7.1007569438     1.8496266692
   27      C      -2.0445477997    -7.1248036881    -0.2245979604
   28      C      -1.6283922863    -7.8841137835     0.8168067485
   29      C       9.5426815501     3.6393245717     1.7431316456
   30      H       7.2765950468     3.6892490560     0.3332633875
   31      H       5.4261988173     1.9859057981     0.2696981488
   32      H       7.8697715222    -0.4992494598     2.6526787993
   33      H       3.8481396219     1.1374628149     1.3997878267
   34      H      -2.3497301346    -0.7329228256     0.2336724649
   35      H      -2.4199469815    -3.5040938285     0.4215177931
   36      H      -2.7609629171    -7.4379228627    -0.9722193633
   37      H      -1.9509705965    -8.8733786809     1.1124775055
   38      H       9.0833471455     4.5930000469     1.4530196111
   39      C      10.9761175444     3.5191979819     1.2073239816
   40      H       9.5382813036     3.6359304076     2.8393538482
   41      H      10.9557130529     3.5819544998     0.1124567402
   42      H      11.3614361306     2.5409813187     1.5202261177
   43      C      11.8215320349     4.6578724495     1.7585487959
   44      H      11.3122666334     5.6047224631     1.5390293149
   45      C      13.1847801294     4.6557482253     1.0383147225
   46      H      11.8975257615     4.6238348368     2.8519802727
   47      H      12.9541804452     5.0031421236     0.0234633713
   48      H      13.6819422364     3.6888765861     1.1820473658
   49      C      14.1830550685     5.6667407893     1.6309884787
   50      H      13.7565081569     6.6422199622     1.8958490372
   51      C      15.3706081664     5.7522878908     0.6572824999
   52      H      14.4737802125     5.3530052626     2.6409364526
   53      H      15.7286883541     4.7901574356     0.2693848761
   54      H      16.2030932416     6.2019670255     1.2134329071
   55      H      15.1470503224     6.4811990751    -0.1310628404
   56      C      -9.9034756616     2.4203868439     0.4716401942
   57      C      -8.8161870897     3.1798930492     0.8663614700
   58      N      -9.7872886312     1.5305068540    -0.5554299969
   59      C      -7.5883023023     3.1427852623     0.1277174686
   60      C      -8.6011844602     1.4560413773    -1.2038255463
   61      C      -7.4041234011     2.1518840393    -0.8496253058
   62      C      -6.0451284542     1.9242917540    -1.4268172029
   63      C      -5.6805006934     0.6004224094    -1.8995270026
   64      C      -5.0020199931     2.9187040370    -1.4929606062
   65      N      -4.4260946949     0.3449876650    -2.3420342705
   66      N      -5.1486786211     4.2108727230    -1.1955377865
   67      C      -3.7053421000     2.6002777690    -1.9237565594
   68      C      -3.4503470297     1.2952439477    -2.3584808850
   69      S      -3.6778970753     4.8883432833    -1.4463908999
   70      N      -2.8482171142     3.6543184504    -2.0179106930
   71      C      -2.0542673854     0.8086266026    -2.7082024685
   72      S      -0.5179628525     1.5327250200    -2.2148710744
   73      C      -1.7827636615    -0.3858384322    -3.3378627011
   74      C       0.4762941129     0.3092219687    -2.9696494327
   75      S      -2.9108079840    -1.4966785018    -3.9377046355
   76      C      -0.4172344803    -0.6555908412    -3.4864045921
   77      C       1.8275640787    -0.0325971385    -2.5326744019
   78      C      -1.5080381669    -2.5279520862    -4.3375941632
   79      C      -0.2583927058    -1.9755935570    -4.0388212112
   80      N       2.1513086539    -1.2999070800    -2.4205674789
   81      S       3.1601039135     1.1125064585    -2.5730766367
   82      C       3.4626994182    -1.4699572235    -2.1325289191
   83      C       4.1523140285    -0.2451433258    -1.9643516160
   84      C     -11.2238124532     2.3451154107     1.2153376920
   85      H      -8.8347374218     3.8225699750     1.7416992644
   86      H      -6.7921091992     3.7331533031     0.5703314302
   87      H      -8.4784885176     0.6492590843    -1.9249261200
   88      H      -6.3172646293    -0.2828562006    -1.8716776404
   89      H      -1.6308324773    -3.5308559689    -4.7236904716
   90      H       0.6857100986    -2.4282039830    -4.3205687878
   91      H       3.9375925050    -2.4278343134    -1.9676258053
   92      H       5.1694593434    -0.1089480279    -1.6232720809
   93      H     -11.4045069157     3.3511379810     1.6131744668
   94      C     -11.1338182953     1.2912390144     2.3621343579
   95      H     -12.0569647908     2.2226865961     0.5116549739
   96      H     -10.2804253536     1.5080683974     3.0165337051
   97      H     -10.7460840964     0.3612440381     1.9298976924
   98      C     -12.4668008568     0.9596544147     2.9860335035
   99      H     -13.1577517543     0.7163058620     2.1689525166
  100      C     -13.0757694414     2.2338611132     3.6906919687
  101      H     -12.4605168301     0.0627945420     3.6160048360
  102      H     -13.3690883080     2.9505508283     2.9142224621
  103      H     -12.4188629258     2.6971128358     4.4373415996
  104      C     -14.3659429544     1.9351309686     4.5090981069
  105      H     -15.0344782000     1.2349344051     3.9928284121
  106      C     -15.1460763901     3.1671495870     4.9389770975
  107      H     -13.9487552647     1.4019744122     5.3730781518
  108      H     -14.7047132071     3.9104582443     5.6160049999
  109      H     -16.0264672678     2.9067650645     5.5405980771
  110      H     -15.5160649907     3.6995830742     4.0540991301
 ----------------------------------------------------------------

   10   -5663.5070994142      7.03E-06 Convergence criterion met
 Total energy in the final basis set = -5663.5070994142

                    Orbital Energies (a.u.)
 --------------------------------------------------------------

 Alpha MOs
 -- Occupied --
-88.994 -88.989 -88.924 -88.922 -88.921 -88.920 -88.904 -88.901
-14.393 -14.387 -14.386 -14.384 -14.353 -14.348 -14.342 -14.338
-14.332 -14.328 -10.268 -10.266 -10.264 -10.262 -10.258 -10.257
-10.253 -10.252 -10.250 -10.240 -10.240 -10.237 -10.235 -10.234
-10.231 -10.230 -10.230 -10.229 -10.229 -10.228 -10.228 -10.225
-10.222 -10.221 -10.220 -10.220 -10.219 -10.217 -10.216 -10.212
-10.210 -10.205 -10.203 -10.199 -10.196 -10.194 -10.192 -10.188
-10.187 -10.185 -10.183 -10.182 -10.178 -10.178 -10.178 -10.176
-10.175 -10.174 -10.172 -10.171  -8.050  -8.045  -7.984  -7.983
 -7.982  -7.979  -7.964  -7.960  -6.015  -6.011  -6.009  -6.008
 -6.005  -6.003  -5.948  -5.947  -5.946  -5.945  -5.944  -5.944
 -5.942  -5.941  -5.941  -5.940  -5.939  -5.936  -5.929  -5.925
 -5.924  -5.921  -5.920  -5.916  -1.051  -1.049  -0.969  -0.968
 -0.960  -0.954  -0.940  -0.933  -0.919  -0.916  -0.911  -0.907
 -0.843  -0.839  -0.837  -0.829  -0.812  -0.810  -0.808  -0.807
 -0.805  -0.796  -0.795  -0.790  -0.784  -0.781  -0.768  -0.765
 -0.751  -0.748  -0.738  -0.737  -0.722  -0.714  -0.708  -0.707
 -0.692  -0.689  -0.675  -0.674  -0.658  -0.657  -0.651  -0.650
 -0.636  -0.633  -0.625  -0.625  -0.607  -0.607  -0.595  -0.591
 -0.590  -0.588  -0.586  -0.580  -0.575  -0.573  -0.571  -0.566
 -0.552  -0.546  -0.543  -0.541  -0.525  -0.523  -0.513  -0.508
 -0.508  -0.503  -0.500  -0.498  -0.492  -0.492  -0.481  -0.478
 -0.477  -0.476  -0.473  -0.471  -0.462  -0.461  -0.450  -0.447
 -0.441  -0.441  -0.436  -0.436  -0.432  -0.431  -0.431  -0.427
 -0.425  -0.424  -0.420  -0.419  -0.417  -0.411  -0.410  -0.409
 -0.406  -0.406  -0.403  -0.402  -0.398  -0.397  -0.395  -0.394
 -0.393  -0.391  -0.389  -0.387  -0.386  -0.386  -0.383  -0.382
 -0.380  -0.379  -0.374  -0.373  -0.371  -0.365  -0.358  -0.356
 -0.354  -0.353  -0.353  -0.351  -0.348  -0.345  -0.343  -0.342
 -0.339  -0.336  -0.334  -0.330  -0.328  -0.327  -0.326  -0.320
 -0.318  -0.316  -0.316  -0.311  -0.307  -0.301  -0.299  -0.296
 -0.294  -0.294  -0.289  -0.286  -0.285  -0.284  -0.280  -0.278
 -0.275  -0.270  -0.267  -0.264  -0.255  -0.252  -0.248  -0.244
 -0.242  -0.238  -0.233  -0.229  -0.193  -0.192

          Ground-State Mulliken Net Atomic Charges

     Atom                 Charge (a.u.)
  ----------------------------------------
      1 C                     0.274868
      2 C                    -0.127696
      3 N                    -0.487727
      4 C                    -0.087026
      5 C                     0.100488
      6 C                     0.038750
      7 C                     0.013390
      8 C                     0.069339
      9 C                     0.171044
     10 N                    -0.534541
     11 N                    -0.527334
     12 C                     0.275991
     13 C                     0.329678
     14 S                     0.600662
     15 N                    -0.593235
     16 C                    -0.240705
     17 S                     0.326866
     18 C                    -0.104683
     19 C                    -0.209517
     20 S                     0.271435
     21 C                     0.152949
     22 C                     0.032949
     23 C                    -0.317744
     24 C                    -0.015338
     25 N                    -0.419902
     26 S                     0.260881
     27 C                     0.111881
     28 C                    -0.295756
     29 C                    -0.227826
     30 H                     0.081260
     31 H                     0.096372
     32 H                     0.105157
     33 H                     0.115705
     34 H                     0.132411
     35 H                     0.117842
     36 H                     0.117839
     37 H                     0.128674
     38 H                     0.089687
     39 C                    -0.167158
     40 H                     0.122292
     41 H                     0.092413
     42 H                     0.115282
     43 C                    -0.182758
     44 H                     0.087455
     45 C                    -0.160449
     46 H                     0.092000
     47 H                     0.095625
     48 H                     0.099800
     49 C                    -0.186115
     50 H                     0.087859
     51 C                    -0.318554
     52 H                     0.090161
     53 H                     0.106205
     54 H                     0.094970
     55 H                     0.106305
     56 C                     0.243898
     57 C                    -0.119392
     58 N                    -0.464655
     59 C                    -0.072840
     60 C                     0.065839
     61 C                     0.044712
     62 C                     0.031560
     63 C                     0.057135
     64 C                     0.241769
     65 N                    -0.518718
     66 N                    -0.564456
     67 C                     0.175575
     68 C                     0.284946
     69 S                     0.610513
     70 N                    -0.524870
     71 C                    -0.219545
     72 S                     0.313766
     73 C                    -0.089107
     74 C                    -0.257067
     75 S                     0.291097
     76 C                     0.142573
     77 C                     0.091035
     78 C                    -0.307459
     79 C                    -0.042744
     80 N                    -0.414480
     81 S                     0.246748
     82 C                     0.116004
     83 C                    -0.315370
     84 C                    -0.212121
     85 H                     0.090091
     86 H                     0.111990
     87 H                     0.093055
     88 H                     0.129507
     89 H                     0.119402
     90 H                     0.112463
     91 H                     0.120380
     92 H                     0.134652
     93 H                     0.099816
     94 C                    -0.173869
     95 H                     0.115360
     96 H                     0.094408
     97 H                     0.105908
     98 C                    -0.185739
     99 H                     0.101625
    100 C                    -0.166585
    101 H                     0.091646
    102 H                     0.093403
    103 H                     0.091959
    104 C                    -0.179383
    105 H                     0.092336
    106 C                    -0.322617
    107 H                     0.091791
    108 H                     0.100965
    109 H                     0.098890
    110 H                     0.101777
  ----------------------------------------
  Sum of atomic charges =     0.000000

                    Cartesian Multipole Moments
 -----------------------------------------------------------------
    Charge (ESU x 10^10)
                 0.0000
    Dipole Moment (Debye)
         X      -0.0709      Y       0.0400      Z       1.3728
       Tot       1.3752
    Quadrupole Moments (Debye-Ang)
        XX    -447.1869     XY       7.2770     YY    -400.5895
        XZ     -18.7906     YZ       3.7246     ZZ    -451.0552

 Total job time:  107.32s(wall), 1166.47s(cpu)
        *  Thank you very much for using Q-Chem.  Have a nice day.  *
