 Q-Chem 4.4, Q-Chem, Inc., Pleasanton, CA (2016)
 Q-Chem 4.4.2 for Intel X86 Linux

User input:
--------------------------------------------------------------
$comment
SP
$end

$rem
MEM_STATIC 5000
MEM_TOTAL 20000
JOBTYPE SP
EXCHANGE B3LYP
BASIS 6-31g(d,p)
$end

$molecule
0 1
C           0.089000    -17.962000     12.594000
C           0.525000    -17.131000     13.617000
N           0.721000    -18.072000     11.400000
C           1.698000    -16.386000     13.345000
C           1.845000    -17.407000     11.185000
C           2.401000    -16.442000     12.112000
C           3.617000    -15.586000     11.877000
C           3.715000    -14.279000     12.386000
C           4.702000    -16.054000     11.026000
N           4.705000    -13.469000     12.051000
N           4.913000    -17.212000     10.447000
C           5.731000    -15.133000     10.769000
C           5.719000    -13.772000     11.255000
S           6.410000    -17.247000      9.742000
N           6.739000    -15.700000     10.043000
C           6.676000    -12.714000     10.916000
S           7.745000    -12.760000      9.500000
C           6.911000    -11.597000     11.678000
C           8.244000    -11.072000      9.819000
S           6.598000    -11.393000     13.374000
C           7.860000    -10.794000     11.076000
C           9.019000    -10.203000      8.976000
C           7.672000     -9.976000     13.141000
C           8.394000     -9.861000     11.964000
N           9.121000    -10.697000      7.728000
S           9.935000     -8.766000      9.314000
C           9.730000     -9.835000      6.857000
C          10.154000     -8.711000      7.541000
C          -1.216000    -18.757000     12.774000
H           0.016000    -17.171000     14.575000
H           2.096000    -15.761000     14.139000
H           2.345000    -17.691000     10.261000
H           2.849000    -13.840000     12.878000
H           7.912000     -9.292000     13.944000
H           9.204000     -9.192000     11.697000
H           9.791000    -10.173000      5.831000
H          10.829000     -7.972000      7.132000
H          -1.018000    -19.810000     13.008000
C          -2.091000    -18.554000     11.557000
H          -1.739000    -18.288000     13.616000
H          -1.591000    -19.221000     10.845000
H          -2.148000    -17.471000     11.390000
C          -3.557000    -19.034000     11.846000
H          -3.686000    -20.092000     12.107000
C          -4.474000    -18.616000     10.664000
H          -3.951000    -18.501000     12.720000
H          -4.122000    -19.161000      9.779000
H          -4.197000    -17.577000     10.445000
C          -5.953000    -18.869000     10.833000
H          -6.459000    -18.705000      9.874000
C          -6.663000    -17.982000     11.764000
H          -6.106000    -19.935000     11.042000
H          -7.743000    -17.984000     11.575000
H          -6.243000    -16.992000     11.545000
H          -6.463000    -18.293000     12.797000
C          -4.499000    -15.400000      6.977000
C          -4.712000    -16.581000      6.288000
N          -3.566000    -15.339000      7.970000
C          -4.054000    -17.791000      6.685000
C          -2.902000    -16.474000      8.292000
C          -3.005000    -17.729000      7.616000
C          -2.133000    -18.923000      7.830000
C          -0.752000    -18.737000      8.239000
C          -2.533000    -20.288000      7.589000
N           0.085000    -19.796000      8.351000
N          -3.771000    -20.688000      7.294000
C          -1.622000    -21.351000      7.681000
C          -0.311000    -21.071000      8.081000
S          -3.679000    -22.316000      7.132000
N          -2.157000    -22.592000      7.513000
C           0.787000    -22.121000      8.075000
S           0.801000    -23.644000      7.176000
C           2.025000    -21.954000      8.655000
C           2.405000    -24.110000      7.691000
S           2.549000    -20.626000      9.565000
C           2.899000    -23.029000      8.455000
C           3.284000    -24.996000      6.932000
C           4.137000    -21.442000      9.625000
C           4.190000    -22.689000      8.994000
N           4.544000    -24.658000      6.785000
S           2.880000    -26.671000      6.586000
C           5.266000    -25.626000      6.174000
C           4.480000    -26.739000      5.790000
C          -5.100000    -14.058000      6.603000
H          -5.368000    -16.648000      5.425000
H          -4.254000    -18.634000      6.031000
H          -2.067000    -16.382000      8.985000
H          -0.262000    -17.779000      8.408000
H           5.004000    -20.968000     10.065000
H           5.046000    -23.353000      9.038000
H           6.316000    -25.547000      5.926000
H           4.792000    -27.585000      5.193000
H          -6.109000    -14.272000      6.230000
C          -4.228000    -13.366000      5.510000
H          -5.308000    -13.464000      7.502000
H          -4.090000    -14.033000      4.650000
H          -3.189000    -13.372000      5.860000
C          -4.597000    -11.924000      5.264000
H          -4.623000    -11.423000      6.240000
C          -6.066000    -11.822000      4.696000
H          -3.856000    -11.360000      4.686000
H          -6.765000    -12.094000      5.496000
H          -6.244000    -12.413000      3.789000
C          -6.462000    -10.384000      4.250000
H          -6.100000     -9.617000      4.946000
C          -7.947000    -10.184000      3.993000
H          -5.877000    -10.281000      3.327000
H          -8.465000    -10.738000      3.199000
H          -8.171000     -9.166000      3.649000
H          -8.508000    -10.332000      4.924000
$end

--------------------------------------------------------------

             Standard Nuclear Orientation (Angstroms)
    I     Atom           X                Y                Z
 ----------------------------------------------------------------
    1      C      -1.0648720697     0.0751564673     3.8190356900
    2      C      -0.0015565118     0.3011700925     4.6824381833
    3      N      -0.9110841470    -0.3199292476     2.5316287797
    4      C       1.2878343188     0.0886653941     4.1372308473
    5      C       0.3000671946    -0.5637412561     2.0567665551
    6      C       1.5214431620    -0.3106568881     2.7942481135
    7      C       2.9232932776    -0.4736216639     2.2699621847
    8      C       3.9693715717     0.3766258262     2.6696288062
    9      C       3.2239649094    -1.4674258373     1.2489823441
   10      N       5.1599437872     0.3404164178     2.0954757967
   11      N       2.4860192802    -2.4086062217     0.7101486663
   12      C       4.5318233871    -1.4551743292     0.7366473924
   13      C       5.5313485164    -0.4893253463     1.1325593246
   14      S       3.4002867085    -3.3730155775    -0.2764052673
   15      N       4.7341880198    -2.4817495589    -0.1407469620
   16      C       6.8646772049    -0.3203999919     0.5461867186
   17      S       7.3323237552    -0.9408671764    -1.0495138100
   18      C       7.9280923340     0.2748955209     1.1773202351
   19      C       8.8861113724    -0.0613387175    -0.9386998638
   20      S       8.1597576164     0.4793853969     2.8862719862
   21      C       9.0345894622     0.2854930815     0.3506608150
   22      C       9.8675278377     0.1365818501    -1.9702444196
   23      C       9.8384674806     0.8245803192     2.3586095399
   24      C      10.2113688537     0.5333301833     1.0563208145
   25      N       9.3736382688    -0.1811638615    -3.1814647779
   26      S      11.5538216652     0.5500356434    -1.9091045136
   27      C      10.2264374000     0.1254212473    -4.2067965354
   28      C      11.4150383142     0.6063581567    -3.6901384706
   29      C      -2.4995476824     0.3477385948     4.3036539625
   30      H      -0.2127341152     0.5249888095     5.7234733420
   31      H       2.1422634925     0.2094276089     4.7966489808
   32      H       0.2928857408    -1.0232714620     1.0702512655
   33      H       3.7383956686     1.2352199063     3.2974881359
   34      H      10.6214021914     1.0938614096     3.0548608832
   35      H      11.1910290355     0.5076739040     0.5931170974
   36      H       9.8499668041    -0.0703106380    -5.2020853978
   37      H      12.3187479813     0.7357547639    -4.2694418072
   38      H      -3.0236310294    -0.5819507654     4.5562075986
   39      C      -3.2163426110     1.1952697758     3.2761234630
   40      H      -2.3995315165     0.9664549993     5.2034543723
   41      H      -3.4418335808     0.4342199667     2.5199554852
   42      H      -2.5587034707     2.0464125432     3.0591125170
   43      C      -4.5334266178     1.7977546580     3.8805890828
   44      H      -5.2895473059     1.0810606135     4.2252006780
   45      C      -5.1288211320     2.8285715388     2.8827619781
   46      H      -4.2920851630     2.3742173173     4.7820579423
   47      H      -5.4103302586     2.2724278156     1.9796502626
   48      H      -4.2718423718     3.4282317730     2.5507890754
   49      C      -6.3247482456     3.6179582682     3.3588270265
   50      H      -6.7557036322     4.1658049307     2.5122134847
   51      C      -6.0600759978     4.6616958397     4.3579218584
   52      H      -7.1131617300     2.9162254281     3.6578608018
   53      H      -6.8688069083     5.4013651326     4.3890450266
   54      H      -5.1338995014     5.1294297849     4.0003144563
   55      H      -5.9330115735     4.2038776743     5.3468946384
   56      C      -3.6710445637     5.5520098264    -0.9113151653
   57      C      -4.7481707701     4.8881398945    -1.4716069188
   58      N      -2.7769110480     4.8805840948    -0.1303082877
   59      C      -5.0186838867     3.5195831995    -1.1421403402
   60      C      -3.0066630161     3.5701212421     0.1201036625
   61      C      -4.0525860107     2.7768368770    -0.4450113748
   62      C      -4.1936639978     1.2934239069    -0.3382454548
   63      C      -3.0045719885     0.4673671028    -0.2254254660
   64      C      -5.4444408787     0.5782822542    -0.4119720493
   65      N      -3.0988300717    -0.8838081899    -0.2195312133
   66      N      -6.6541354127     1.1404365495    -0.4290214694
   67      C      -5.4922502779    -0.8235994182    -0.4401861944
   68      C      -4.2915454828    -1.5326864360    -0.3278269655
   69      S      -7.7156355587    -0.1053844960    -0.5080111060
   70      N      -6.7422894009    -1.3636332403    -0.4229913756
   71      C      -4.2153053452    -3.0413332914    -0.4900370364
   72      S      -5.3999738960    -4.0899623832    -1.2805200865
   73      C      -3.1091706095    -3.8012267338    -0.1802614681
   74      C      -4.4709116219    -5.5553898302    -1.0694213222
   75      S      -1.6692774435    -3.2577883934     0.5251762972
   76      C      -3.2462514608    -5.1603721550    -0.4859305116
   77      C      -4.5818698699    -6.7274266186    -1.9341386366
   78      C      -1.0727658500    -4.9285425872     0.3155233865
   79      C      -1.9933585506    -5.8246119811    -0.2372403251
   80      N      -3.4810833020    -7.3094557555    -2.3500280639
   81      S      -6.0640568610    -7.6585731703    -2.0911253328
   82      C      -3.7317645159    -8.4502366820    -3.0336996274
   83      C      -5.1154615922    -8.7079721553    -3.1852774183
   84      C      -3.2665408094     6.9774740028    -1.2376119545
   85      H      -5.4239849163     5.3575813517    -2.1804750010
   86      H      -5.8522241620     3.0927275044    -1.6911119469
   87      H      -2.2179297896     3.0147166897     0.6254388786
   88      H      -1.9771856414     0.8290390457    -0.2156428604
   89      H      -0.0512102661    -5.2008504880     0.5440788421
   90      H      -1.8206463449    -6.8913685010    -0.3253823767
   91      H      -2.9745189678    -9.0730159566    -3.4908321630
   92      H      -5.5743749903    -9.4854042006    -3.7806486538
   93      H      -4.2018547529     7.5302950483    -1.3878874306
   94      C      -2.3819142358     7.0029510239    -2.5224013328
   95      H      -2.8464656772     7.4719142228    -0.3525318721
   96      H      -2.8938970564     6.4980837130    -3.3509636960
   97      H      -1.5776972041     6.2701037032    -2.3873947758
   98      C      -1.7202116183     8.3348418995    -2.7758916513
   99      H      -1.2182735591     8.6317512493    -1.8462917251
  100      C      -2.8079660013     9.4465679390    -3.0439301102
  101      H      -0.9189175526     8.3066161312    -3.5231480506
  102      H      -3.3408830460     9.6413450858    -2.1055025495
  103      H      -3.5034211043     9.2137660972    -3.8598709795
  104      C      -2.2057502359    10.8119485071    -3.4873803059
  105      H      -1.2997497132    11.0704072724    -2.9251427052
  106      C      -3.1806103812    11.9780551235    -3.4539579149
  107      H      -1.8912415689    10.5803847751    -4.5131607582
  108      H      -4.0729747271    11.9900076703    -4.0936601979
  109      H      -2.7193139965    12.9094793523    -3.8067901010
  110      H      -3.5067842628    12.1596581460    -2.4224459464
 ----------------------------------------------------------------

    9   -5663.4661778623      8.19E-06 Convergence criterion met
 Total energy in the final basis set = -5663.4661778623

                    Orbital Energies (a.u.)
 --------------------------------------------------------------

 Alpha MOs
 -- Occupied --
-88.989 -88.988 -88.937 -88.922 -88.921 -88.919 -88.916 -88.899
-14.388 -14.379 -14.379 -14.370 -14.346 -14.342 -14.336 -14.335
-14.328 -14.325 -10.268 -10.264 -10.263 -10.262 -10.256 -10.253
-10.252 -10.252 -10.243 -10.239 -10.237 -10.236 -10.232 -10.232
-10.231 -10.230 -10.230 -10.230 -10.229 -10.228 -10.228 -10.225
-10.225 -10.225 -10.224 -10.224 -10.217 -10.214 -10.214 -10.213
-10.211 -10.205 -10.204 -10.201 -10.197 -10.196 -10.195 -10.190
-10.184 -10.180 -10.180 -10.177 -10.176 -10.176 -10.173 -10.171
-10.170 -10.162 -10.161 -10.160  -8.044  -8.044  -7.997  -7.982
 -7.980  -7.977  -7.976  -7.959  -6.010  -6.009  -6.004  -6.004
 -6.002  -6.002  -5.961  -5.958  -5.954  -5.946  -5.945  -5.943
 -5.942  -5.941  -5.940  -5.939  -5.938  -5.936  -5.936  -5.933
 -5.933  -5.924  -5.920  -5.915  -1.045  -1.034  -0.966  -0.964
 -0.962  -0.946  -0.936  -0.929  -0.920  -0.911  -0.902  -0.893
 -0.844  -0.835  -0.824  -0.824  -0.811  -0.806  -0.804  -0.803
 -0.801  -0.795  -0.793  -0.786  -0.786  -0.778  -0.769  -0.762
 -0.754  -0.744  -0.744  -0.734  -0.718  -0.711  -0.710  -0.703
 -0.694  -0.685  -0.677  -0.670  -0.655  -0.646  -0.645  -0.640
 -0.630  -0.629  -0.623  -0.620  -0.610  -0.604  -0.601  -0.592
 -0.590  -0.585  -0.583  -0.578  -0.570  -0.568  -0.564  -0.554
 -0.546  -0.543  -0.542  -0.536  -0.525  -0.520  -0.518  -0.504
 -0.501  -0.499  -0.498  -0.496  -0.487  -0.483  -0.477  -0.473
 -0.470  -0.469  -0.468  -0.467  -0.458  -0.458  -0.450  -0.445
 -0.444  -0.438  -0.437  -0.433  -0.433  -0.433  -0.427  -0.424
 -0.422  -0.421  -0.419  -0.417  -0.417  -0.416  -0.413  -0.413
 -0.408  -0.405  -0.402  -0.402  -0.398  -0.397  -0.394  -0.393
 -0.391  -0.390  -0.390  -0.387  -0.384  -0.384  -0.382  -0.380
 -0.377  -0.374  -0.373  -0.372  -0.369  -0.367  -0.358  -0.351
 -0.349  -0.347  -0.345  -0.345  -0.343  -0.342  -0.340  -0.334
 -0.332  -0.331  -0.331  -0.327  -0.326  -0.323  -0.318  -0.314
 -0.311  -0.309  -0.305  -0.303  -0.296  -0.295  -0.294  -0.293
 -0.292  -0.291  -0.289  -0.284  -0.284  -0.281  -0.275  -0.274
 -0.268  -0.265  -0.264  -0.259  -0.255  -0.251  -0.244  -0.241
 -0.239  -0.234  -0.230  -0.225  -0.191  -0.189

          Ground-State Mulliken Net Atomic Charges

     Atom                 Charge (a.u.)
  ----------------------------------------
      1 C                     0.266924
      2 C                    -0.110612
      3 N                    -0.481481
      4 C                    -0.103938
      5 C                     0.081547
      6 C                     0.038500
      7 C                     0.015189
      8 C                     0.063600
      9 C                     0.310680
     10 N                    -0.525656
     11 N                    -0.604934
     12 C                     0.143091
     13 C                     0.315543
     14 S                     0.608905
     15 N                    -0.553761
     16 C                    -0.201266
     17 S                     0.343208
     18 C                    -0.097196
     19 C                    -0.206379
     20 S                     0.293258
     21 C                     0.149219
     22 C                     0.043394
     23 C                    -0.306346
     24 C                    -0.069973
     25 N                    -0.429637
     26 S                     0.279925
     27 C                     0.138765
     28 C                    -0.324642
     29 C                    -0.234240
     30 H                     0.097137
     31 H                     0.092799
     32 H                     0.129673
     33 H                     0.120583
     34 H                     0.112474
     35 H                     0.109939
     36 H                     0.127569
     37 H                     0.122141
     38 H                     0.116306
     39 C                    -0.167238
     40 H                     0.089198
     41 H                     0.130573
     42 H                     0.097281
     43 C                    -0.188581
     44 H                     0.083970
     45 C                    -0.181716
     46 H                     0.085615
     47 H                     0.095965
     48 H                     0.091026
     49 C                    -0.174909
     50 H                     0.091114
     51 C                    -0.303286
     52 H                     0.082627
     53 H                     0.096458
     54 H                     0.103209
     55 H                     0.097842
     56 C                     0.242307
     57 C                    -0.119830
     58 N                    -0.468477
     59 C                    -0.072641
     60 C                     0.062658
     61 C                     0.042273
     62 C                     0.033039
     63 C                     0.078970
     64 C                     0.250020
     65 N                    -0.512639
     66 N                    -0.568099
     67 C                     0.179709
     68 C                     0.284623
     69 S                     0.605590
     70 N                    -0.529397
     71 C                    -0.217790
     72 S                     0.313970
     73 C                    -0.106003
     74 C                    -0.254849
     75 S                     0.329294
     76 C                     0.139531
     77 C                     0.074937
     78 C                    -0.322440
     79 C                    -0.047474
     80 N                    -0.417618
     81 S                     0.255582
     82 C                     0.121019
     83 C                    -0.310926
     84 C                    -0.211394
     85 H                     0.088340
     86 H                     0.111192
     87 H                     0.102022
     88 H                     0.129780
     89 H                     0.113687
     90 H                     0.108974
     91 H                     0.117493
     92 H                     0.126737
     93 H                     0.098754
     94 C                    -0.173815
     95 H                     0.113996
     96 H                     0.094233
     97 H                     0.106653
     98 C                    -0.185506
     99 H                     0.101313
    100 C                    -0.166825
    101 H                     0.091658
    102 H                     0.093326
    103 H                     0.091834
    104 C                    -0.179597
    105 H                     0.092345
    106 C                    -0.322810
    107 H                     0.091800
    108 H                     0.100802
    109 H                     0.098568
    110 H                     0.101644
  ----------------------------------------
  Sum of atomic charges =     0.000000

                    Cartesian Multipole Moments
 -----------------------------------------------------------------
    Charge (ESU x 10^10)
                 0.0000
    Dipole Moment (Debye)
         X       2.0066      Y      -0.6406      Z      -0.8406
       Tot       2.2679
    Quadrupole Moments (Debye-Ang)
        XX    -379.7662     XY       1.8733     YY    -425.2526
        XZ       5.9352     YZ       3.9109     ZZ    -422.4340

 Total job time:  92.36s(wall), 1018.64s(cpu)
        *  Thank you very much for using Q-Chem.  Have a nice day.  *
