 Q-Chem 4.4, Q-Chem, Inc., Pleasanton, CA (2016)
 Q-Chem 4.4.2 for Intel X86 Linux

User input:
--------------------------------------------------------------
$comment
SP
$end

$rem
MEM_STATIC 5000
MEM_TOTAL 20000
JOBTYPE SP
EXCHANGE B3LYP
BASIS 6-31g(d,p)
$end

$molecule
0 1
C           0.198000      8.054000     13.463000
C          -0.976000      7.447000     13.835000
N           0.768000      7.860000     12.268000
C          -1.587000      6.648000     12.812000
C           0.205000      7.045000     11.399000
C          -1.062000      6.531000     11.511000
C          -1.639000      5.624000     10.498000
C          -2.649000      4.677000     10.893000
C          -1.121000      5.360000      9.176000
N          -3.135000      3.758000     10.026000
N          -0.168000      6.147000      8.567000
C          -1.632000      4.393000      8.279000
C          -2.657000      3.577000      8.771000
S           0.099000      5.547000      7.071000
N          -1.032000      4.313000      7.080000
C          -3.208000      2.434000      8.072000
S          -2.246000      1.614000      6.807000
C          -4.401000      1.770000      8.250000
C          -3.649000      0.545000      6.438000
S          -5.672000      2.145000      9.364000
C          -4.674000      0.764000      7.295000
C          -3.496000     -0.571000      5.603000
C          -6.518000      0.685000      8.748000
C          -5.961000      0.199000      7.562000
N          -4.422000     -1.507000      5.568000
S          -1.951000     -1.039000      4.882000
C          -4.029000     -2.616000      4.845000
C          -2.790000     -2.514000      4.350000
C           0.934000      8.857000     14.497000
H          -1.356000      7.485000     14.852000
H          -2.466000      6.171000     13.234000
H           0.782000      6.968000     10.479000
H          -3.046000      4.663000     11.907000
H          -7.419000      0.340000      9.237000
H          -6.424000     -0.563000      6.946000
H          -4.757000     -3.412000      4.763000
H          -2.300000     -3.148000      3.623000
H           1.724000      8.171000     14.826000
C           0.191000      9.288000     15.685000
H           1.533000      9.663000     14.056000
H          -0.122000      8.446000     16.315000
H          -0.701000      9.883000     15.452000
C           1.037000     10.126000     16.664000
H           1.277000     11.105000     16.230000
C           2.294000      9.447000     17.113000
H           0.437000     10.257000     17.573000
H           2.973000      9.402000     16.252000
H           1.988000      8.443000     17.432000
C           2.995000     10.079000     18.349000
H           2.414000      9.858000     19.253000
C           3.443000     11.474000     18.040000
H           3.982000      9.611000     18.447000
H           3.742000     11.481000     16.984000
H           4.245000     11.691000     18.756000
H           2.634000     12.192000     18.222000
C         -11.630000      6.888000     -2.764000
C         -11.740000      6.266000     -1.534000
N         -10.425000      6.943000     -3.341000
C         -10.729000      5.483000     -0.993000
C          -9.346000      6.294000     -2.790000
C          -9.408000      5.514000     -1.626000
C          -8.239000      4.674000     -1.233000
C          -8.391000      3.547000     -0.440000
C          -6.925000      4.880000     -1.703000
N          -7.411000      2.676000     -0.198000
N          -6.496000      5.960000     -2.356000
C          -5.895000      4.031000     -1.383000
C          -6.144000      2.881000     -0.654000
S          -4.896000      5.892000     -2.445000
N          -4.668000      4.478000     -1.635000
C          -5.190000      1.888000     -0.257000
S          -3.712000      1.400000     -1.094000
C          -5.313000      1.188000      0.929000
C          -3.351000      0.160000      0.175000
S          -6.532000      1.424000      2.187000
C          -4.343000      0.231000      1.137000
C          -2.182000     -0.676000      0.219000
C          -5.718000      0.033000      2.964000
C          -4.586000     -0.417000      2.345000
N          -2.078000     -1.617000      1.135000
S          -0.899000     -0.498000     -0.960000
C          -0.872000     -2.308000      0.907000
C          -0.218000     -1.941000     -0.219000
C         -12.803000      7.720000     -3.355000
H         -12.681000      6.232000     -0.994000
H         -10.913000      5.015000     -0.030000
H          -8.465000      6.127000     -3.409000
H          -9.332000      3.396000      0.087000
H          -6.100000     -0.352000      3.900000
H          -3.961000     -1.242000      2.669000
H          -0.650000     -3.196000      1.483000
H           0.653000     -2.374000     -0.694000
H         -12.859000      8.625000     -2.737000
C         -14.160000      7.050000     -3.059000
H         -12.656000      7.958000     -4.416000
H         -14.882000      7.554000     -3.713000
H         -14.558000      7.114000     -2.039000
C         -14.238000      5.626000     -3.590000
H         -13.863000      5.581000     -4.620000
C         -15.705000      5.099000     -3.484000
H         -13.604000      4.976000     -2.976000
H         -16.403000      5.800000     -3.957000
H         -16.091000      5.023000     -2.459000
C         -15.800000      3.704000     -4.155000
H         -15.483000      3.679000     -5.205000
C         -17.288000      3.372000     -4.015000
H         -15.131000      3.022000     -3.617000
H         -17.746000      3.418000     -3.019000
H         -17.475000      2.330000     -4.304000
H         -17.859000      4.060000     -4.650000
$end

--------------------------------------------------------------

             Standard Nuclear Orientation (Angstroms)
    I     Atom           X                Y                Z
 ----------------------------------------------------------------
    1      C     -10.7558902724     2.7322285419     0.6272490333
    2      C     -10.3339514139     2.9147469429    -0.6664911389
    3      N     -10.0390048908     2.0610767979     1.5361999044
    4      C      -9.0261202951     2.3966220298    -0.9482274327
    5      C      -8.8816904015     1.5310938033     1.1954709825
    6      C      -8.2102836762     1.7947491657     0.0285400252
    7      C      -6.9108388538     1.1707009968    -0.2935687087
    8      C      -6.5387632202     0.9881176117    -1.6723932191
    9      C      -6.0492474191     0.4468325166     0.6116266421
   10      N      -5.4068931224     0.3313697399    -2.0188009476
   11      N      -6.1868328871     0.4894636560     1.9819228965
   12      C      -4.8711193619    -0.2417572483     0.2392324740
   13      C      -4.5932715075    -0.2907334596    -1.1315143665
   14      S      -4.9905706637    -0.4107821696     2.6360017500
   15      N      -4.1860708610    -0.8348461624     1.2306733907
   16      C      -3.5281983829    -1.0697519047    -1.7293441928
   17      S      -2.8582887881    -2.4803808762    -0.8578993929
   18      C      -2.9259166242    -0.9583082298    -2.9624970587
   19      C      -1.6228849905    -2.6893197044    -2.1530646422
   20      S      -3.2309030641     0.2201689783    -4.1934465870
   21      C      -1.8206021999    -1.8154044886    -3.1680597658
   22      C      -0.8264829929    -3.8423883361    -2.2006733464
   23      C      -2.0235848593    -0.6513619366    -5.1982294575
   24      C      -1.2582868998    -1.5564850661    -4.4578834886
   25      N      -0.1451725435    -4.1352623158    -3.2891759433
   26      S      -0.9779498807    -5.1746596737    -1.0482841479
   27      C       0.4288845579    -5.3900767553    -3.2347869133
   28      C       0.1585843459    -6.0477097413    -2.1012055748
   29      C     -12.1403943555     3.1894050495     0.9875254340
   30      H     -10.9790088110     3.3247573284    -1.4384532093
   31      H      -8.8252269162     2.5395831597    -2.0053262765
   32      H      -8.4158416879     1.0013013893     2.0246651540
   33      H      -7.1635294135     1.3634351907    -2.4815933913
   34      H      -1.8885012580    -0.3754857397    -6.2353368505
   35      H      -0.3728442006    -2.0513198059    -4.8394576055
   36      H       1.0196992519    -5.6797514663    -4.0934781029
   37      H       0.6044845813    -6.9602289146    -1.7282890445
   38      H     -12.7206786092     2.2589196151     0.9674246519
   39      C     -12.7985961723     4.1477003152     0.0944439415
   40      H     -12.2308152468     3.4645315475     2.0453758357
   41      H     -13.0116898793     3.7241925460    -0.8950333151
   42      H     -12.2279697017     5.0733762179    -0.0521423954
   43      C     -14.2022914129     4.5661042399     0.5750465085
   44      H     -14.1353609241     5.1761659483     1.4848497959
   45      C     -15.1330261414     3.4150726719     0.8020931877
   46      H     -14.6557681351     5.1509894798    -0.2347127881
   47      H     -14.7759743823     2.8681222741     1.6839924471
   48      H     -15.0652311352     2.7991583931    -0.1031506681
   49      C     -16.6374103345     3.7840212944     0.9407514494
   50      H     -17.0379585173     4.0657382867    -0.0409891933
   51      C     -16.8549669751     4.6511055534     2.1420191115
   52      H     -17.1683713869     2.8899517870     1.2893444455
   53      H     -16.1418073789     4.3145463875     2.9053783442
   54      H     -17.9133449943     4.5314034074     2.4036607839
   55      H     -16.6929714292     5.7072816173     1.8942721335
   56      C       9.2049080270     5.1987854945     0.8707588878
   57      C       8.3495413242     4.9550139858    -0.1879229601
   58      N       9.0285696296     4.5058430633     2.0006768303
   59      C       7.4917014186     3.8639297294    -0.2271255338
   60      C       8.1036151768     3.4917453787     2.0721481258
   61      C       7.3036708216     3.0798806594     0.9962315483
   62      C       6.4933631439     1.8320190515     1.1096020699
   63      C       6.1068827011     1.1150608293    -0.0123095910
   64      C       6.1448072925     1.2253740627     2.3345194858
   65      N       5.5279376062    -0.0847816674     0.0406579484
   66      N       6.2750029447     1.7810437326     3.5391481880
   67      C       5.4708369744     0.0309165426     2.3905216555
   68      C       5.1931101535    -0.6649306623     1.2266460262
   69      S       5.5038233810     0.8618898987     4.6035650754
   70      N       4.9479756096    -0.2915846064     3.5701194692
   71      C       4.5201764436    -1.9252775656     1.1150220804
   72      S       4.5039607379    -3.2588951881     2.2745038990
   73      C       3.7212621789    -2.2345914763     0.0297636308
   74      C       3.4677508622    -4.2583341940     1.1764725848
   75      S       3.2924996031    -1.1739499503    -1.3176127853
   76      C       3.1902241757    -3.5064636657     0.0485458819
   77      C       2.9457377649    -5.5637029246     1.4779817940
   78      C       2.4465179714    -2.6243633645    -1.9355302608
   79      C       2.4286042925    -3.7052328256    -1.0997759260
   80      N       2.2892612374    -6.2403527391     0.5579075592
   81      S       3.2054985225    -6.3007529422     3.0454943523
   82      C       1.9483711886    -7.4923386715     1.1058365690
   83      C       2.4692101693    -7.7301897452     2.3315749681
   84      C      10.1826360472     6.4076134694     0.8560332060
   85      H       8.4117148868     5.5191562999    -1.1131877317
   86      H       6.8712134250     3.7406580369    -1.1103286473
   87      H       8.1726272681     2.7787298434     2.8931579781
   88      H       6.1994163965     1.5798019366    -0.9928524092
   89      H       1.9404457286    -2.5785935249    -2.8905386413
   90      H       1.9640428500    -4.6646237409    -1.2997202627
   91      H       1.5013812867    -8.2467263834     0.4728253466
   92      H       2.4688974795    -8.6336500433     2.9278252443
   93      H       9.5493352447     7.2963241492     0.9709611009
   94      C      10.7759878217     6.6214789989    -0.5511484479
   95      H      10.9425897953     6.3424457766     1.6448281557
   96      H      11.6194574278     7.3082144826    -0.4098353240
   97      H      10.1337246449     7.0631287616    -1.3227335039
   98      C      11.4958938440     5.3880009543    -1.0765894365
   99      H      12.1555632076     4.9725607091    -0.3047113805
  100      C      12.2814781986     5.7457161224    -2.3788763021
  101      H      10.7570912703     4.6196773640    -1.3321312485
  102      H      12.9292441211     6.6148434758    -2.2134950661
  103      H      11.6521018823     6.0656530411    -3.2196633265
  104      C      13.1215417518     4.5209148244    -2.8254700851
  105      H      13.8254602642     4.1493036084    -2.0704748320
  106      C      13.8575525485     5.0575676047    -4.0560227660
  107      H      12.4322945900     3.6942458579    -3.0344814959
  108      H      13.2702854048     5.5118599596    -4.8638790393
  109      H      14.3714389448     4.2411258551    -4.5790883844
  110      H      14.5736628281     5.8204213197    -3.7276171067
 ----------------------------------------------------------------

   10   -5663.5034245752      6.78E-06 Convergence criterion met
 Total energy in the final basis set = -5663.5034245752

                    Orbital Energies (a.u.)
 --------------------------------------------------------------

 Alpha MOs
 -- Occupied --
-88.989 -88.987 -88.923 -88.922 -88.918 -88.917 -88.908 -88.904
-14.387 -14.384 -14.381 -14.375 -14.347 -14.344 -14.343 -14.335
-14.324 -14.319 -10.268 -10.262 -10.261 -10.259 -10.255 -10.254
-10.250 -10.245 -10.244 -10.239 -10.237 -10.235 -10.235 -10.234
-10.232 -10.231 -10.229 -10.228 -10.228 -10.228 -10.224 -10.223
-10.223 -10.222 -10.221 -10.219 -10.217 -10.215 -10.215 -10.214
-10.214 -10.213 -10.208 -10.201 -10.198 -10.195 -10.194 -10.191
-10.181 -10.180 -10.179 -10.179 -10.178 -10.177 -10.176 -10.176
-10.174 -10.173 -10.171 -10.170  -8.044  -8.043  -7.985  -7.981
 -7.978  -7.977  -7.968  -7.963  -6.009  -6.008  -6.003  -6.003
 -6.001  -6.001  -5.948  -5.945  -5.945  -5.942  -5.942  -5.942
 -5.941  -5.939  -5.938  -5.937  -5.935  -5.934  -5.933  -5.930
 -5.927  -5.925  -5.924  -5.919  -1.047  -1.028  -0.966  -0.965
 -0.959  -0.952  -0.945  -0.930  -0.911  -0.909  -0.905  -0.898
 -0.840  -0.837  -0.833  -0.832  -0.822  -0.810  -0.809  -0.808
 -0.805  -0.797  -0.794  -0.794  -0.791  -0.783  -0.769  -0.768
 -0.756  -0.751  -0.744  -0.739  -0.721  -0.717  -0.715  -0.709
 -0.696  -0.695  -0.676  -0.675  -0.659  -0.653  -0.646  -0.645
 -0.639  -0.636  -0.624  -0.621  -0.615  -0.610  -0.598  -0.593
 -0.590  -0.589  -0.588  -0.583  -0.583  -0.575  -0.571  -0.553
 -0.552  -0.550  -0.538  -0.537  -0.526  -0.526  -0.513  -0.511
 -0.507  -0.506  -0.498  -0.497  -0.486  -0.485  -0.481  -0.478
 -0.473  -0.469  -0.468  -0.466  -0.464  -0.464  -0.454  -0.451
 -0.448  -0.444  -0.444  -0.436  -0.435  -0.434  -0.432  -0.431
 -0.428  -0.426  -0.422  -0.421  -0.418  -0.418  -0.415  -0.414
 -0.411  -0.408  -0.407  -0.402  -0.399  -0.395  -0.395  -0.393
 -0.392  -0.391  -0.390  -0.389  -0.387  -0.386  -0.381  -0.380
 -0.379  -0.377  -0.375  -0.373  -0.371  -0.364  -0.358  -0.357
 -0.355  -0.352  -0.352  -0.349  -0.347  -0.345  -0.345  -0.341
 -0.338  -0.338  -0.335  -0.334  -0.330  -0.327  -0.327  -0.323
 -0.318  -0.308  -0.306  -0.305  -0.304  -0.303  -0.301  -0.298
 -0.297  -0.291  -0.289  -0.286  -0.285  -0.279  -0.278  -0.275
 -0.272  -0.271  -0.267  -0.266  -0.252  -0.249  -0.244  -0.243
 -0.242  -0.239  -0.231  -0.225  -0.192  -0.189

          Ground-State Mulliken Net Atomic Charges

     Atom                 Charge (a.u.)
  ----------------------------------------
      1 C                     0.270285
      2 C                    -0.108611
      3 N                    -0.484993
      4 C                    -0.114896
      5 C                     0.059083
      6 C                     0.066579
      7 C                     0.046339
      8 C                     0.070582
      9 C                     0.199034
     10 N                    -0.529196
     11 N                    -0.539655
     12 C                     0.230576
     13 C                     0.293246
     14 S                     0.607900
     15 N                    -0.582637
     16 C                    -0.199127
     17 S                     0.313015
     18 C                    -0.117878
     19 C                    -0.246297
     20 S                     0.274293
     21 C                     0.198079
     22 C                     0.084755
     23 C                    -0.301314
     24 C                    -0.063369
     25 N                    -0.461190
     26 S                     0.249581
     27 C                     0.131143
     28 C                    -0.302109
     29 C                    -0.216947
     30 H                     0.097373
     31 H                     0.094727
     32 H                     0.128294
     33 H                     0.114864
     34 H                     0.128527
     35 H                     0.123813
     36 H                     0.116816
     37 H                     0.134117
     38 H                     0.129952
     39 C                    -0.187791
     40 H                     0.114042
     41 H                     0.092841
     42 H                     0.098265
     43 C                    -0.178176
     44 H                     0.093504
     45 C                    -0.181383
     46 H                     0.083604
     47 H                     0.094802
     48 H                     0.080772
     49 C                    -0.177363
     50 H                     0.091780
     51 C                    -0.307795
     52 H                     0.094218
     53 H                     0.106119
     54 H                     0.098357
     55 H                     0.103559
     56 C                     0.284224
     57 C                    -0.107509
     58 N                    -0.506959
     59 C                    -0.088407
     60 C                     0.080270
     61 C                     0.036610
     62 C                     0.078226
     63 C                     0.059931
     64 C                     0.225131
     65 N                    -0.522910
     66 N                    -0.551814
     67 C                     0.190512
     68 C                     0.266587
     69 S                     0.600521
     70 N                    -0.556449
     71 C                    -0.189956
     72 S                     0.299341
     73 C                    -0.117445
     74 C                    -0.250284
     75 S                     0.276069
     76 C                     0.191474
     77 C                     0.091417
     78 C                    -0.318341
     79 C                    -0.045852
     80 N                    -0.461577
     81 S                     0.257686
     82 C                     0.120570
     83 C                    -0.301004
     84 C                    -0.217887
     85 H                     0.083955
     86 H                     0.100287
     87 H                     0.122248
     88 H                     0.106312
     89 H                     0.132015
     90 H                     0.129819
     91 H                     0.107646
     92 H                     0.131446
     93 H                     0.119559
     94 C                    -0.202007
     95 H                     0.119949
     96 H                     0.095835
     97 H                     0.095198
     98 C                    -0.171991
     99 H                     0.096059
    100 C                    -0.172718
    101 H                     0.095123
    102 H                     0.087539
    103 H                     0.090612
    104 C                    -0.172653
    105 H                     0.098228
    106 C                    -0.320567
    107 H                     0.096018
    108 H                     0.100806
    109 H                     0.090098
    110 H                     0.104902
  ----------------------------------------
  Sum of atomic charges =     0.000000

                    Cartesian Multipole Moments
 -----------------------------------------------------------------
    Charge (ESU x 10^10)
                 0.0000
    Dipole Moment (Debye)
         X      -1.2910      Y      -0.5835      Z      -2.1426
       Tot       2.5686
    Quadrupole Moments (Debye-Ang)
        XX    -427.8618     XY      -6.8244     YY    -406.9660
        XZ       3.8167     YZ     -23.3085     ZZ    -430.6152

 Total job time:  97.09s(wall), 1061.62s(cpu)
        *  Thank you very much for using Q-Chem.  Have a nice day.  *
