 Q-Chem 4.4, Q-Chem, Inc., Pleasanton, CA (2016)
 Q-Chem 4.4.2 for Intel X86 Linux

User input:
--------------------------------------------------------------
$comment
SP
$end

$rem
MEM_STATIC 5000
MEM_TOTAL 20000
JOBTYPE SP
EXCHANGE B3LYP
BASIS 6-31g(d,p)
$end

$molecule
0 1
C         -12.798000      0.667000     -0.561000
C         -11.589000      1.360000     -0.622000
N         -12.940000     -0.600000      0.052000
C         -10.417000      0.709000     -0.131000
C         -11.785000     -1.156000      0.469000
C         -10.542000     -0.595000      0.415000
C          -9.311000     -1.384000      0.843000
C          -9.339000     -2.147000      2.029000
C          -8.179000     -1.544000      0.032000
N          -8.364000     -3.016000      2.369000
N          -7.971000     -0.860000     -1.127000
C          -7.200000     -2.401000      0.438000
C          -7.289000     -3.165000      1.608000
S          -6.522000     -1.396000     -1.585000
N          -6.094000     -2.418000     -0.353000
C          -6.302000     -4.202000      1.966000
S          -4.655000     -4.418000      1.306000
C          -6.445000     -5.040000      3.102000
C          -4.379000     -5.785000      2.297000
S          -7.680000     -5.286000      4.281000
C          -5.359000     -5.908000      3.245000
C          -3.231000     -6.651000      2.304000
C          -6.713000     -6.537000      5.018000
C          -5.558000     -6.765000      4.343000
N          -3.462000     -7.917000      2.572000
S          -1.592000     -6.115000      2.077000
C          -2.225000     -8.581000      2.640000
C          -1.106000     -7.788000      2.394000
C         -14.145000      1.223000     -1.036000
H         -11.545000      2.377000     -1.000000
H          -9.431000      1.149000     -0.246000
H         -11.947000     -2.172000      0.825000
H         -10.153000     -2.143000      2.752000
H          -7.176000     -7.155000      5.776000
H          -4.872000     -7.543000      4.655000
H          -2.259000     -9.657000      2.750000
H          -0.152000     -8.212000      2.108000
H         -13.989000      2.150000     -1.601000
C         -15.167000      1.558000      0.138000
H         -14.557000      0.452000     -1.698000
H         -14.585000      2.104000      0.890000
H         -15.399000      0.595000      0.608000
C         -16.417000      2.382000     -0.359000
H         -16.041000      3.110000     -1.088000
C         -17.245000      2.928000      0.835000
H         -16.959000      1.735000     -1.061000
H         -16.630000      3.608000      1.438000
H         -17.432000      2.148000      1.582000
C         -18.592000      3.500000      0.388000
H         -18.527000      4.341000     -0.313000
C         -19.491000      3.784000      1.623000
H         -19.091000      2.706000     -0.183000
H         -18.903000      4.367000      2.342000
H         -19.850000      2.842000      2.055000
H         -20.391000      4.375000      1.416000
C         -11.630000      6.888000     -2.764000
C         -11.740000      6.266000     -1.534000
N         -10.425000      6.943000     -3.341000
C         -10.729000      5.483000     -0.993000
C          -9.346000      6.294000     -2.790000
C          -9.408000      5.514000     -1.626000
C          -8.239000      4.674000     -1.233000
C          -8.391000      3.547000     -0.440000
C          -6.925000      4.880000     -1.703000
N          -7.411000      2.676000     -0.198000
N          -6.496000      5.960000     -2.356000
C          -5.895000      4.031000     -1.383000
C          -6.144000      2.881000     -0.654000
S          -4.896000      5.892000     -2.445000
N          -4.668000      4.478000     -1.635000
C          -5.190000      1.888000     -0.257000
S          -3.712000      1.400000     -1.094000
C          -5.313000      1.188000      0.929000
C          -3.351000      0.160000      0.175000
S          -6.532000      1.424000      2.187000
C          -4.343000      0.231000      1.137000
C          -2.182000     -0.676000      0.219000
C          -5.718000      0.033000      2.964000
C          -4.586000     -0.417000      2.345000
N          -2.078000     -1.617000      1.135000
S          -0.899000     -0.498000     -0.960000
C          -0.872000     -2.308000      0.907000
C          -0.218000     -1.941000     -0.219000
C         -12.803000      7.720000     -3.355000
H         -12.681000      6.232000     -0.994000
H         -10.913000      5.015000     -0.030000
H          -8.465000      6.127000     -3.409000
H          -9.332000      3.396000      0.087000
H          -6.100000     -0.352000      3.900000
H          -3.961000     -1.242000      2.669000
H          -0.650000     -3.196000      1.483000
H           0.653000     -2.374000     -0.694000
H         -12.859000      8.625000     -2.737000
C         -14.160000      7.050000     -3.059000
H         -12.656000      7.958000     -4.416000
H         -14.882000      7.554000     -3.713000
H         -14.558000      7.114000     -2.039000
C         -14.238000      5.626000     -3.590000
H         -13.863000      5.581000     -4.620000
C         -15.705000      5.099000     -3.484000
H         -13.604000      4.976000     -2.976000
H         -16.403000      5.800000     -3.957000
H         -16.091000      5.023000     -2.459000
C         -15.800000      3.704000     -4.155000
H         -15.483000      3.679000     -5.205000
C         -17.288000      3.372000     -4.015000
H         -15.131000      3.022000     -3.617000
H         -17.746000      3.418000     -3.019000
H         -17.475000      2.330000     -4.304000
H         -17.859000      4.060000     -4.650000
$end

--------------------------------------------------------------

             Standard Nuclear Orientation (Angstroms)
    I     Atom           X                Y                Z
 ----------------------------------------------------------------
    1      C       3.9600639787    -2.7621100323     0.6921830247
    2      C       3.5216378492    -1.4769616208     0.3730794533
    3      N       3.1124322501    -3.8946464866     0.7023630198
    4      C       2.1256655414    -1.2813075163     0.1462606108
    5      C       1.8075201821    -3.6227098749     0.5016020322
    6      C       1.2594626476    -2.4022647201     0.2317269445
    7      C      -0.2503716751    -2.2332617196     0.1181298324
    8      C      -1.0121876327    -3.1686980025    -0.6127220044
    9      C      -0.9755396224    -1.2820500163     0.8489326401
   10      N      -2.3614730996    -3.1926600919    -0.5972124204
   11      N      -0.4025630815    -0.2857087485     1.5792770531
   12      C      -2.3371282500    -1.3191829799     0.7997030527
   13      C      -3.0506245730    -2.2907246364     0.0872798593
   14      S      -1.6871352354     0.5106745930     2.1381231452
   15      N      -2.9585544240    -0.3004303588     1.4517602643
   16      C      -4.5187736353    -2.4214027785     0.1591377334
   17      S      -5.6964030931    -1.2126344353     0.7481478799
   18      C      -5.2303032761    -3.4649767146    -0.4872893778
   19      C      -7.0108894439    -2.2627029201     0.4376196028
   20      S      -4.7783895257    -4.8793025122    -1.3654912340
   21      C      -6.6101539983    -3.3428706518    -0.3018949502
   22      C      -8.4002624459    -2.0487902388     0.7405932419
   23      C      -6.4631413826    -5.2971315118    -1.5395288953
   24      C      -7.2827058005    -4.4229151827    -0.9025877874
   25      N      -9.0935226396    -3.1173400483     1.0654510699
   26      S      -9.2108993269    -0.5152164431     0.6134505649
   27      C     -10.4371778426    -2.7348505918     1.2203107201
   28      C     -10.6993196379    -1.3797681728     1.0291058122
   29      C       5.4209947272    -3.1429261596     0.9564374954
   30      H       4.2242830652    -0.6559433255     0.2666479763
   31      H       1.7062506809    -0.2906118012    -0.0008249928
   32      H       1.1978963150    -4.5148806626     0.6343650775
   33      H      -0.5962161855    -3.9743628324    -1.2153935044
   34      H      -6.7045642760    -6.2795951096    -1.9233742620
   35      H      -8.3552196854    -4.5732753137    -0.8844274522
   36      H     -11.1156071770    -3.4912964132     1.5925409681
   37      H     -11.5936647163    -0.9068718850     1.4140785147
   38      H       6.0326702794    -2.2374470468     1.0505150970
   39      C       6.0821968368    -4.0368471173    -0.1831686171
   40      H       5.4095083679    -3.6816253767     1.9114768753
   41      H       5.8044450644    -3.5607196870    -1.1310613447
   42      H       5.5281252501    -4.9828739281    -0.1717252855
   43      C       7.6456275102    -4.1714132312    -0.0217329009
   44      H       8.0126304615    -3.1871017741     0.2932921602
   45      C       8.2914855813    -4.8053914012    -1.2827939748
   46      H       7.8177850903    -4.7035787320     0.9229038797
   47      H       8.1117022710    -4.1672316927    -2.1572447440
   48      H       7.7482739050    -5.7020836271    -1.6025472027
   49      C       9.7552908553    -5.1859033552    -1.0506587285
   50      H      10.4147147717    -4.3486861244    -0.7915556465
   51      C      10.2784341151    -6.0515044320    -2.2301238215
   52      H       9.7700475282    -5.8307357452    -0.1621479355
   53      H      10.0279375499    -5.5356506796    -3.1648646288
   54      H       9.8406482036    -7.0561336821    -2.1861628664
   55      H      11.3640651746    -6.2038288469    -2.2483577236
   56      C       7.5692889141     2.8278544940    -0.1103541775
   57      C       6.9449922254     1.9122736485    -0.9373060262
   58      N       6.8654816274     3.8833327172     0.3122567824
   59      C       5.5717616414     1.8961847792    -1.1419274117
   60      C       5.5237880490     3.9960212553     0.0362085347
   61      C       4.7819337060     3.0345337343    -0.6654565426
   62      C       3.2946385333     3.1412984442    -0.7217092398
   63      C       2.4961487109     2.0279269605    -0.9336053059
   64      C       2.5780631202     4.3294986919    -0.4674812933
   65      N       1.1670152216     2.0411118625    -0.8295124343
   66      N       3.1075512383     5.5494808730    -0.3772825660
   67      C       1.2060080201     4.3627277849    -0.4459957200
   68      C       0.4807869252     3.1919258468    -0.5846289955
   69      S       1.9112114529     6.6177063212    -0.3627736104
   70      N       0.6488500038     5.5696665377    -0.4874178403
   71      C      -0.9454667619     3.0533992440    -0.5650126680
   72      S      -2.1242315500     4.0359219876     0.3115485864
   73      C      -1.5978939252     2.0944648234    -1.3176803062
   74      C      -3.4926694168     3.0257105719    -0.3090420199
   75      S      -0.8754724686     0.9736196240    -2.4778674799
   76      C      -2.9649438886     2.0575830641    -1.1449749691
   77      C      -4.8881262246     3.2599173050    -0.0536198136
   78      C      -2.5458259039     0.3478657421    -2.6177155415
   79      C      -3.5021346650     1.0433044641    -1.9329356226
   80      N      -5.7896000478     2.3953703852    -0.4722563740
   81      S      -5.4180086040     4.6627833211     0.8513694709
   82      C      -7.0516437680     2.8454118704    -0.0379646402
   83      C      -7.0139897916     3.9265676603     0.7744178657
   84      C       9.1051835277     2.7840666767     0.1274364092
   85      H       7.4773356273     1.0618216213    -1.3515268028
   86      H       5.1668623016     1.1255133745    -1.7918282584
   87      H       4.9296385483     4.7045610222     0.6125493796
   88      H       2.9583929063     1.1066483438    -1.2851547537
   89      H      -2.7461405156    -0.4932830439    -3.2677830582
   90      H      -4.5623642185     0.8171464588    -1.9014419663
   91      H      -7.9195942748     2.2163658533    -0.1813767248
   92      H      -7.8045796525     4.4052384002     1.3379753115
   93      H       9.5561373067     3.1089786834    -0.8186914241
   94      C       9.6067157954     1.3297566407     0.2342666659
   95      H       9.4180287532     3.4164439340     0.9677939934
   96      H      10.6212797123     1.4014088290     0.6448053637
   97      H       9.6784479366     0.7374060274    -0.6859915863
   98      C       8.9063082895     0.5484367669     1.3364415977
   99      H       8.8659710597     1.1410935095     2.2587652358
  100      C       9.6270960672    -0.8199139258     1.5581065731
  101      H       7.8750606168     0.3374958268     1.0306898071
  102      H      10.7013184316    -0.6697280613     1.7188066603
  103      H       9.6008641998    -1.4962665728     0.6936668783
  104      C       8.9932216450    -1.5439156029     2.7743778374
  105      H       9.0132011694    -0.9703604239     3.7093908188
  106      C       9.8431254970    -2.8128127695     2.8817623003
  107      H       7.9356092857    -1.7246790009     2.5487460770
  108      H       9.9538208056    -3.4486982727     1.9944674364
  109      H       9.4006570772    -3.5078738860     3.6065834795
  110      H      10.8572736706    -2.5273096834     3.1860671964
 ----------------------------------------------------------------

   10   -5663.5278604757      3.35E-06 Convergence criterion met
 Total energy in the final basis set = -5663.5278604757

                    Orbital Energies (a.u.)
 --------------------------------------------------------------

 Alpha MOs
 -- Occupied --
-88.994 -88.981 -88.931 -88.930 -88.926 -88.923 -88.913 -88.902
-14.387 -14.382 -14.382 -14.380 -14.353 -14.347 -14.343 -14.338
-14.330 -14.328 -10.272 -10.267 -10.262 -10.257 -10.252 -10.251
-10.246 -10.245 -10.242 -10.242 -10.240 -10.237 -10.234 -10.233
-10.232 -10.232 -10.232 -10.231 -10.230 -10.229 -10.229 -10.229
-10.225 -10.223 -10.223 -10.222 -10.220 -10.217 -10.216 -10.212
-10.207 -10.207 -10.206 -10.200 -10.199 -10.197 -10.195 -10.190
-10.186 -10.185 -10.183 -10.182 -10.182 -10.181 -10.181 -10.180
-10.179 -10.177 -10.174 -10.170  -8.050  -8.036  -7.991  -7.989
 -7.988  -7.982  -7.972  -7.963  -6.015  -6.009  -6.008  -6.001
 -5.995  -5.994  -5.955  -5.953  -5.952  -5.952  -5.950  -5.949
 -5.948  -5.946  -5.946  -5.945  -5.942  -5.938  -5.936  -5.933
 -5.928  -5.927  -5.923  -5.919  -1.054  -1.035  -0.969  -0.967
 -0.966  -0.956  -0.935  -0.922  -0.918  -0.912  -0.911  -0.900
 -0.848  -0.845  -0.839  -0.826  -0.817  -0.813  -0.808  -0.805
 -0.800  -0.799  -0.797  -0.789  -0.787  -0.781  -0.773  -0.762
 -0.756  -0.746  -0.744  -0.736  -0.725  -0.723  -0.714  -0.705
 -0.700  -0.688  -0.682  -0.666  -0.658  -0.652  -0.648  -0.641
 -0.640  -0.633  -0.627  -0.621  -0.616  -0.605  -0.598  -0.593
 -0.592  -0.588  -0.585  -0.583  -0.582  -0.578  -0.575  -0.575
 -0.560  -0.547  -0.546  -0.533  -0.531  -0.516  -0.515  -0.513
 -0.506  -0.504  -0.496  -0.495  -0.490  -0.485  -0.483  -0.478
 -0.473  -0.471  -0.469  -0.467  -0.462  -0.459  -0.453  -0.449
 -0.443  -0.439  -0.437  -0.437  -0.435  -0.434  -0.431  -0.429
 -0.428  -0.427  -0.423  -0.420  -0.419  -0.419  -0.417  -0.413
 -0.408  -0.406  -0.404  -0.401  -0.400  -0.400  -0.397  -0.394
 -0.394  -0.392  -0.391  -0.388  -0.387  -0.385  -0.383  -0.379
 -0.379  -0.376  -0.376  -0.368  -0.367  -0.364  -0.361  -0.356
 -0.356  -0.351  -0.350  -0.349  -0.348  -0.344  -0.343  -0.342
 -0.341  -0.340  -0.338  -0.337  -0.332  -0.328  -0.327  -0.325
 -0.321  -0.315  -0.314  -0.312  -0.309  -0.305  -0.304  -0.297
 -0.294  -0.292  -0.291  -0.288  -0.288  -0.283  -0.283  -0.280
 -0.275  -0.273  -0.264  -0.260  -0.256  -0.255  -0.251  -0.250
 -0.246  -0.243  -0.233  -0.230  -0.196  -0.192

          Ground-State Mulliken Net Atomic Charges

     Atom                 Charge (a.u.)
  ----------------------------------------
      1 C                     0.237260
      2 C                    -0.131366
      3 N                    -0.479743
      4 C                    -0.086299
      5 C                     0.071709
      6 C                     0.049446
      7 C                    -0.012932
      8 C                     0.051601
      9 C                     0.270087
     10 N                    -0.542496
     11 N                    -0.538121
     12 C                     0.195584
     13 C                     0.340029
     14 S                     0.606843
     15 N                    -0.565819
     16 C                    -0.234911
     17 S                     0.347398
     18 C                    -0.115597
     19 C                    -0.219435
     20 S                     0.275976
     21 C                     0.160918
     22 C                     0.028711
     23 C                    -0.319836
     24 C                    -0.039989
     25 N                    -0.406972
     26 S                     0.274140
     27 C                     0.104666
     28 C                    -0.313635
     29 C                    -0.233937
     30 H                     0.090623
     31 H                     0.148661
     32 H                     0.099015
     33 H                     0.116999
     34 H                     0.129014
     35 H                     0.108365
     36 H                     0.116104
     37 H                     0.132044
     38 H                     0.092190
     39 C                    -0.183200
     40 H                     0.120346
     41 H                     0.087220
     42 H                     0.121724
     43 C                    -0.192383
     44 H                     0.101289
     45 C                    -0.168422
     46 H                     0.098764
     47 H                     0.090637
     48 H                     0.099889
     49 C                    -0.182214
     50 H                     0.095688
     51 C                    -0.323992
     52 H                     0.098406
     53 H                     0.102189
     54 H                     0.107596
     55 H                     0.098037
     56 C                     0.285130
     57 C                    -0.109072
     58 N                    -0.504587
     59 C                    -0.094217
     60 C                     0.080899
     61 C                     0.036244
     62 C                     0.078873
     63 C                     0.059244
     64 C                     0.225041
     65 N                    -0.535072
     66 N                    -0.550209
     67 C                     0.186923
     68 C                     0.272651
     69 S                     0.605786
     70 N                    -0.556659
     71 C                    -0.192723
     72 S                     0.298350
     73 C                    -0.123843
     74 C                    -0.244429
     75 S                     0.279046
     76 C                     0.198943
     77 C                     0.089223
     78 C                    -0.310643
     79 C                    -0.063484
     80 N                    -0.450566
     81 S                     0.257156
     82 C                     0.119259
     83 C                    -0.299154
     84 C                    -0.218645
     85 H                     0.087269
     86 H                     0.104514
     87 H                     0.123410
     88 H                     0.113008
     89 H                     0.130380
     90 H                     0.138810
     91 H                     0.121318
     92 H                     0.132870
     93 H                     0.120913
     94 C                    -0.202288
     95 H                     0.121307
     96 H                     0.097312
     97 H                     0.096212
     98 C                    -0.173759
     99 H                     0.097228
    100 C                    -0.178921
    101 H                     0.093265
    102 H                     0.087923
    103 H                     0.095550
    104 C                    -0.178081
    105 H                     0.098227
    106 C                    -0.326670
    107 H                     0.100893
    108 H                     0.106450
    109 H                     0.091346
    110 H                     0.104182
  ----------------------------------------
  Sum of atomic charges =     0.000000

                    Cartesian Multipole Moments
 -----------------------------------------------------------------
    Charge (ESU x 10^10)
                 0.0000
    Dipole Moment (Debye)
         X      -1.5546      Y       2.4745      Z      -0.5131
       Tot       2.9670
    Quadrupole Moments (Debye-Ang)
        XX    -381.9685     XY     -14.9619     YY    -447.1439
        XZ     -14.5775     YZ      12.0711     ZZ    -446.5039

 Total job time:  110.20s(wall), 1216.65s(cpu)
        *  Thank you very much for using Q-Chem.  Have a nice day.  *
