 Q-Chem 4.4, Q-Chem, Inc., Pleasanton, CA (2016)
 Q-Chem 4.4.2 for Intel X86 Linux

User input:
--------------------------------------------------------------
$comment
SP
$end

$rem
MEM_STATIC 5000
MEM_TOTAL 20000
JOBTYPE SP
EXCHANGE B3LYP
BASIS 6-31g(d,p)
$end

$molecule
0 1
C         -13.931000    -15.991000    -14.848000
C         -13.254000    -16.821000    -13.951000
N         -14.752000    -14.968000    -14.469000
C         -13.377000    -16.439000    -12.633000
C         -14.915000    -14.675000    -13.222000
C         -14.285000    -15.448000    -12.177000
C         -14.487000    -15.030000    -10.753000
C         -14.394000    -16.027000     -9.744000
C         -14.818000    -13.744000    -10.285000
N         -14.726000    -15.817000     -8.475000
N         -14.843000    -12.585000    -11.017000
C         -15.141000    -13.495000     -8.959000
C         -15.145000    -14.612000     -8.096000
S         -14.930000    -11.412000     -9.981000
N         -15.327000    -12.236000     -8.623000
C         -15.740000    -14.597000     -6.698000
S         -15.107000    -15.727000     -5.414000
C         -16.777000    -13.847000     -6.192000
C         -16.244000    -15.130000     -4.218000
S         -17.986000    -12.833000     -7.027000
C         -17.070000    -14.207000     -4.857000
C         -16.424000    -15.469000     -2.796000
C         -18.749000    -12.556000     -5.419000
C         -18.282000    -13.496000     -4.481000
N         -15.487000    -16.289000     -2.363000
S         -17.280000    -14.573000     -1.554000
C         -15.555000    -16.465000     -0.989000
C         -16.464000    -15.558000     -0.386000
C         -13.837000    -16.250000    -16.326000
H         -12.565000    -17.625000    -14.190000
H         -12.745000    -16.929000    -11.898000
H         -15.540000    -13.802000    -13.040000
H         -14.144000    -17.029000    -10.089000
H         -19.648000    -11.954000     -5.396000
H         -18.757000    -13.650000     -3.519000
H         -14.854000    -17.100000     -0.463000
H         -16.804000    -15.530000      0.641000
H         -13.762000    -17.330000    -16.505000
C         -12.653000    -15.456000    -17.017000
H         -14.786000    -15.946000    -16.785000
H         -12.886000    -14.402000    -16.816000
H         -12.745000    -15.781000    -18.060000
C         -11.356000    -15.841000    -16.436000
H         -11.298000    -15.393000    -15.437000
C         -10.096000    -15.268000    -17.239000
H         -11.335000    -16.938000    -16.407000
H          -9.727000    -14.352000    -16.763000
H         -10.333000    -14.886000    -18.240000
C          -8.974000    -16.337000    -17.270000
H          -8.839000    -16.749000    -16.262000
C          -7.601000    -15.892000    -17.755000
H          -9.156000    -17.201000    -17.921000
H          -7.266000    -15.035000    -17.157000
H          -7.604000    -15.571000    -18.804000
H          -6.846000    -16.675000    -17.615000
C          -7.085000    -19.662000     -5.761000
C          -6.563000    -18.627000     -4.947000
N          -8.312000    -20.085000     -5.670000
C          -7.305000    -18.082000     -3.900000
C          -9.089000    -19.596000     -4.655000
C          -8.631000    -18.570000     -3.778000
C          -9.484000    -18.259000     -2.565000
C          -8.837000    -17.695000     -1.443000
C         -10.848000    -18.488000     -2.435000
N          -9.487000    -17.486000     -0.255000
N         -11.663000    -18.943000     -3.421000
C         -11.520000    -18.278000     -1.265000
C         -10.799000    -17.896000     -0.139000
S         -13.218000    -18.915000     -2.873000
N         -12.867000    -18.486000     -1.327000
C         -11.498000    -17.800000      1.179000
S         -13.106000    -18.657000      1.661000
C         -10.897000    -17.260000      2.317000
C         -12.839000    -18.149000      3.347000
S          -9.455000    -16.268000      2.495000
C         -11.714000    -17.296000      3.453000
C         -13.819000    -18.394000      4.380000
C          -9.909000    -15.982000      4.171000
C         -11.138000    -16.588000      4.551000
N         -14.845000    -19.105000      3.977000
S         -13.837000    -17.819000      6.070000
C         -15.781000    -19.328000      5.004000
C         -15.345000    -18.788000      6.227000
C          -6.365000    -20.062000     -7.053000
H          -5.527000    -18.349000     -5.121000
H          -6.921000    -17.236000     -3.338000
H         -10.090000    -20.024000     -4.619000
H          -7.815000    -17.322000     -1.477000
H          -9.170000    -15.530000      4.819000
H         -11.452000    -16.593000      5.589000
H         -16.628000    -19.980000      4.840000
H         -15.761000    -18.715000      7.224000
H          -7.037000    -19.815000     -7.884000
C          -5.946000    -21.553000     -7.195000
H          -5.514000    -19.382000     -7.188000
H          -6.676000    -22.348000     -7.000000
H          -5.125000    -21.598000     -6.469000
C          -5.353000    -21.948000     -8.549000
H          -6.141000    -21.999000     -9.311000
C          -4.618000    -23.275000     -8.356000
H          -4.609000    -21.250000     -8.950000
H          -3.661000    -23.067000     -7.861000
H          -4.475000    -23.526000     -9.414000
C          -5.297000    -24.437000     -7.654000
H          -4.692000    -25.352000     -7.624000
C          -6.737000    -24.818000     -8.158000
H          -5.366000    -24.192000     -6.587000
H          -6.684000    -25.572000     -8.952000
H          -7.268000    -23.948000     -8.563000
H          -7.217000    -25.295000     -7.294000
$end

--------------------------------------------------------------

             Standard Nuclear Orientation (Angstroms)
    I     Atom           X                Y                Z
 ----------------------------------------------------------------
    1      C       9.6804971823    -1.2670621839     1.2374744404
    2      C       8.7151855165    -0.2735358390     1.4189042890
    3      N       9.3978197983    -2.5391997883     0.8300797767
    4      C       7.4489239080    -0.6444248430     1.0224198813
    5      C       8.1899103644    -2.8893127543     0.5371587793
    6      C       7.0829164767    -1.9727056285     0.6815537562
    7      C       5.7129864856    -2.4331219063     0.2883455791
    8      C       4.5957356761    -1.8277621108     0.9255497431
    9      C       5.3909812932    -3.4569107001    -0.6229996693
   10      N       3.3500316130    -2.2700083715     0.7939266750
   11      N       6.2552420504    -4.1098645237    -1.4634963367
   12      C       4.0937188466    -3.9162782036    -0.7982070940
   13      C       3.1034861181    -3.3162485504     0.0091822535
   14      S       5.3648438732    -4.8914472653    -2.4897095232
   15      N       3.9046078036    -4.8005111377    -1.7547331687
   16      C       1.6970561794    -3.8680483291     0.1708171259
   17      S       0.3102614570    -2.7547053070     0.5751841783
   18      C       1.2479640378    -5.1666000499     0.0934564346
   19      C      -0.8453148122    -4.0752149921     0.5973575279
   20      S       2.1548606156    -6.7039501754     0.0588849299
   21      C      -0.1301417259    -5.2542119370     0.3948244181
   22      C      -2.3031957677    -4.0855530642     0.8068360327
   23      C       0.5654916081    -7.5513445544     0.0786567369
   24      C      -0.4611618918    -6.6689260139     0.4644716026
   25      N      -2.7976873257    -2.8661482220     0.8867605584
   26      S      -3.4585684681    -5.3479953206     0.4202232129
   27      C      -4.1844210251    -2.8757311624     0.9055705086
   28      C      -4.7063772693    -4.1627029481     0.6160807818
   29      C      11.1192106404    -0.9838310551     1.5695658632
   30      H       8.8805039489     0.7598361513     1.7071232086
   31      H       6.6834837268     0.1245754249     0.9725308365
   32      H       8.0916936293    -3.9073098415     0.1631087780
   33      H       4.8268549837    -1.0373239125     1.6378139639
   34      H       0.5827895829    -8.6331841637     0.1000539308
   35      H      -1.4509908257    -7.0086508068     0.7466253668
   36      H      -4.7574197998    -1.9591441704     0.9588873935
   37      H      -5.7340760084    -4.4981081610     0.6655948696
   38      H      11.1700506206    -0.2989845651     2.4254084783
   39      C      11.9421212375    -0.4384225107     0.3305659969
   40      H      11.5772331797    -1.9176171069     1.9187892343
   41      H      11.8607093851    -1.2389042037    -0.4165666350
   42      H      12.9347121999    -0.2872709346     0.7708549730
   43      C      11.3657461412     0.8222219327    -0.1659844391
   44      H      10.4303390614     0.5747325682    -0.6815730441
   45      C      12.2760007399     1.5604969872    -1.2555368745
   46      H      11.2062571264     1.4642643788     0.7098213336
   47      H      11.9266544820     1.3217083635    -2.2668381082
   48      H      13.3064827127     1.1876288512    -1.3118419102
   49      C      12.2186188618     3.0920485422    -1.0238837837
   50      H      11.1739629260     3.3980911368    -0.8858080577
   51      C      12.8020545467     3.9835009554    -2.1116771449
   52      H      12.7544854792     3.4614632685    -0.1408205196
   53      H      12.3233837233     3.7456738565    -3.0701084225
   54      H      13.8811857455     3.8392780705    -2.2463122639
   55      H      12.5962145228     5.0440686981    -1.9231567277
   56      C       0.4687461117     6.0845607003    -0.7662244347
   57      C      -0.1962366424     5.8900296834    -2.0016436430
   58      N       0.2840566747     5.3158656578     0.2670890431
   59      C      -1.1961420700     4.9290798262    -2.1450399743
   60      C      -0.6920577308     4.3594236515     0.1929651201
   61      C      -1.4229046951     4.1150441874    -1.0060804971
   62      C      -2.6195045594     3.1900154230    -0.9156949351
   63      C      -3.6420623747     3.3546196443    -1.8763561473
   64      C      -2.8245195360     2.1967052185     0.0335893727
   65      N      -4.8188503522     2.6552950153    -1.8160227471
   66      N      -1.9298169512     1.8267308435     0.9854676457
   67      C      -3.9841126394     1.4794744886     0.1078046983
   68      C      -5.0298137806     1.8084722495    -0.7477130378
   69      S      -2.5255575557     0.5136030417     1.7854060859
   70      N      -3.9955118218     0.4957043389     1.0531000761
   71      C      -6.3508692882     1.1283023721    -0.5830245933
   72      S      -6.9890743771     0.2792969168     0.9739985284
   73      C      -7.3938164479     1.2682373052    -1.4998257913
   74      C      -8.5914552508     0.1418912777     0.2088552568
   75      S      -7.4001681084     1.8779947753    -3.1500583458
   76      C      -8.5543225292     0.5737798779    -1.1389442082
   77      C      -9.6806228467    -0.5629469109     0.8448042139
   78      C      -9.0449170991     1.2762445466    -3.3220624728
   79      C      -9.5383409952     0.5989240357    -2.1732166240
   80      N      -9.4025417659    -0.9829329300     2.0559560031
   81      S     -11.2890959770    -0.9725185832     0.1874502498
   82      C     -10.4815524847    -1.6639958511     2.6496252428
   83      C     -11.6147107343    -1.6627605605     1.8169333097
   84      C       1.7283223192     6.9543960915    -0.6990071041
   85      H       0.0466204928     6.5880678084    -2.7982735370
   86      H      -1.6386680051     4.7391436557    -3.1182362792
   87      H      -0.8147268100     3.7811337130     1.1078498364
   88      H      -3.5272207016     3.9814399883    -2.7587827145
   89      H      -9.6073386553     1.5989311616    -4.1880210986
   90      H     -10.5799819196     0.3032418841    -2.1130398031
   91      H     -10.4271488476    -1.9802529396     3.6823065577
   92      H     -12.6099594994    -2.0849997767     1.8768327256
   93      H       2.5584631353     6.2950328734    -0.4174749175
   94      C       1.7054530661     8.1544768408     0.2899768151
   95      H       1.9740707022     7.2697587584    -1.7212497958
   96      H       1.3907043767     8.0016190903     1.3294563823
   97      H       1.0090041415     8.8249411463    -0.2282687933
   98      C       3.0226177233     8.9197319561     0.4329868652
   99      H       3.7444551326     8.3325362709     1.0146577186
  100      C       2.6982880080    10.2722153035     1.0685984060
  101      H       3.5306243479     9.1475537543    -0.5112416546
  102      H       2.2661910911    10.9189892269     0.2945740224
  103      H       3.7230011667    10.5744972555     1.3163938134
  104      C       1.8383528208    10.3505945105     2.3169802281
  105      H       1.7204871684    11.3677841765     2.7114201743
  106      C       2.2414402244     9.4067009607     3.5083502427
  107      H       0.8066274366    10.1120810284     2.0307477169
  108      H       2.9407389756     9.9117562335     4.1848570260
  109      H       2.7286069591     8.4906902457     3.1527114618
  110      H       1.3099558708     9.2510505951     4.0673984185
 ----------------------------------------------------------------

    9   -5663.4857773878      6.66E-06 Convergence criterion met
 Total energy in the final basis set = -5663.4857773878

                    Orbital Energies (a.u.)
 --------------------------------------------------------------

 Alpha MOs
 -- Occupied --
-88.989 -88.987 -88.930 -88.928 -88.927 -88.920 -88.914 -88.908
-14.380 -14.379 -14.379 -14.372 -14.350 -14.346 -14.345 -14.340
-14.322 -14.320 -10.271 -10.266 -10.260 -10.258 -10.255 -10.249
-10.245 -10.244 -10.243 -10.243 -10.242 -10.240 -10.239 -10.239
-10.239 -10.236 -10.233 -10.233 -10.231 -10.228 -10.228 -10.228
-10.226 -10.225 -10.222 -10.221 -10.221 -10.219 -10.217 -10.217
-10.214 -10.213 -10.211 -10.210 -10.209 -10.207 -10.198 -10.197
-10.181 -10.181 -10.180 -10.179 -10.178 -10.178 -10.175 -10.174
-10.174 -10.172 -10.171 -10.169  -8.046  -8.041  -7.990  -7.989
 -7.983  -7.978  -7.973  -7.968  -6.011  -6.007  -6.005  -6.004
 -6.001  -5.999  -5.954  -5.953  -5.951  -5.950  -5.948  -5.947
 -5.946  -5.944  -5.942  -5.939  -5.939  -5.938  -5.935  -5.934
 -5.932  -5.930  -5.929  -5.924  -1.053  -1.026  -0.964  -0.962
 -0.962  -0.944  -0.944  -0.938  -0.911  -0.902  -0.899  -0.889
 -0.835  -0.834  -0.829  -0.827  -0.812  -0.809  -0.808  -0.805
 -0.804  -0.798  -0.793  -0.790  -0.781  -0.776  -0.766  -0.760
 -0.746  -0.745  -0.736  -0.733  -0.721  -0.719  -0.708  -0.706
 -0.690  -0.688  -0.672  -0.671  -0.656  -0.653  -0.648  -0.644
 -0.632  -0.629  -0.624  -0.621  -0.613  -0.609  -0.602  -0.598
 -0.596  -0.591  -0.584  -0.578  -0.574  -0.573  -0.568  -0.545
 -0.543  -0.539  -0.535  -0.535  -0.521  -0.520  -0.516  -0.514
 -0.507  -0.506  -0.499  -0.492  -0.484  -0.481  -0.475  -0.473
 -0.472  -0.469  -0.468  -0.463  -0.462  -0.459  -0.448  -0.447
 -0.447  -0.443  -0.439  -0.435  -0.432  -0.431  -0.430  -0.428
 -0.426  -0.425  -0.423  -0.417  -0.415  -0.413  -0.412  -0.411
 -0.409  -0.404  -0.403  -0.400  -0.399  -0.399  -0.396  -0.395
 -0.393  -0.392  -0.389  -0.388  -0.387  -0.386  -0.382  -0.380
 -0.378  -0.376  -0.371  -0.370  -0.367  -0.365  -0.357  -0.357
 -0.354  -0.353  -0.347  -0.346  -0.344  -0.343  -0.337  -0.335
 -0.333  -0.332  -0.331  -0.330  -0.327  -0.327  -0.323  -0.319
 -0.317  -0.313  -0.309  -0.304  -0.299  -0.299  -0.296  -0.293
 -0.291  -0.291  -0.289  -0.289  -0.286  -0.284  -0.281  -0.278
 -0.274  -0.273  -0.267  -0.262  -0.256  -0.248  -0.246  -0.245
 -0.243  -0.242  -0.227  -0.226  -0.190  -0.190

          Ground-State Mulliken Net Atomic Charges

     Atom                 Charge (a.u.)
  ----------------------------------------
      1 C                     0.255561
      2 C                    -0.095306
      3 N                    -0.471291
      4 C                    -0.092095
      5 C                     0.096576
      6 C                     0.019081
      7 C                     0.043003
      8 C                     0.063671
      9 C                     0.200125
     10 N                    -0.496913
     11 N                    -0.527791
     12 C                     0.224915
     13 C                     0.268791
     14 S                     0.610185
     15 N                    -0.553378
     16 C                    -0.237444
     17 S                     0.329872
     18 C                    -0.098157
     19 C                    -0.190375
     20 S                     0.253285
     21 C                     0.127344
     22 C                     0.056740
     23 C                    -0.285749
     24 C                    -0.103436
     25 N                    -0.442573
     26 S                     0.286095
     27 C                     0.107935
     28 C                    -0.326276
     29 C                    -0.244810
     30 H                     0.102767
     31 H                     0.094069
     32 H                     0.119285
     33 H                     0.111891
     34 H                     0.132454
     35 H                     0.106252
     36 H                     0.156193
     37 H                     0.140645
     38 H                     0.093967
     39 C                    -0.174991
     40 H                     0.113229
     41 H                     0.113024
     42 H                     0.097660
     43 C                    -0.173929
     44 H                     0.105793
     45 C                    -0.180433
     46 H                     0.090936
     47 H                     0.093573
     48 H                     0.092400
     49 C                    -0.175188
     50 H                     0.093318
     51 C                    -0.322704
     52 H                     0.093956
     53 H                     0.096806
     54 H                     0.101087
     55 H                     0.099063
     56 C                     0.279686
     57 C                    -0.131869
     58 N                    -0.470408
     59 C                    -0.074980
     60 C                     0.063431
     61 C                     0.028322
     62 C                     0.059726
     63 C                     0.056692
     64 C                     0.247865
     65 N                    -0.539057
     66 N                    -0.586111
     67 C                     0.238049
     68 C                     0.285938
     69 S                     0.648623
     70 N                    -0.598547
     71 C                    -0.218406
     72 S                     0.348928
     73 C                    -0.122862
     74 C                    -0.236806
     75 S                     0.303921
     76 C                     0.134248
     77 C                     0.097821
     78 C                    -0.310947
     79 C                    -0.088884
     80 N                    -0.444944
     81 S                     0.255327
     82 C                     0.120526
     83 C                    -0.313128
     84 C                    -0.229874
     85 H                     0.085690
     86 H                     0.108328
     87 H                     0.138471
     88 H                     0.110126
     89 H                     0.133823
     90 H                     0.115607
     91 H                     0.126524
     92 H                     0.136410
     93 H                     0.115084
     94 C                    -0.162457
     95 H                     0.085927
     96 H                     0.121867
     97 H                     0.088200
     98 C                    -0.189091
     99 H                     0.092081
    100 C                    -0.167292
    101 H                     0.087914
    102 H                     0.090819
    103 H                     0.082867
    104 C                    -0.189116
    105 H                     0.091725
    106 C                    -0.322594
    107 H                     0.097332
    108 H                     0.102340
    109 H                     0.110674
    110 H                     0.107750
  ----------------------------------------
  Sum of atomic charges =     0.000000

                    Cartesian Multipole Moments
 -----------------------------------------------------------------
    Charge (ESU x 10^10)
                 0.0000
    Dipole Moment (Debye)
         X      -2.9989      Y      -0.4475      Z      -1.6957
       Tot       3.4741
    Quadrupole Moments (Debye-Ang)
        XX    -388.1124     XY      32.1433     YY    -421.9011
        XZ       1.0646     YZ     -10.0909     ZZ    -435.2439

 Total job time:  85.37s(wall), 913.40s(cpu)
        *  Thank you very much for using Q-Chem.  Have a nice day.  *
