 Q-Chem 4.4, Q-Chem, Inc., Pleasanton, CA (2016)
 Q-Chem 4.4.2 for Intel X86 Linux

User input:
--------------------------------------------------------------
$comment
SP
$end

$rem
MEM_STATIC 5000
MEM_TOTAL 20000
JOBTYPE SP
EXCHANGE B3LYP
BASIS 6-31g(d,p)
$end

$molecule
0 1
C         -13.687000     -6.158000     -9.296000
C         -12.573000     -6.486000     -8.512000
N         -14.205000     -7.077000    -10.209000
C         -11.944000     -7.685000     -8.658000
C         -13.634000     -8.254000    -10.301000
C         -12.510000     -8.641000     -9.555000
C         -11.882000     -9.959000     -9.721000
C         -11.321000    -10.441000    -10.940000
C         -11.902000    -10.897000     -8.650000
N         -10.864000    -11.688000    -11.117000
N         -12.384000    -10.631000     -7.446000
C         -11.330000    -12.151000     -8.859000
C         -10.819000    -12.565000    -10.126000
S         -12.044000    -12.015000     -6.573000
N         -11.372000    -12.907000     -7.760000
C         -10.537000    -13.958000    -10.422000
S         -10.837000    -15.297000     -9.236000
C         -10.032000    -14.464000    -11.558000
C         -10.242000    -16.454000    -10.418000
S          -9.241000    -13.561000    -12.864000
C          -9.821000    -15.800000    -11.532000
C          -9.945000    -17.856000    -10.053000
C          -8.606000    -15.109000    -13.446000
C          -9.005000    -16.191000    -12.622000
N          -9.101000    -18.530000    -10.856000
S         -10.474000    -18.495000     -8.547000
C          -8.947000    -19.760000    -10.222000
C          -9.677000    -19.956000     -9.128000
C         -14.504000     -4.865000     -9.100000
H         -12.175000     -5.705000     -7.872000
H         -11.112000     -8.035000     -8.053000
H         -13.989000     -8.983000    -11.028000
H         -11.582000     -9.921000    -11.861000
H          -7.985000    -15.229000    -14.324000
H          -8.707000    -17.204000    -12.866000
H          -8.405000    -20.520000    -10.769000
H          -9.612000    -20.797000     -8.450000
H         -13.751000     -4.100000     -9.323000
C         -15.092000     -4.691000     -7.639000
H         -15.244000     -4.911000     -9.909000
H         -15.536000     -3.688000     -7.621000
H         -14.237000     -4.575000     -6.961000
C         -16.095000     -5.801000     -7.113000
H         -16.467000     -5.408000     -6.159000
C         -15.378000     -7.167000     -6.959000
H         -16.916000     -5.958000     -7.824000
H         -14.323000     -7.197000     -6.657000
H         -15.392000     -7.708000     -7.913000
C         -16.046000     -8.021000     -5.835000
H         -15.412000     -8.911000     -5.744000
C         -17.460000     -8.434000     -6.191000
H         -15.936000     -7.479000     -4.887000
H         -17.608000     -8.489000     -7.277000
H         -18.235000     -7.833000     -5.700000
H         -17.719000     -9.419000     -5.784000
C          -7.085000    -19.662000     -5.761000
C          -6.563000    -18.627000     -4.947000
N          -8.312000    -20.085000     -5.670000
C          -7.305000    -18.082000     -3.900000
C          -9.089000    -19.596000     -4.655000
C          -8.631000    -18.570000     -3.778000
C          -9.484000    -18.259000     -2.565000
C          -8.837000    -17.695000     -1.443000
C         -10.848000    -18.488000     -2.435000
N          -9.487000    -17.486000     -0.255000
N         -11.663000    -18.943000     -3.421000
C         -11.520000    -18.278000     -1.265000
C         -10.799000    -17.896000     -0.139000
S         -13.218000    -18.915000     -2.873000
N         -12.867000    -18.486000     -1.327000
C         -11.498000    -17.800000      1.179000
S         -13.106000    -18.657000      1.661000
C         -10.897000    -17.260000      2.317000
C         -12.839000    -18.149000      3.347000
S          -9.455000    -16.268000      2.495000
C         -11.714000    -17.296000      3.453000
C         -13.819000    -18.394000      4.380000
C          -9.909000    -15.982000      4.171000
C         -11.138000    -16.588000      4.551000
N         -14.845000    -19.105000      3.977000
S         -13.837000    -17.819000      6.070000
C         -15.781000    -19.328000      5.004000
C         -15.345000    -18.788000      6.227000
C          -6.365000    -20.062000     -7.053000
H          -5.527000    -18.349000     -5.121000
H          -6.921000    -17.236000     -3.338000
H         -10.090000    -20.024000     -4.619000
H          -7.815000    -17.322000     -1.477000
H          -9.170000    -15.530000      4.819000
H         -11.452000    -16.593000      5.589000
H         -16.628000    -19.980000      4.840000
H         -15.761000    -18.715000      7.224000
H          -7.037000    -19.815000     -7.884000
C          -5.946000    -21.553000     -7.195000
H          -5.514000    -19.382000     -7.188000
H          -6.676000    -22.348000     -7.000000
H          -5.125000    -21.598000     -6.469000
C          -5.353000    -21.948000     -8.549000
H          -6.141000    -21.999000     -9.311000
C          -4.618000    -23.275000     -8.356000
H          -4.609000    -21.250000     -8.950000
H          -3.661000    -23.067000     -7.861000
H          -4.475000    -23.526000     -9.414000
C          -5.297000    -24.437000     -7.654000
H          -4.692000    -25.352000     -7.624000
C          -6.737000    -24.818000     -8.158000
H          -5.366000    -24.192000     -6.587000
H          -6.684000    -25.572000     -8.952000
H          -7.268000    -23.948000     -8.563000
H          -7.217000    -25.295000     -7.294000
$end

--------------------------------------------------------------

             Standard Nuclear Orientation (Angstroms)
    I     Atom           X                Y                Z
 ----------------------------------------------------------------
    1      C      -9.1085990023     5.2876531937    -0.8364110509
    2      C      -8.2191804248     4.9164029896    -1.8534380319
    3      N      -9.3042826137     4.4598591599     0.2694456134
    4      C      -7.5660352559     3.7222403926    -1.8094484862
    5      C      -8.6254164135     3.3399050988     0.3378384733
    6      C      -7.7295486083     2.9040807903    -0.6506649651
    7      C      -7.0198994175     1.6216245021    -0.5468964964
    8      C      -7.6561565694     0.3480227697    -0.4686567117
    9      C      -5.6031345173     1.6013624358    -0.4067120951
   10      N      -7.0090806047    -0.8043537764    -0.2484114123
   11      N      -4.8424136581     2.6839689693    -0.4510163592
   12      C      -4.9699380390     0.3667243450    -0.2721312465
   13      C      -5.6886626577    -0.8623071105    -0.1685812399
   14      S      -3.2885162997     2.0752037589    -0.3616132377
   15      N      -3.6431082807     0.4924159307    -0.2026660202
   16      C      -5.0578549879    -2.0834382274     0.2988687350
   17      S      -3.3236450350    -2.1569437781     0.8248247914
   18      C      -5.6173376042    -3.2982013441     0.4123886556
   19      C      -3.5178825244    -3.8701932524     1.1666522864
   20      S      -7.1506021842    -3.8327840086    -0.3017871648
   21      C      -4.7708637295    -4.2693923458     0.8251392069
   22      C      -2.3576630940    -4.7449708800     1.4417758508
   23      C      -6.6297503597    -5.4961442557     0.0147551945
   24      C      -5.3444865310    -5.5467152637     0.6101042212
   25      N      -2.5302989304    -6.0659178039     1.2501588056
   26      S      -0.8103906861    -4.0658152603     1.7594136006
   27      C      -1.2708021260    -6.6066080678     1.4948909824
   28      C      -0.3315556726    -5.7565291257     1.8990368621
   29      C      -9.7911057756     6.6690938433    -0.7767433383
   30      H      -8.1630458657     5.5679708887    -2.7196211442
   31      H      -6.8224729865     3.3867979405    -2.5273220913
   32      H      -8.7793353972     2.6524642448     1.1683377319
   33      H      -8.7175044004     0.3235011059    -0.2243178699
   34      H      -7.2126673334    -6.3783659326    -0.2150658549
   35      H      -4.9027004504    -6.4990733638     0.8790802577
   36      H      -1.2074271284    -7.6861947293     1.5272831109
   37      H       0.7205578238    -5.9719053997     2.0326791131
   38      H     -10.3858968541     6.6540602178    -1.6975910798
   39      C      -8.7776932214     7.8869986743    -0.7611286736
   40      H     -10.4494351936     6.5859010205     0.0972579955
   41      H      -9.4013303107     8.7861712548    -0.8388104050
   42      H      -8.2584158441     7.8844159493    -1.7278289037
   43      C      -7.7488996075     7.9721619975     0.4426636293
   44      H      -7.2563735399     8.9441064575     0.3173997504
   45      C      -6.7513007012     6.7859830056     0.4034613193
   46      H      -8.2672227905     7.9121082412     1.4080369376
   47      H      -6.4282188550     6.3781851370    -0.5632071963
   48      H      -7.1778989448     5.9193400403     0.9230158489
   49      C      -5.3841662088     7.1890641024     1.0417284334
   50      H      -4.7311615613     6.3237316434     0.8770418651
   51      C      -5.5029037024     7.4654330243     2.5270642966
   52      H      -4.9569287059     8.0028019186     0.4418393748
   53      H      -6.3379588570     6.9153114986     2.9791419401
   54      H      -5.5284134687     8.5324585641     2.7794781415
   55      H      -4.5978460899     7.1778602190     3.0758152417
   56      C       2.3155159124    -5.0875790373    -1.3700772080
   57      C       2.3625519835    -4.2398570774    -2.5038585302
   58      N       2.5682171693    -4.6722011371    -0.1632871373
   59      C       2.8130907398    -2.9238862105    -2.4088137686
   60      C       3.0253173958    -3.3919972200    -0.0045032792
   61      C       3.1236789991    -2.4823193889    -1.0973803257
   62      C       3.8409782014    -1.1709888984    -0.8492005539
   63      C       4.4260399449    -0.5293688459    -1.9634785553
   64      C       3.9979664280    -0.5355623201     0.3761258354
   65      N       5.1982847207     0.5952068423    -1.8350553189
   66      N       3.4437125118    -0.9437078319     1.5464530707
   67      C       4.7539869755     0.5913870656     0.5277899834
   68      C       5.4575503385     1.0772455943    -0.5688325972
   69      S       3.7631654091     0.1877835367     2.7026494766
   70      N       4.7473466174     1.1270595534     1.7825919166
   71      C       6.3983355363     2.2243202063    -0.3842139467
   72      S       7.2006277368     2.7681180516     1.2322785923
   73      C       7.0077841751     2.8830394220    -1.4530948341
   74      C       8.2422770744     3.8793987845     0.3092559545
   75      S       6.6352103794     2.8741621250    -3.1724615665
   76      C       7.8774967770     3.9063446860    -1.0584718155
   77      C       9.1474549950     4.7951269605     0.9647014823
   78      C       7.7589716815     4.2123363291    -3.3806401807
   79      C       8.3515361790     4.6663763132    -2.1703542603
   80      N       9.1970410652     4.6474985709     2.2671426826
   81      S      10.1337138087     6.1017608648     0.2526267725
   82      C      10.0868361068     5.5513135855     2.8770092282
   83      C      10.7532351154     6.3427778118     1.9246848402
   84      C       1.5815455532    -6.4305511100    -1.4434088090
   85      H       2.1204590680    -4.6953405111    -3.4603008242
   86      H       2.7670941503    -2.2649152941    -3.2705896357
   87      H       3.2516559728    -3.1282506054     1.0278191374
   88      H       4.2360532284    -0.8390413691    -2.9895277627
   89      H       8.0428703427     4.4741930359    -4.3911655961
   90      H       9.1562615098     5.3930862524    -2.1897141736
   91      H      10.3008118281     5.4787507955     3.9345337112
   92      H      11.4717010233     7.1516606746     1.9683798442
   93      H       0.7318156113    -6.3694943352    -0.7524782076
   94      C       2.4023733422    -7.7037255730    -1.0911666657
   95      H       1.1142100032    -6.5046407999    -2.4338300334
   96      H       2.9946962195    -7.7356390977    -0.1686239101
   97      H       3.0554470774    -7.7677706214    -1.9701063270
   98      C       1.6083745532    -9.0106693615    -1.0416302467
   99      H       0.9872769047    -9.0463855691    -0.1376661636
  100      C       2.6142305330   -10.1594938370    -1.1244497647
  101      H       0.9129412442    -9.1618323527    -1.8753347885
  102      H       2.9391171185   -10.2549650940    -2.1682274928
  103      H       1.9387340606   -10.9751483785    -0.8394476863
  104      C       3.8341458047   -10.1822306154    -0.2214665042
  105      H       4.4522829099   -11.0819731153    -0.3333590996
  106      C       3.5772168145    -9.9519159860     1.3127172089
  107      H       4.5250343724    -9.4043679684    -0.5691411932
  108      H       3.4109724032   -10.9059654657     1.8264422190
  109      H       2.6943659602    -9.3247012951     1.4861014654
  110      H       4.5210332568    -9.5421051985     1.6944116440
 ----------------------------------------------------------------

    9   -5663.4956931284      6.42E-06 Convergence criterion met
 Total energy in the final basis set = -5663.4956931284

                    Orbital Energies (a.u.)
 --------------------------------------------------------------

 Alpha MOs
 -- Occupied --
-88.993 -88.984 -88.931 -88.928 -88.924 -88.920 -88.916 -88.906
-14.386 -14.385 -14.379 -14.378 -14.354 -14.347 -14.344 -14.341
-14.328 -14.326 -10.272 -10.266 -10.263 -10.259 -10.251 -10.250
-10.249 -10.249 -10.247 -10.246 -10.244 -10.243 -10.241 -10.237
-10.235 -10.234 -10.234 -10.233 -10.229 -10.226 -10.225 -10.225
-10.222 -10.220 -10.220 -10.220 -10.219 -10.218 -10.218 -10.217
-10.216 -10.212 -10.207 -10.205 -10.202 -10.197 -10.194 -10.190
-10.189 -10.189 -10.183 -10.181 -10.179 -10.178 -10.177 -10.175
-10.175 -10.168 -10.165 -10.163  -8.048  -8.040  -7.991  -7.986
 -7.984  -7.979  -7.975  -7.965  -6.013  -6.008  -6.006  -6.005
 -5.999  -5.997  -5.955  -5.952  -5.950  -5.949  -5.948  -5.947
 -5.945  -5.943  -5.943  -5.940  -5.940  -5.940  -5.936  -5.936
 -5.932  -5.930  -5.926  -5.921  -1.038  -1.033  -0.964  -0.964
 -0.960  -0.948  -0.944  -0.934  -0.916  -0.907  -0.904  -0.894
 -0.836  -0.835  -0.832  -0.828  -0.814  -0.809  -0.806  -0.804
 -0.801  -0.799  -0.794  -0.793  -0.780  -0.779  -0.764  -0.762
 -0.747  -0.745  -0.740  -0.733  -0.723  -0.722  -0.710  -0.704
 -0.694  -0.686  -0.675  -0.671  -0.657  -0.654  -0.649  -0.640
 -0.636  -0.633  -0.626  -0.624  -0.616  -0.613  -0.604  -0.599
 -0.598  -0.588  -0.582  -0.580  -0.577  -0.576  -0.553  -0.552
 -0.546  -0.541  -0.539  -0.538  -0.524  -0.521  -0.519  -0.510
 -0.509  -0.501  -0.496  -0.492  -0.489  -0.479  -0.476  -0.474
 -0.472  -0.469  -0.466  -0.464  -0.461  -0.454  -0.451  -0.450
 -0.443  -0.441  -0.439  -0.433  -0.432  -0.430  -0.429  -0.429
 -0.425  -0.422  -0.421  -0.420  -0.419  -0.415  -0.412  -0.410
 -0.407  -0.407  -0.406  -0.403  -0.401  -0.401  -0.397  -0.395
 -0.394  -0.392  -0.391  -0.389  -0.386  -0.384  -0.382  -0.381
 -0.380  -0.376  -0.375  -0.371  -0.370  -0.359  -0.358  -0.357
 -0.352  -0.349  -0.348  -0.348  -0.344  -0.343  -0.341  -0.339
 -0.337  -0.336  -0.332  -0.332  -0.331  -0.329  -0.322  -0.318
 -0.312  -0.312  -0.309  -0.303  -0.300  -0.300  -0.296  -0.294
 -0.294  -0.290  -0.290  -0.287  -0.286  -0.285  -0.284  -0.281
 -0.278  -0.268  -0.266  -0.258  -0.257  -0.254  -0.251  -0.248
 -0.247  -0.242  -0.231  -0.230  -0.192  -0.190

          Ground-State Mulliken Net Atomic Charges

     Atom                 Charge (a.u.)
  ----------------------------------------
      1 C                     0.239594
      2 C                    -0.097184
      3 N                    -0.475872
      4 C                    -0.048912
      5 C                     0.089584
      6 C                     0.033881
      7 C                    -0.047112
      8 C                     0.055260
      9 C                     0.280133
     10 N                    -0.513370
     11 N                    -0.566604
     12 C                     0.190966
     13 C                     0.335763
     14 S                     0.582125
     15 N                    -0.562389
     16 C                    -0.214441
     17 S                     0.319191
     18 C                    -0.123769
     19 C                    -0.256825
     20 S                     0.280468
     21 C                     0.190548
     22 C                     0.076761
     23 C                    -0.308830
     24 C                    -0.068945
     25 N                    -0.444469
     26 S                     0.286362
     27 C                     0.118109
     28 C                    -0.294319
     29 C                    -0.226770
     30 H                     0.086687
     31 H                     0.102970
     32 H                     0.096770
     33 H                     0.115625
     34 H                     0.127081
     35 H                     0.125367
     36 H                     0.110892
     37 H                     0.143983
     38 H                     0.105007
     39 C                    -0.189202
     40 H                     0.122310
     41 H                     0.092870
     42 H                     0.093542
     43 C                    -0.164475
     44 H                     0.093596
     45 C                    -0.186379
     46 H                     0.107414
     47 H                     0.094071
     48 H                     0.111149
     49 C                    -0.185130
     50 H                     0.093167
     51 C                    -0.318538
     52 H                     0.088082
     53 H                     0.106673
     54 H                     0.100943
     55 H                     0.095718
     56 C                     0.286160
     57 C                    -0.129676
     58 N                    -0.482540
     59 C                    -0.073921
     60 C                     0.062449
     61 C                     0.029356
     62 C                     0.056011
     63 C                     0.059008
     64 C                     0.249916
     65 N                    -0.538618
     66 N                    -0.587815
     67 C                     0.227667
     68 C                     0.284757
     69 S                     0.614030
     70 N                    -0.572876
     71 C                    -0.218833
     72 S                     0.362188
     73 C                    -0.121836
     74 C                    -0.237149
     75 S                     0.303057
     76 C                     0.133923
     77 C                     0.098853
     78 C                    -0.311227
     79 C                    -0.087862
     80 N                    -0.443031
     81 S                     0.257704
     82 C                     0.122715
     83 C                    -0.312695
     84 C                    -0.241282
     85 H                     0.089040
     86 H                     0.109949
     87 H                     0.135303
     88 H                     0.111484
     89 H                     0.134004
     90 H                     0.116183
     91 H                     0.127316
     92 H                     0.137472
     93 H                     0.124228
     94 C                    -0.164476
     95 H                     0.088532
     96 H                     0.117357
     97 H                     0.089792
     98 C                    -0.189056
     99 H                     0.088400
    100 C                    -0.168653
    101 H                     0.091593
    102 H                     0.092424
    103 H                     0.084017
    104 C                    -0.188657
    105 H                     0.093163
    106 C                    -0.322002
    107 H                     0.097395
    108 H                     0.104208
    109 H                     0.105447
    110 H                     0.107971
  ----------------------------------------
  Sum of atomic charges =     0.000000

                    Cartesian Multipole Moments
 -----------------------------------------------------------------
    Charge (ESU x 10^10)
                 0.0000
    Dipole Moment (Debye)
         X       4.7452      Y       1.7337      Z      -2.8240
       Tot       5.7876
    Quadrupole Moments (Debye-Ang)
        XX    -439.0111     XY      22.6483     YY    -411.0681
        XZ      13.0208     YZ      -4.4421     ZZ    -426.8691

 Total job time:  89.07s(wall), 957.25s(cpu)
        *  Thank you very much for using Q-Chem.  Have a nice day.  *
