 Q-Chem 4.4, Q-Chem, Inc., Pleasanton, CA (2016)
 Q-Chem 4.4.2 for Intel X86 Linux

User input:
--------------------------------------------------------------
$comment
SP
$end

$rem
MEM_STATIC 5000
MEM_TOTAL 20000
JOBTYPE SP
EXCHANGE B3LYP
BASIS 6-31g(d,p)
$end

$molecule
0 1
C          -8.279000    -15.364000     -6.257000
C          -7.573000    -14.737000     -5.218000
N          -9.618000    -15.737000     -6.101000
C          -8.198000    -14.393000     -3.978000
C         -10.179000    -15.354000     -4.880000
C          -9.548000    -14.703000     -3.794000
C         -10.243000    -14.298000     -2.543000
C          -9.680000    -14.324000     -1.264000
C         -11.621000    -13.991000     -2.548000
N         -10.384000    -14.140000     -0.128000
N         -12.310000    -13.764000     -3.659000
C         -12.354000    -13.678000     -1.409000
C         -11.707000    -13.806000     -0.168000
S         -13.766000    -13.265000     -3.220000
N         -13.614000    -13.233000     -1.613000
C         -12.466000    -13.804000      1.074000
S         -13.948000    -14.737000      1.326000
C         -12.006000    -13.493000      2.305000
C         -14.059000    -14.142000      3.026000
S         -10.397000    -12.747000      2.750000
C         -12.842000    -13.632000      3.376000
C         -15.045000    -14.619000      3.998000
C         -11.022000    -12.488000      4.376000
C         -12.284000    -12.969000      4.573000
N         -14.807000    -14.451000      5.306000
S         -16.553000    -15.202000      3.472000
C         -15.994000    -14.762000      5.982000
C         -16.945000    -15.287000      5.133000
C          -7.548000    -15.755000     -7.584000
H          -6.522000    -14.501000     -5.356000
H          -7.548000    -14.043000     -3.183000
H         -11.185000    -15.743000     -4.726000
H          -8.609000    -14.497000     -1.162000
H         -10.371000    -12.092000      5.144000
H         -12.755000    -12.827000      5.539000
H         -16.071000    -14.611000      7.050000
H         -17.961000    -15.541000      5.404000
H          -6.708000    -16.394000     -7.286000
C          -7.128000    -14.619000     -8.534000
H          -8.148000    -16.540000     -8.061000
H          -7.451000    -14.977000     -9.519000
H          -6.046000    -14.594000     -8.711000
C          -7.838000    -13.266000     -8.413000
H          -7.907000    -12.851000     -9.426000
C          -6.908000    -12.253000     -7.686000
H          -8.837000    -13.243000     -7.960000
H          -5.856000    -12.424000     -7.945000
H          -6.876000    -12.423000     -6.603000
C          -7.180000    -10.813000     -8.137000
H          -6.886000    -10.739000     -9.191000
C          -6.374000     -9.784000     -7.333000
H          -8.228000    -10.488000     -8.145000
H          -6.454000    -10.106000     -6.288000
H          -6.731000     -8.747000     -7.309000
H          -5.313000     -9.850000     -7.606000
C          -7.085000    -19.662000     -5.761000
C          -6.563000    -18.627000     -4.947000
N          -8.312000    -20.085000     -5.670000
C          -7.305000    -18.082000     -3.900000
C          -9.089000    -19.596000     -4.655000
C          -8.631000    -18.570000     -3.778000
C          -9.484000    -18.259000     -2.565000
C          -8.837000    -17.695000     -1.443000
C         -10.848000    -18.488000     -2.435000
N          -9.487000    -17.486000     -0.255000
N         -11.663000    -18.943000     -3.421000
C         -11.520000    -18.278000     -1.265000
C         -10.799000    -17.896000     -0.139000
S         -13.218000    -18.915000     -2.873000
N         -12.867000    -18.486000     -1.327000
C         -11.498000    -17.800000      1.179000
S         -13.106000    -18.657000      1.661000
C         -10.897000    -17.260000      2.317000
C         -12.839000    -18.149000      3.347000
S          -9.455000    -16.268000      2.495000
C         -11.714000    -17.296000      3.453000
C         -13.819000    -18.394000      4.380000
C          -9.909000    -15.982000      4.171000
C         -11.138000    -16.588000      4.551000
N         -14.845000    -19.105000      3.977000
S         -13.837000    -17.819000      6.070000
C         -15.781000    -19.328000      5.004000
C         -15.345000    -18.788000      6.227000
C          -6.365000    -20.062000     -7.053000
H          -5.527000    -18.349000     -5.121000
H          -6.921000    -17.236000     -3.338000
H         -10.090000    -20.024000     -4.619000
H          -7.815000    -17.322000     -1.477000
H          -9.170000    -15.530000      4.819000
H         -11.452000    -16.593000      5.589000
H         -16.628000    -19.980000      4.840000
H         -15.761000    -18.715000      7.224000
H          -7.037000    -19.815000     -7.884000
C          -5.946000    -21.553000     -7.195000
H          -5.514000    -19.382000     -7.188000
H          -6.676000    -22.348000     -7.000000
H          -5.125000    -21.598000     -6.469000
C          -5.353000    -21.948000     -8.549000
H          -6.141000    -21.999000     -9.311000
C          -4.618000    -23.275000     -8.356000
H          -4.609000    -21.250000     -8.950000
H          -3.661000    -23.067000     -7.861000
H          -4.475000    -23.526000     -9.414000
C          -5.297000    -24.437000     -7.654000
H          -4.692000    -25.352000     -7.624000
C          -6.737000    -24.818000     -8.158000
H          -5.366000    -24.192000     -6.587000
H          -6.684000    -25.572000     -8.952000
H          -7.268000    -23.948000     -8.563000
H          -7.217000    -25.295000     -7.294000
$end

--------------------------------------------------------------

             Standard Nuclear Orientation (Angstroms)
    I     Atom           X                Y                Z
 ----------------------------------------------------------------
    1      C      -5.3853104679     2.1237674208     0.3316546886
    2      C      -4.7717365373     2.5420635408    -0.8598323603
    3      N      -4.6261663738     1.7041882734     1.4289420637
    4      C      -3.3494110857     2.6200724931    -0.9919910272
    5      C      -3.2459603962     1.8253028831     1.2483493983
    6      C      -2.5498375106     2.2564138919     0.0946968396
    7      C      -1.0709766161     2.3907763135     0.0112211286
    8      C      -0.3000379391     2.1188898369    -1.1224531192
    9      C      -0.3037716934     2.6688924466     1.1632654086
   10      N       1.0477185530     2.0596298189    -1.1195055314
   11      N      -0.8327730012     3.1018838779     2.3004756076
   12      C       1.0847556652     2.7349034474     1.1778709678
   13      C       1.7619608578     2.3721454421     0.0010643751
   14      S       0.3803192534     3.4778535034     3.2744940994
   15      N       1.6492393402     3.1900694235     2.3186702994
   16      C       3.1941113655     2.1124325649     0.0130286909
   17      S       4.0070721533     1.1226041140     1.2335414501
   18      C       4.0390823234     2.1785166610    -1.0383223316
   19      C       5.5915770492     1.3632084400     0.4042044901
   20      S       3.7086289640     2.8477902845    -2.7075423273
   21      C       5.3430821073     1.8135956129    -0.8603470740
   22      C       6.8300815661     0.6844308743     0.7913434547
   23      C       5.4380590467     2.7652520019    -3.0297860564
   24      C       6.1720097472     2.2329871339    -2.0095779994
   25      N       7.8290321729     0.5912098329    -0.0969917988
   26      S       7.0696973716     0.1927809853     2.4011551370
   27      C       8.9546284197     0.1308627268     0.5985508895
   28      C       8.6454144358    -0.2297537740     1.8928342632
   29      C      -6.9438396229     2.0189525334     0.4220522131
   30      H      -5.3907969635     2.8188961079    -1.7080474971
   31      H      -2.9603234220     2.8149097424    -1.9858090368
   32      H      -2.6644326995     1.3961591259     2.0636617149
   33      H      -0.8025799935     1.9473572642    -2.0739792934
   34      H       5.8123470312     3.0105737992    -4.0147564724
   35      H       7.2491345307     2.1706137690    -2.1148052023
   36      H       9.9137889473     0.0636387347     0.1037317132
   37      H       9.3541296502    -0.5502470918     2.6446452621
   38      H      -7.2464085644     1.3477237831    -0.3907386582
   39      C      -7.7513209590     3.3291809639     0.4479626681
   40      H      -7.1715297881     1.3351783919     1.2493152379
   41      H      -8.4704857958     3.1701525096     1.2605079826
   42      H      -8.4570018257     3.4076568991    -0.3878208218
   43      C      -7.0379966215     4.6181869944     0.8710251254
   44      H      -7.7735786813     5.2263519044     1.4115891602
   45      C      -6.7320241924     5.4809153803    -0.3866229195
   46      H      -6.1363081193     4.5328969765     1.4902362831
   47      H      -7.5258388017     5.3832920268    -1.1371920682
   48      H      -5.8746992190     5.0981042453    -0.9534231708
   49      C      -6.7084327178     6.9771755054    -0.0525060535
   50      H      -7.7282281728     7.2657272813     0.2295987187
   51      C      -6.2708270312     7.8380356551    -1.2451141474
   52      H      -6.1120072815     7.2791823136     0.8175868076
   53      H      -5.4143585099     7.3120128099    -1.6831445554
   54      H      -5.8787951762     8.8429589457    -1.0455290661
   55      H      -7.0621338233     7.8462278472    -2.0056221676
   56      C      -6.3643523852    -2.1654018524    -0.5565794415
   57      C      -5.7697132839    -1.3055347946    -1.5122666195
   58      N      -5.7266953510    -2.6190275012     0.4828224430
   59      C      -4.4116349779    -0.9939908704    -1.4636693149
   60      C      -4.3872213050    -2.3565346407     0.5827312927
   61      C      -3.7083201991    -1.5191943786    -0.3497511865
   62      C      -2.1959803475    -1.4720152677    -0.2703704276
   63      C      -1.4937478305    -1.1330629894    -1.4483219737
   64      C      -1.4196681993    -1.7457546947     0.8486662897
   65      N      -0.1261314691    -1.1773181172    -1.5203773116
   66      N      -1.9014020243    -2.0080387933     2.0906749747
   67      C      -0.0554716247    -1.7858035895     0.8045324967
   68      C       0.5789196997    -1.6246713258    -0.4223436344
   69      S      -0.6305020178    -2.1169822337     3.1356905249
   70      N       0.5554225087    -2.0002396436     2.0055081569
   71      C       2.0602621411    -1.8064888780    -0.5089920562
   72      S       3.1444686609    -2.7700757634     0.6945167875
   73      C       2.7954503150    -1.4950390078    -1.6536939071
   74      C       4.5051817901    -2.6054139124    -0.4427146116
   75      S       2.3730220825    -0.5341899010    -3.0655846190
   76      C       4.1623818036    -1.7717488589    -1.5344841604
   77      C       5.8332268394    -3.0690335059    -0.1127642826
   78      C       4.0601930778    -0.5973579366    -3.5619230438
   79      C       4.9073602480    -1.2881458579    -2.6524194246
   80      N       5.9020500362    -3.7024354630     1.0338268950
   81      S       7.3574492253    -2.8444248443    -1.0146212930
   82      C       7.2061712937    -4.1425482383     1.3272932318
   83      C       8.0981064842    -3.8509447945     0.2799900057
   84      C      -7.8895506859    -2.2862290827    -0.4739058428
   85      H      -6.4034937081    -0.9806084918    -2.3329987753
   86      H      -3.9897243723    -0.2711816617    -2.1554454988
   87      H      -3.9138576572    -2.8001724485     1.4577132081
   88      H      -1.9862439202    -0.7433437666    -2.3373301452
   89      H       4.2985894525    -0.2716446102    -4.5656197099
   90      H       5.9365927139    -1.5062445260    -2.9154374887
   91      H       7.3921836019    -4.7629351544     2.1932773515
   92      H       9.1601317772    -3.9861744089     0.1180973609
   93      H      -8.1899357073    -1.8894128971     0.5035703736
   94      C      -8.4939847390    -3.7112045441    -0.6252676932
   95      H      -8.3223323352    -1.5784819850    -1.1926687312
   96      H      -8.0946542587    -4.5415442776    -0.0302709752
   97      H      -8.3224170990    -3.8865645769    -1.6943586172
   98      C     -10.0040610205    -3.8168979140    -0.4028075043
   99      H     -10.2401068812    -3.7278065042     0.6651503939
  100      C     -10.4634513635    -5.1428715603    -1.0103907513
  101      H     -10.6001585765    -3.0400964612    -0.8955429371
  102      H     -10.5100103719    -5.0218121110    -2.1000305397
  103      H     -11.4665411239    -5.1744785343    -0.5680945476
  104      C      -9.7331645809    -6.4333576828    -0.6857127835
  105      H     -10.1870535218    -7.3253292633    -1.1357367038
  106      C      -9.4741978949    -6.7303666440     0.8366206007
  107      H      -8.7620966286    -6.4081616332    -1.1952882844
  108      H     -10.3004548968    -7.3091122106     1.2657055993
  109      H      -9.3800591995    -5.8061299523     1.4195532244
  110      H      -8.5888771286    -7.3788471948     0.8468732041
 ----------------------------------------------------------------

   10   -5663.4732284140      3.15E-06 Convergence criterion met
 Total energy in the final basis set = -5663.4732284140

                    Orbital Energies (a.u.)
 --------------------------------------------------------------

 Alpha MOs
 -- Occupied --
-88.988 -88.987 -88.926 -88.924 -88.919 -88.918 -88.904 -88.898
-14.384 -14.380 -14.375 -14.372 -14.350 -14.347 -14.342 -14.340
-14.339 -14.318 -10.265 -10.263 -10.259 -10.256 -10.250 -10.248
-10.245 -10.243 -10.240 -10.239 -10.238 -10.237 -10.236 -10.236
-10.235 -10.235 -10.232 -10.230 -10.229 -10.225 -10.224 -10.224
-10.224 -10.221 -10.219 -10.219 -10.218 -10.217 -10.217 -10.216
-10.214 -10.210 -10.207 -10.204 -10.202 -10.201 -10.195 -10.194
-10.188 -10.183 -10.180 -10.179 -10.175 -10.174 -10.173 -10.173
-10.173 -10.171 -10.170 -10.169  -8.043  -8.042  -7.989  -7.983
 -7.977  -7.975  -7.963  -7.957  -6.008  -6.007  -6.003  -6.002
 -6.002  -6.000  -5.953  -5.950  -5.947  -5.946  -5.944  -5.941
 -5.940  -5.940  -5.938  -5.937  -5.933  -5.932  -5.928  -5.924
 -5.922  -5.920  -5.918  -5.913  -1.050  -1.027  -0.964  -0.957
 -0.953  -0.942  -0.935  -0.919  -0.912  -0.906  -0.895  -0.888
 -0.835  -0.832  -0.826  -0.825  -0.814  -0.809  -0.808  -0.804
 -0.804  -0.793  -0.791  -0.786  -0.778  -0.774  -0.766  -0.757
 -0.747  -0.739  -0.733  -0.732  -0.721  -0.714  -0.708  -0.704
 -0.693  -0.687  -0.672  -0.668  -0.656  -0.652  -0.644  -0.643
 -0.635  -0.629  -0.625  -0.619  -0.610  -0.610  -0.597  -0.594
 -0.591  -0.591  -0.581  -0.580  -0.575  -0.569  -0.568  -0.547
 -0.542  -0.538  -0.534  -0.532  -0.526  -0.517  -0.512  -0.508
 -0.504  -0.503  -0.498  -0.488  -0.481  -0.475  -0.474  -0.469
 -0.469  -0.468  -0.467  -0.464  -0.460  -0.457  -0.446  -0.446
 -0.443  -0.442  -0.437  -0.434  -0.432  -0.430  -0.424  -0.423
 -0.423  -0.418  -0.417  -0.415  -0.415  -0.414  -0.413  -0.412
 -0.408  -0.401  -0.400  -0.398  -0.397  -0.396  -0.395  -0.392
 -0.391  -0.390  -0.388  -0.387  -0.385  -0.384  -0.382  -0.380
 -0.376  -0.374  -0.372  -0.368  -0.365  -0.361  -0.354  -0.353
 -0.351  -0.348  -0.346  -0.342  -0.341  -0.339  -0.336  -0.336
 -0.334  -0.330  -0.330  -0.327  -0.326  -0.323  -0.318  -0.317
 -0.313  -0.310  -0.308  -0.301  -0.299  -0.297  -0.294  -0.290
 -0.289  -0.288  -0.287  -0.284  -0.283  -0.279  -0.278  -0.277
 -0.273  -0.271  -0.266  -0.259  -0.257  -0.252  -0.245  -0.243
 -0.239  -0.237  -0.231  -0.221  -0.194  -0.182

          Ground-State Mulliken Net Atomic Charges

     Atom                 Charge (a.u.)
  ----------------------------------------
      1 C                     0.258238
      2 C                    -0.107148
      3 N                    -0.481614
      4 C                    -0.102118
      5 C                     0.090226
      6 C                     0.064513
      7 C                     0.067861
      8 C                     0.070055
      9 C                     0.194841
     10 N                    -0.492938
     11 N                    -0.529295
     12 C                     0.184435
     13 C                     0.251502
     14 S                     0.603978
     15 N                    -0.539912
     16 C                    -0.193542
     17 S                     0.307124
     18 C                    -0.102443
     19 C                    -0.258164
     20 S                     0.237552
     21 C                     0.173536
     22 C                     0.077558
     23 C                    -0.290230
     24 C                    -0.051134
     25 N                    -0.441121
     26 S                     0.302990
     27 C                     0.113058
     28 C                    -0.300508
     29 C                    -0.243657
     30 H                     0.089218
     31 H                     0.098307
     32 H                     0.111467
     33 H                     0.104681
     34 H                     0.123908
     35 H                     0.118012
     36 H                     0.113460
     37 H                     0.121119
     38 H                     0.106733
     39 C                    -0.187619
     40 H                     0.128153
     41 H                     0.103637
     42 H                     0.096847
     43 C                    -0.182407
     44 H                     0.094717
     45 C                    -0.170217
     46 H                     0.117768
     47 H                     0.086448
     48 H                     0.088989
     49 C                    -0.181678
     50 H                     0.093104
     51 C                    -0.323037
     52 H                     0.093556
     53 H                     0.099907
     54 H                     0.100204
     55 H                     0.100231
     56 C                     0.280025
     57 C                    -0.134856
     58 N                    -0.470716
     59 C                    -0.068237
     60 C                     0.066801
     61 C                     0.037751
     62 C                     0.058120
     63 C                     0.051635
     64 C                     0.245193
     65 N                    -0.534103
     66 N                    -0.583705
     67 C                     0.225206
     68 C                     0.281706
     69 S                     0.606884
     70 N                    -0.576875
     71 C                    -0.222767
     72 S                     0.353148
     73 C                    -0.120235
     74 C                    -0.237076
     75 S                     0.330256
     76 C                     0.135057
     77 C                     0.097815
     78 C                    -0.302744
     79 C                    -0.085622
     80 N                    -0.446771
     81 S                     0.270201
     82 C                     0.120010
     83 C                    -0.315007
     84 C                    -0.231568
     85 H                     0.081522
     86 H                     0.100687
     87 H                     0.136880
     88 H                     0.105145
     89 H                     0.127896
     90 H                     0.113930
     91 H                     0.122343
     92 H                     0.130981
     93 H                     0.116504
     94 C                    -0.161860
     95 H                     0.082803
     96 H                     0.122318
     97 H                     0.087411
     98 C                    -0.189419
     99 H                     0.093148
    100 C                    -0.167247
    101 H                     0.086818
    102 H                     0.090151
    103 H                     0.082885
    104 C                    -0.188569
    105 H                     0.091286
    106 C                    -0.322575
    107 H                     0.097154
    108 H                     0.102254
    109 H                     0.111370
    110 H                     0.107509
  ----------------------------------------
  Sum of atomic charges =     0.000000

                    Cartesian Multipole Moments
 -----------------------------------------------------------------
    Charge (ESU x 10^10)
                 0.0000
    Dipole Moment (Debye)
         X       2.8614      Y       1.0054      Z      -1.6951
       Tot       3.4744
    Quadrupole Moments (Debye-Ang)
        XX    -384.0415     XY     -19.9557     YY    -453.8293
        XZ      17.8109     YZ      -6.5788     ZZ    -425.7161

 Total job time:  125.50s(wall), 1321.74s(cpu)
        *  Thank you very much for using Q-Chem.  Have a nice day.  *
