 Q-Chem 4.4, Q-Chem, Inc., Pleasanton, CA (2016)
 Q-Chem 4.4.2 for Intel X86 Linux

User input:
--------------------------------------------------------------
$comment
SP
$end

$rem
MEM_STATIC 5000
MEM_TOTAL 20000
JOBTYPE SP
EXCHANGE B3LYP
BASIS 6-31g(d,p)
$end

$molecule
0 1
C         -12.677000    -25.925000      4.383000
C         -12.099000    -26.904000      3.495000
N         -13.477000    -24.999000      3.917000
C         -12.326000    -26.800000      2.136000
C         -13.625000    -24.810000      2.595000
C         -13.009000    -25.676000      1.676000
C         -13.021000    -25.310000      0.215000
C         -13.243000    -26.288000     -0.744000
C         -12.749000    -23.980000     -0.272000
N         -13.339000    -26.041000     -2.072000
N         -12.394000    -22.930000      0.478000
C         -12.803000    -23.633000     -1.638000
C         -13.148000    -24.724000     -2.553000
S         -12.189000    -21.692000     -0.540000
N         -12.725000    -22.333000     -1.962000
C         -13.219000    -24.605000     -4.012000
S         -14.343000    -25.379000     -5.135000
C         -12.241000    -24.080000     -4.745000
C         -13.602000    -24.675000     -6.579000
S         -10.770000    -23.401000     -4.167000
C         -12.429000    -24.052000     -6.130000
C         -13.991000    -24.982000     -7.972000
C         -10.423000    -22.938000     -5.939000
C         -11.352000    -23.425000     -6.831000
N         -15.129000    -25.573000     -8.038000
S         -13.166000    -24.681000     -9.445000
C         -15.343000    -25.989000     -9.342000
C         -14.388000    -25.633000    -10.229000
C         -12.650000    -26.085000      5.875000
H         -11.461000    -27.662000      3.939000
H         -11.824000    -27.535000      1.514000
H         -14.166000    -23.960000      2.183000
H         -13.477000    -27.318000     -0.479000
H          -9.522000    -22.425000     -6.248000
H         -11.327000    -23.232000     -7.897000
H         -16.246000    -26.527000     -9.602000
H         -14.451000    -25.653000    -11.309000
H         -13.626000    -26.379000      6.280000
C         -12.146000    -24.818000      6.609000
H         -11.975000    -26.937000      6.024000
H         -12.754000    -23.925000      6.415000
H         -11.163000    -24.542000      6.209000
C         -12.015000    -24.955000      8.143000
H         -12.994000    -24.978000      8.638000
C         -11.429000    -23.706000      8.716000
H         -11.538000    -25.925000      8.332000
H         -12.148000    -22.881000      8.635000
H         -10.626000    -23.338000      8.065000
C         -10.943000    -23.925000     10.104000
H         -10.313000    -24.801000     10.301000
C         -12.097000    -24.077000     11.097000
H         -10.332000    -23.058000     10.380000
H         -12.693000    -24.987000     10.949000
H         -12.817000    -23.251000     11.039000
H         -11.803000    -23.959000     12.147000
C          -7.085000    -19.662000     -5.761000
C          -6.563000    -18.627000     -4.947000
N          -8.312000    -20.085000     -5.670000
C          -7.305000    -18.082000     -3.900000
C          -9.089000    -19.596000     -4.655000
C          -8.631000    -18.570000     -3.778000
C          -9.484000    -18.259000     -2.565000
C          -8.837000    -17.695000     -1.443000
C         -10.848000    -18.488000     -2.435000
N          -9.487000    -17.486000     -0.255000
N         -11.663000    -18.943000     -3.421000
C         -11.520000    -18.278000     -1.265000
C         -10.799000    -17.896000     -0.139000
S         -13.218000    -18.915000     -2.873000
N         -12.867000    -18.486000     -1.327000
C         -11.498000    -17.800000      1.179000
S         -13.106000    -18.657000      1.661000
C         -10.897000    -17.260000      2.317000
C         -12.839000    -18.149000      3.347000
S          -9.455000    -16.268000      2.495000
C         -11.714000    -17.296000      3.453000
C         -13.819000    -18.394000      4.380000
C          -9.909000    -15.982000      4.171000
C         -11.138000    -16.588000      4.551000
N         -14.845000    -19.105000      3.977000
S         -13.837000    -17.819000      6.070000
C         -15.781000    -19.328000      5.004000
C         -15.345000    -18.788000      6.227000
C          -6.365000    -20.062000     -7.053000
H          -5.527000    -18.349000     -5.121000
H          -6.921000    -17.236000     -3.338000
H         -10.090000    -20.024000     -4.619000
H          -7.815000    -17.322000     -1.477000
H          -9.170000    -15.530000      4.819000
H         -11.452000    -16.593000      5.589000
H         -16.628000    -19.980000      4.840000
H         -15.761000    -18.715000      7.224000
H          -7.037000    -19.815000     -7.884000
C          -5.946000    -21.553000     -7.195000
H          -5.514000    -19.382000     -7.188000
H          -6.676000    -22.348000     -7.000000
H          -5.125000    -21.598000     -6.469000
C          -5.353000    -21.948000     -8.549000
H          -6.141000    -21.999000     -9.311000
C          -4.618000    -23.275000     -8.356000
H          -4.609000    -21.250000     -8.950000
H          -3.661000    -23.067000     -7.861000
H          -4.475000    -23.526000     -9.414000
C          -5.297000    -24.437000     -7.654000
H          -4.692000    -25.352000     -7.624000
C          -6.737000    -24.818000     -8.158000
H          -5.366000    -24.192000     -6.587000
H          -6.684000    -25.572000     -8.952000
H          -7.268000    -23.948000     -8.563000
H          -7.217000    -25.295000     -7.294000
$end

--------------------------------------------------------------

             Standard Nuclear Orientation (Angstroms)
    I     Atom           X                Y                Z
 ----------------------------------------------------------------
    1      C       4.8208702642     4.5634879657     2.0241443242
    2      C       3.6996823860     5.1065085034     2.7515612867
    3      N       4.6565729512     4.0811370111     0.8179204853
    4      C       2.4355921533     5.0301296128     2.1988695564
    5      C       3.4284759250     3.8955631236     0.3054275327
    6      C       2.2888550205     4.3190175742     1.0096459095
    7      C       0.9307621027     3.9050712187     0.5068009619
    8      C      -0.1205478754     4.8106074918     0.5209568077
    9      C       0.6255392353     2.5704419009     0.0533072073
   10      N      -1.3541107419     4.5493610047     0.0271127764
   11      N       1.4623912191     1.5263202607     0.0759734296
   12      C      -0.6360525681     2.1988435729    -0.4561845044
   13      C      -1.6415640466     3.2638984466    -0.4898858786
   14      S       0.6380449711     0.2693146307    -0.5168023371
   15      N      -0.7541398189     0.9906687457    -1.0283986146
   16      C      -3.0274232781     3.0959419251    -0.9360560224
   17      S      -4.0486975967     4.2250924091    -1.8336076646
   18      C      -3.8241913931     2.1332826061    -0.4801551488
   19      C      -5.4661674151     3.1665453399    -1.8240989223
   20      S      -3.4078996933     0.8930395892     0.6367443453
   21      C      -5.1325902845     2.1045620368    -0.9717042003
   22      C      -6.8016585525     3.5264115408    -2.3465725958
   23      C      -5.1146812483     0.2077415783     0.3333875261
   24      C      -5.8989412095     1.0081270369    -0.4667333590
   25      N      -6.7640472010     4.5689604364    -3.0951433584
   26      S      -8.3270261455     2.7841808912    -2.0949729760
   27      C      -8.0610387203     4.9506474520    -3.3974611066
   28      C      -9.0307553828     4.1381639754    -2.9230665506
   29      C       6.2397875060     4.7901459641     2.4573798408
   30      H       3.8978562294     5.5131878897     3.7385177217
   31      H       1.6254501784     5.4094184320     2.8144367519
   32      H       3.2594490849     3.3648830698    -0.6298444106
   33      H       0.0109229986     5.8476148377     0.8262634959
   34      H      -5.4881271527    -0.6811888600     0.8240929699
   35      H      -6.9076812538     0.7561354863    -0.7719771657
   36      H      -8.2440683630     5.8254899411    -4.0086924614
   37      H     -10.0722805285     4.1143523253    -3.2153461704
   38      H       6.7549097054     5.5259240392     1.8278429127
   39      C       7.0703512579     3.4842812371     2.5116216017
   40      H       6.1297571323     5.2437818182     3.4502735052
   41      H       7.1316782927     2.9605794827     1.5489563082
   42      H       6.5559625191     2.7615481153     3.1562347105
   43      C       8.5157601548     3.6454700377     3.0349735782
   44      H       9.1626553519     4.1485351980     2.3052838850
   45      C       9.1727869926     2.3073100872     3.1317706914
   46      H       8.4598362471     4.2972942238     3.9159660566
   47      H       9.3521413444     1.9022636810     2.1278202817
   48      H       8.4606347041     1.5695340939     3.5223596078
   49      C      10.4015543753     2.3682620332     3.9667057665
   50      H      10.3420765439     2.8669852673     4.9418070552
   51      C      11.5417341971     3.0985739657     3.2543129990
   52      H      10.7039471754     1.3374703125     4.1839913461
   53      H      11.3541393819     4.1688972469     3.0979919860
   54      H      11.7437679638     2.6946035940     2.2542978511
   55      H      12.5299129244     2.9273784532     3.6982216600
   56      C      -4.9907467496    -4.2171422282     1.8536334074
   57      C      -4.1230965484    -5.3206310126     2.0428439540
   58      N      -4.7580171431    -3.2721627643     0.9901580209
   59      C      -2.8891834463    -5.3935206569     1.3979070920
   60      C      -3.5581787931    -3.2814522722     0.3318445402
   61      C      -2.6196843251    -4.3434159733     0.4836016849
   62      C      -1.2430955600    -4.1471986121    -0.1182297855
   63      C      -0.1740527318    -4.8710193893     0.4551984261
   64      C      -0.9173584484    -3.3084324585    -1.1766265324
   65      N       1.1265629683    -4.6795030535     0.0688756416
   66      N      -1.8075283421    -2.5949644068    -1.9128377111
   67      C       0.3697460920    -3.1088556910    -1.5866448440
   68      C       1.4004179664    -3.7052990943    -0.8685837366
   69      S      -1.0010392601    -1.8686133282    -3.1542491945
   70      N       0.5094047053    -2.3090397523    -2.6831424208
   71      C       2.8175515998    -3.3826932746    -1.2187247798
   72      S       3.4260132750    -1.8526077094    -2.1358123182
   73      C       3.9062325333    -4.0630556442    -0.6712525237
   74      C       5.0998027102    -2.3152047676    -1.7403608186
   75      S       3.9895638094    -5.5932291593     0.1928868818
   76      C       5.1456680931    -3.5811607846    -1.1081253168
   77      C       6.2336393856    -1.5799786604    -2.2516053438
   78      C       5.7427391513    -5.5282070874     0.0549145993
   79      C       6.2269876171    -4.4013960004    -0.6647222519
   80      N       5.9050373943    -0.5046957303    -2.9271742534
   81      S       7.9715572628    -1.9705296664    -2.1326080163
   82      C       7.0289742500     0.1904158626    -3.4110542157
   83      C       8.2288374389    -0.4084900799    -2.9878934899
   84      C      -6.4354165004    -4.2785220131     2.3604132739
   85      H      -4.4267926629    -6.0547638316     2.7842437612
   86      H      -2.2729850078    -6.2826161610     1.4918468018
   87      H      -3.4188703717    -2.4396060827    -0.3451851172
   88      H      -0.3239518826    -5.6736938899     1.1749295500
   89      H       6.3172348237    -6.2261204699     0.6492214500
   90      H       7.2890264613    -4.1847518024    -0.6994178554
   91      H       6.9110666985     1.1467089907    -3.9019821764
   92      H       9.2813402554    -0.2166662152    -3.1547330120
   93      H      -7.0862885033    -4.2423373531     1.4782509837
   94      C      -6.8870910627    -3.1602819895     3.3424190475
   95      H      -6.6041516947    -5.2809683665     2.7744854207
   96      H      -6.6996379934    -2.1077525941     3.0974839163
   97      H      -6.3313956176    -3.4507374326     4.2424080518
   98      C      -8.3691675740    -3.1717109555     3.7222987566
   99      H      -8.9810802584    -2.8137798914     2.8846608754
  100      C      -8.5236577095    -2.3221965774     4.9843847757
  101      H      -8.7748595827    -4.1582362839     3.9747324518
  102      H      -8.1750470165    -2.9143278294     5.8399484291
  103      H      -9.6168740393    -2.2347926374     4.9771316704
  104      C      -7.9118397682    -0.9350559428     5.0592758067
  105      H      -8.1355289118    -0.4011994381     5.9915367141
  106      C      -8.2134311163     0.0318798182     3.8564229924
  107      H      -6.8236791793    -1.0506027446     5.1356333171
  108      H      -9.1159011350     0.6233248580     4.0500763692
  109      H      -8.3741573185    -0.5206535619     2.9227421305
  110      H      -7.3679720458     0.7314848664     3.8431287631
 ----------------------------------------------------------------

    9   -5663.4887342782      8.08E-06 Convergence criterion met
 Total energy in the final basis set = -5663.4887342782

                    Orbital Energies (a.u.)
 --------------------------------------------------------------

 Alpha MOs
 -- Occupied --
-88.991 -88.983 -88.929 -88.927 -88.924 -88.915 -88.909 -88.901
-14.386 -14.382 -14.380 -14.375 -14.353 -14.347 -14.344 -14.332
-14.329 -14.321 -10.270 -10.263 -10.262 -10.262 -10.257 -10.256
-10.249 -10.247 -10.246 -10.244 -10.243 -10.240 -10.239 -10.233
-10.232 -10.232 -10.232 -10.227 -10.225 -10.224 -10.224 -10.224
-10.223 -10.222 -10.222 -10.222 -10.222 -10.221 -10.218 -10.214
-10.213 -10.211 -10.211 -10.209 -10.203 -10.200 -10.199 -10.197
-10.186 -10.183 -10.179 -10.177 -10.177 -10.174 -10.174 -10.174
-10.173 -10.170 -10.169 -10.169  -8.045  -8.039  -7.989  -7.986
 -7.983  -7.974  -7.968  -7.961  -6.010  -6.005  -6.004  -6.003
 -5.998  -5.996  -5.953  -5.950  -5.950  -5.947  -5.946  -5.946
 -5.944  -5.943  -5.939  -5.939  -5.935  -5.933  -5.931  -5.929
 -5.925  -5.925  -5.922  -5.916  -1.040  -1.031  -0.977  -0.961
 -0.947  -0.944  -0.943  -0.935  -0.911  -0.903  -0.903  -0.892
 -0.834  -0.831  -0.831  -0.826  -0.813  -0.811  -0.809  -0.809
 -0.803  -0.797  -0.794  -0.793  -0.785  -0.780  -0.764  -0.763
 -0.747  -0.745  -0.739  -0.739  -0.721  -0.710  -0.709  -0.705
 -0.693  -0.691  -0.673  -0.668  -0.657  -0.654  -0.648  -0.640
 -0.634  -0.630  -0.625  -0.624  -0.616  -0.608  -0.602  -0.598
 -0.597  -0.588  -0.585  -0.578  -0.576  -0.568  -0.567  -0.546
 -0.540  -0.538  -0.538  -0.536  -0.522  -0.519  -0.517  -0.514
 -0.512  -0.510  -0.499  -0.494  -0.482  -0.479  -0.475  -0.474
 -0.471  -0.467  -0.465  -0.464  -0.463  -0.460  -0.450  -0.449
 -0.447  -0.440  -0.439  -0.438  -0.431  -0.431  -0.430  -0.429
 -0.428  -0.422  -0.420  -0.419  -0.417  -0.414  -0.412  -0.408
 -0.407  -0.406  -0.405  -0.404  -0.402  -0.400  -0.398  -0.394
 -0.393  -0.392  -0.389  -0.388  -0.386  -0.383  -0.383  -0.380
 -0.378  -0.374  -0.371  -0.371  -0.370  -0.364  -0.358  -0.357
 -0.357  -0.354  -0.348  -0.347  -0.344  -0.340  -0.338  -0.337
 -0.335  -0.331  -0.330  -0.329  -0.327  -0.325  -0.322  -0.320
 -0.314  -0.312  -0.307  -0.301  -0.299  -0.298  -0.295  -0.295
 -0.292  -0.289  -0.288  -0.287  -0.285  -0.285  -0.283  -0.279
 -0.278  -0.269  -0.266  -0.263  -0.256  -0.254  -0.252  -0.247
 -0.238  -0.231  -0.229  -0.226  -0.192  -0.191

          Ground-State Mulliken Net Atomic Charges

     Atom                 Charge (a.u.)
  ----------------------------------------
      1 C                     0.283848
      2 C                    -0.133916
      3 N                    -0.482556
      4 C                    -0.057611
      5 C                     0.100024
      6 C                     0.016217
      7 C                     0.044941
      8 C                     0.053745
      9 C                     0.216607
     10 N                    -0.479734
     11 N                    -0.530487
     12 C                     0.203015
     13 C                     0.182728
     14 S                     0.621496
     15 N                    -0.543855
     16 C                    -0.191281
     17 S                     0.326428
     18 C                    -0.097473
     19 C                    -0.233638
     20 S                     0.224990
     21 C                     0.136272
     22 C                     0.079617
     23 C                    -0.304767
     24 C                    -0.072513
     25 N                    -0.422066
     26 S                     0.270139
     27 C                     0.115110
     28 C                    -0.310388
     29 C                    -0.215826
     30 H                     0.088754
     31 H                     0.104210
     32 H                     0.116533
     33 H                     0.114811
     34 H                     0.148725
     35 H                     0.115813
     36 H                     0.112861
     37 H                     0.133646
     38 H                     0.120007
     39 C                    -0.180151
     40 H                     0.084260
     41 H                     0.116043
     42 H                     0.090892
     43 C                    -0.169135
     44 H                     0.096028
     45 C                    -0.171950
     46 H                     0.087100
     47 H                     0.096205
     48 H                     0.084445
     49 C                    -0.168040
     50 H                     0.097276
     51 C                    -0.325343
     52 H                     0.085241
     53 H                     0.106700
     54 H                     0.094557
     55 H                     0.096369
     56 C                     0.284941
     57 C                    -0.134621
     58 N                    -0.481280
     59 C                    -0.073507
     60 C                     0.058297
     61 C                     0.027677
     62 C                     0.056326
     63 C                     0.057719
     64 C                     0.247058
     65 N                    -0.539199
     66 N                    -0.583120
     67 C                     0.221104
     68 C                     0.280670
     69 S                     0.637777
     70 N                    -0.581366
     71 C                    -0.223031
     72 S                     0.364644
     73 C                    -0.121005
     74 C                    -0.234387
     75 S                     0.302154
     76 C                     0.132910
     77 C                     0.100726
     78 C                    -0.312620
     79 C                    -0.086320
     80 N                    -0.440988
     81 S                     0.255979
     82 C                     0.124372
     83 C                    -0.312233
     84 C                    -0.231088
     85 H                     0.088364
     86 H                     0.109999
     87 H                     0.153549
     88 H                     0.110782
     89 H                     0.133839
     90 H                     0.116392
     91 H                     0.129333
     92 H                     0.137155
     93 H                     0.115723
     94 C                    -0.166273
     95 H                     0.088728
     96 H                     0.118859
     97 H                     0.090723
     98 C                    -0.189294
     99 H                     0.092099
    100 C                    -0.167406
    101 H                     0.089736
    102 H                     0.091403
    103 H                     0.084067
    104 C                    -0.189737
    105 H                     0.093431
    106 C                    -0.323745
    107 H                     0.097074
    108 H                     0.104048
    109 H                     0.105476
    110 H                     0.113160
  ----------------------------------------
  Sum of atomic charges =     0.000000

                    Cartesian Multipole Moments
 -----------------------------------------------------------------
    Charge (ESU x 10^10)
                 0.0000
    Dipole Moment (Debye)
         X       0.9568      Y      -2.8232      Z       2.1371
       Tot       3.6678
    Quadrupole Moments (Debye-Ang)
        XX    -380.7170     XY       6.3023     YY    -429.9168
        XZ       0.5901     YZ      -4.7980     ZZ    -435.8022

 Total job time:  89.74s(wall), 966.50s(cpu)
        *  Thank you very much for using Q-Chem.  Have a nice day.  *
