 Q-Chem 4.4, Q-Chem, Inc., Pleasanton, CA (2016)
 Q-Chem 4.4.2 for Intel X86 Linux

User input:
--------------------------------------------------------------
$comment
SP
$end

$rem
MEM_STATIC 5000
MEM_TOTAL 20000
JOBTYPE SP
EXCHANGE B3LYP
BASIS 6-31g(d,p)
$end

$molecule
0 1
C           4.325000    -17.937000     -5.479000
C           3.807000    -18.458000     -4.323000
N           3.619000    -17.115000     -6.296000
C           2.482000    -18.161000     -4.010000
C           2.393000    -16.807000     -5.957000
C           1.751000    -17.319000     -4.867000
C           0.425000    -16.856000     -4.418000
C           0.075000    -15.522000     -4.595000
C          -0.539000    -17.688000     -3.857000
N          -1.148000    -14.998000     -4.224000
N          -0.422000    -19.013000     -3.735000
C          -1.795000    -17.218000     -3.572000
C          -2.063000    -15.824000     -3.569000
S          -1.860000    -19.554000     -3.321000
N          -2.711000    -18.179000     -3.200000
C          -3.312000    -15.262000     -3.133000
S          -4.258000    -15.989000     -1.871000
C          -3.836000    -14.086000     -3.522000
C          -5.214000    -14.435000     -1.657000
S          -3.262000    -12.864000     -4.626000
C          -4.830000    -13.637000     -2.690000
C          -6.106000    -14.044000     -0.495000
C          -4.654000    -11.867000     -4.197000
C          -5.373000    -12.381000     -3.203000
N          -6.210000    -12.722000     -0.258000
S          -6.623000    -15.108000      0.804000
C          -6.971000    -12.488000      0.882000
C          -7.320000    -13.644000      1.495000
C           5.770000    -18.154000     -5.939000
H           4.389000    -19.083000     -3.653000
H           2.100000    -18.413000     -3.025000
H           1.911000    -16.158000     -6.687000
H           0.781000    -14.868000     -5.105000
H          -4.770000    -10.905000     -4.678000
H          -6.130000    -11.862000     -2.628000
H          -7.197000    -11.475000      1.185000
H          -8.032000    -13.673000      2.308000
H           5.869000    -19.243000     -5.854000
C           6.908000    -17.438000     -5.140000
H           5.804000    -17.901000     -7.006000
H           7.918000    -17.727000     -5.454000
H           6.774000    -17.817000     -4.119000
C           6.772000    -15.888000     -5.049000
H           5.734000    -15.592000     -4.854000
C           7.120000    -15.180000     -6.307000
H           7.289000    -15.572000     -4.135000
H           6.414000    -15.240000     -7.144000
H           8.116000    -15.500000     -6.637000
C           7.035000    -13.628000     -6.069000
H           6.033000    -13.309000     -5.755000
C           7.447000    -12.786000     -7.278000
H           7.701000    -13.303000     -5.260000
H           7.624000    -11.744000     -6.986000
H           6.680000    -12.845000     -8.059000
H           8.440000    -13.135000     -7.590000
C          -7.085000    -19.662000     -5.761000
C          -6.563000    -18.627000     -4.947000
N          -8.312000    -20.085000     -5.670000
C          -7.305000    -18.082000     -3.900000
C          -9.089000    -19.596000     -4.655000
C          -8.631000    -18.570000     -3.778000
C          -9.484000    -18.259000     -2.565000
C          -8.837000    -17.695000     -1.443000
C         -10.848000    -18.488000     -2.435000
N          -9.487000    -17.486000     -0.255000
N         -11.663000    -18.943000     -3.421000
C         -11.520000    -18.278000     -1.265000
C         -10.799000    -17.896000     -0.139000
S         -13.218000    -18.915000     -2.873000
N         -12.867000    -18.486000     -1.327000
C         -11.498000    -17.800000      1.179000
S         -13.106000    -18.657000      1.661000
C         -10.897000    -17.260000      2.317000
C         -12.839000    -18.149000      3.347000
S          -9.455000    -16.268000      2.495000
C         -11.714000    -17.296000      3.453000
C         -13.819000    -18.394000      4.380000
C          -9.909000    -15.982000      4.171000
C         -11.138000    -16.588000      4.551000
N         -14.845000    -19.105000      3.977000
S         -13.837000    -17.819000      6.070000
C         -15.781000    -19.328000      5.004000
C         -15.345000    -18.788000      6.227000
C          -6.365000    -20.062000     -7.053000
H          -5.527000    -18.349000     -5.121000
H          -6.921000    -17.236000     -3.338000
H         -10.090000    -20.024000     -4.619000
H          -7.815000    -17.322000     -1.477000
H          -9.170000    -15.530000      4.819000
H         -11.452000    -16.593000      5.589000
H         -16.628000    -19.980000      4.840000
H         -15.761000    -18.715000      7.224000
H          -7.037000    -19.815000     -7.884000
C          -5.946000    -21.553000     -7.195000
H          -5.514000    -19.382000     -7.188000
H          -6.676000    -22.348000     -7.000000
H          -5.125000    -21.598000     -6.469000
C          -5.353000    -21.948000     -8.549000
H          -6.141000    -21.999000     -9.311000
C          -4.618000    -23.275000     -8.356000
H          -4.609000    -21.250000     -8.950000
H          -3.661000    -23.067000     -7.861000
H          -4.475000    -23.526000     -9.414000
C          -5.297000    -24.437000     -7.654000
H          -4.692000    -25.352000     -7.624000
C          -6.737000    -24.818000     -8.158000
H          -5.366000    -24.192000     -6.587000
H          -6.684000    -25.572000     -8.952000
H          -7.268000    -23.948000     -8.563000
H          -7.217000    -25.295000     -7.294000
$end

--------------------------------------------------------------

             Standard Nuclear Orientation (Angstroms)
    I     Atom           X                Y                Z
 ----------------------------------------------------------------
    1      C     -10.1569919507     0.0204794184    -2.0831854525
    2      C      -9.1395854429     0.2381746610    -2.9740242590
    3      N      -9.9549204783    -0.0711136453    -0.7443849331
    4      C      -7.8413078812     0.3194484399    -2.4743514204
    5      C      -8.7341992963     0.0596154219    -0.2909417649
    6      C      -7.6363109081     0.2109431511    -1.0872764969
    7      C      -6.2893488025     0.4995609792    -0.5613118256
    8      C      -6.1590883537     1.2773565730     0.5838742858
    9      C      -5.1153293611     0.0009375208    -1.1174538920
   10      N      -4.9434603726     1.5873934715     1.1618636741
   11      N      -5.0629926231    -0.8637664217    -2.1341868745
   12      C      -3.9044275955     0.2087413039    -0.5090169587
   13      C      -3.7717127292     1.1649059640     0.5317543452
   14      S      -3.5542139821    -1.3614770670    -2.2224598940
   15      N      -2.8474876400    -0.4917306268    -1.0504761027
   16      C      -2.5068622099     1.5373019103     1.1039566022
   17      S      -1.0445911858     1.5630105769     0.1673715731
   18      C      -2.3036989177     2.0214737902     2.3421711504
   19      C      -0.2165941773     2.5962388238     1.4407561747
   20      S      -3.4020044420     2.3646115881     3.6527273021
   21      C      -1.0810633064     2.6255006970     2.4910827275
   22      C       1.0666204018     3.3919353081     1.3028560335
   23      C      -2.0463269255     3.0153939836     4.5770296038
   24      C      -0.9223948067     3.0851929811     3.8691470624
   25      N       1.1629157510     4.4844998217     2.0849679112
   26      S       2.1887945948     3.3021751422    -0.0460154182
   27      C       2.3316148601     5.1842493972     1.8057369601
   28      C       3.0053323146     4.6360709596     0.7667416800
   29      C     -11.6339834830    -0.0647476143    -2.4806101200
   30      H      -9.3117909905     0.3500439545    -4.0398945656
   31      H      -7.0421752610     0.6606094075    -3.1260025920
   32      H      -8.6797732247    -0.0473432547     0.7916581816
   33      H      -7.0665336308     1.6126485922     1.0842484766
   34      H      -2.2315202219     3.3874752730     5.5757888125
   35      H      -0.0310722790     3.6379561196     4.1393915152
   36      H       2.5899916373     6.0612285916     2.3829742888
   37      H       4.0049050996     4.9488219074     0.4987956180
   38      H     -11.6003062516    -0.7843665258    -3.3076297488
   39      C     -12.3481218599     1.2518406665    -2.9308352608
   40      H     -12.1593700640    -0.5447399644    -1.6456069557
   41      H     -13.3665262829     1.0963572021    -3.3061941872
   42      H     -11.7443203776     1.5851918183    -3.7842629259
   43      C     -12.3059599690     2.4112395680    -1.8900213667
   44      H     -11.3161583664     2.4896202057    -1.4239374009
   45      C     -13.2316476842     2.2233156535    -0.7442819303
   46      H     -12.3841132551     3.3506425456    -2.4503383390
   47      H     -12.9703837457     1.4725467551     0.0111598051
   48      H     -14.2423029770     2.0314699253    -1.1251849308
   49      C     -13.1696120667     3.4899029604     0.1854928684
   50      H     -12.1606590645     3.6693952246     0.5781216581
   51      C     -14.1408883867     3.4473005548     1.3666771661
   52      H     -13.4281428459     4.4071520356    -0.3580859854
   53      H     -14.2490736658     4.4402249152     1.8191748564
   54      H     -13.8003406991     2.7172559591     2.1101777786
   55      H     -15.1386067710     3.2448106976     0.9558853898
   56      C       0.0266759622    -4.2997325514     1.2140748308
   57      C      -0.1560227543    -2.8951826387     1.2012015376
   58      N       1.1942094374    -4.8617705112     1.3311983385
   59      C       0.9302692600    -2.0214139982     1.1839962260
   60      C       2.3017794415    -4.0580935394     1.3095879006
   61      C       2.2049319077    -2.6364844071     1.2747019413
   62      C       3.4822703089    -1.8573786380     1.0357462772
   63      C       3.3617238664    -0.5720018070     0.4622796631
   64      C       4.7743897275    -2.2871214356     1.3106745147
   65      N       4.4547487659     0.1677374200     0.0940305016
   66      N       5.0969630728    -3.4490545634     1.9346166943
   67      C       5.8789363593    -1.5635681609     0.9627788451
   68      C       5.7082283764    -0.3904152684     0.2359968453
   69      S       6.7258722764    -3.4745241567     2.1898011491
   70      N       7.0687043913    -2.0949165831     1.3673006422
   71      C       6.9116168698     0.3362539785    -0.2726768610
   72      S       8.6267181746    -0.3930153600    -0.5538009370
   73      C       6.8410799816     1.6025439734    -0.8552394725
   74      C       9.1007599744     1.1117561241    -1.3801762469
   75      S       5.5577439839     2.8058324646    -0.8391919182
   76      C       8.0787894148     2.0877227069    -1.2933695393
   77      C      10.4540776200     1.3375557996    -1.8330115995
   78      C       6.6875039277     3.9597173019    -1.5385346465
   79      C       7.9997498403     3.4455904821    -1.7276411718
   80      N      11.2444256997     0.3030329816    -1.6726418638
   81      S      11.1789092034     2.8220914377    -2.5096371347
   82      C      12.5541286254     0.5522660394    -2.1233248226
   83      C      12.6686307152     1.8306380913    -2.6978499904
   84      C      -1.1603801650    -5.2275257204     1.4929324763
   85      H      -1.1790044477    -2.5400366327     1.1104503984
   86      H       0.7729333939    -0.9494010279     1.2550568814
   87      H       3.2436264666    -4.6015436246     1.3733623952
   88      H       2.4062860345    -0.0623093952     0.3521833651
   89      H       6.2823081274     4.8867689016    -1.9215760215
   90      H       8.7427835025     4.0184421442    -2.2715225469
   91      H      13.2867921050    -0.2428871310    -2.1418898760
   92      H      13.4783389747     2.4090429486    -3.1247157251
   93      H      -0.9504712972    -5.7408862226     2.4392692356
   94      C      -1.4822238915    -6.3045200663     0.4180809542
   95      H      -2.0320277722    -4.5997176067     1.7185725023
   96      H      -0.6828715309    -6.9482097749     0.0312355553
   97      H      -1.8874132259    -5.6718366351    -0.3810906664
   98      C      -2.5840310122    -7.2998426952     0.7873287481
   99      H      -2.2169042784    -8.0173167767     1.5320689066
  100      C      -3.0510681926    -7.9653036143    -0.5078318741
  101      H      -3.4801868561    -6.8538578247     1.2340313322
  102      H      -3.7000359864    -7.2587852445    -1.0405706428
  103      H      -3.6307391199    -8.7815735341    -0.0600606891
  104      C      -2.0429085466    -8.5448840667    -1.4834289361
  105      H      -2.4984610684    -9.0440854554    -2.3479634198
  106      C      -0.9538237660    -9.5057153157    -0.8805403465
  107      H      -1.5247610985    -7.7086644324    -1.9687483621
  108      H      -1.2967304901   -10.5466330439    -0.9063523899
  109      H      -0.7279195713    -9.2577264736     0.1636602228
  110      H      -0.1038405024    -9.4306398394    -1.5706976652
 ----------------------------------------------------------------

    9   -5663.4934791769      9.07E-06 Convergence criterion met
 Total energy in the final basis set = -5663.4934791769

                    Orbital Energies (a.u.)
 --------------------------------------------------------------

 Alpha MOs
 -- Occupied --
-88.993 -88.991 -88.933 -88.931 -88.928 -88.926 -88.918 -88.904
-14.391 -14.382 -14.382 -14.375 -14.354 -14.353 -14.346 -14.346
-14.326 -14.319 -10.280 -10.272 -10.263 -10.260 -10.254 -10.252
-10.251 -10.248 -10.247 -10.246 -10.245 -10.242 -10.241 -10.240
-10.239 -10.236 -10.236 -10.233 -10.231 -10.229 -10.227 -10.223
-10.222 -10.220 -10.219 -10.218 -10.218 -10.218 -10.216 -10.215
-10.214 -10.211 -10.209 -10.209 -10.206 -10.198 -10.194 -10.190
-10.185 -10.183 -10.179 -10.175 -10.173 -10.172 -10.172 -10.172
-10.171 -10.171 -10.171 -10.166  -8.049  -8.046  -7.993  -7.991
 -7.985  -7.984  -7.978  -7.965  -6.014  -6.011  -6.008  -6.007
 -6.005  -6.004  -5.957  -5.955  -5.954  -5.952  -5.950  -5.949
 -5.948  -5.948  -5.946  -5.945  -5.942  -5.941  -5.940  -5.939
 -5.934  -5.929  -5.925  -5.920  -1.052  -1.030  -0.963  -0.962
 -0.951  -0.946  -0.945  -0.936  -0.919  -0.911  -0.904  -0.892
 -0.847  -0.838  -0.836  -0.828  -0.810  -0.810  -0.806  -0.805
 -0.803  -0.799  -0.799  -0.791  -0.788  -0.775  -0.767  -0.761
 -0.750  -0.747  -0.739  -0.737  -0.731  -0.723  -0.712  -0.707
 -0.696  -0.691  -0.674  -0.674  -0.657  -0.653  -0.652  -0.645
 -0.636  -0.633  -0.629  -0.620  -0.613  -0.612  -0.603  -0.602
 -0.598  -0.589  -0.584  -0.579  -0.577  -0.575  -0.564  -0.557
 -0.542  -0.542  -0.538  -0.536  -0.528  -0.522  -0.518  -0.509
 -0.505  -0.505  -0.501  -0.494  -0.494  -0.482  -0.475  -0.474
 -0.473  -0.470  -0.470  -0.465  -0.463  -0.458  -0.452  -0.448
 -0.446  -0.444  -0.441  -0.439  -0.437  -0.432  -0.431  -0.430
 -0.428  -0.423  -0.423  -0.421  -0.418  -0.414  -0.413  -0.412
 -0.410  -0.406  -0.405  -0.402  -0.398  -0.398  -0.397  -0.396
 -0.396  -0.395  -0.392  -0.392  -0.390  -0.389  -0.387  -0.383
 -0.380  -0.379  -0.378  -0.370  -0.366  -0.361  -0.359  -0.356
 -0.354  -0.354  -0.350  -0.349  -0.346  -0.345  -0.345  -0.338
 -0.333  -0.333  -0.331  -0.330  -0.327  -0.326  -0.319  -0.318
 -0.318  -0.313  -0.308  -0.304  -0.301  -0.298  -0.298  -0.294
 -0.291  -0.291  -0.290  -0.289  -0.287  -0.285  -0.280  -0.279
 -0.277  -0.276  -0.268  -0.262  -0.259  -0.255  -0.253  -0.249
 -0.248  -0.244  -0.238  -0.227  -0.197  -0.192

          Ground-State Mulliken Net Atomic Charges

     Atom                 Charge (a.u.)
  ----------------------------------------
      1 C                     0.257892
      2 C                    -0.108924
      3 N                    -0.474518
      4 C                    -0.052257
      5 C                     0.064830
      6 C                     0.052375
      7 C                     0.035457
      8 C                     0.060609
      9 C                     0.229100
     10 N                    -0.528833
     11 N                    -0.533576
     12 C                     0.169446
     13 C                     0.284243
     14 S                     0.612107
     15 N                    -0.549011
     16 C                    -0.230828
     17 S                     0.291436
     18 C                    -0.084748
     19 C                    -0.255928
     20 S                     0.279585
     21 C                     0.147960
     22 C                     0.035245
     23 C                    -0.307955
     24 C                    -0.026687
     25 N                    -0.428460
     26 S                     0.306269
     27 C                     0.129478
     28 C                    -0.307350
     29 C                    -0.225077
     30 H                     0.093876
     31 H                     0.107628
     32 H                     0.100174
     33 H                     0.117123
     34 H                     0.131050
     35 H                     0.120027
     36 H                     0.123492
     37 H                     0.129480
     38 H                     0.095083
     39 C                    -0.185550
     40 H                     0.119031
     41 H                     0.097120
     42 H                     0.083720
     43 C                    -0.168735
     44 H                     0.099741
     45 C                    -0.159409
     46 H                     0.090481
     47 H                     0.112035
     48 H                     0.083548
     49 C                    -0.188900
     50 H                     0.092861
     51 C                    -0.318317
     52 H                     0.085882
     53 H                     0.097441
     54 H                     0.102576
     55 H                     0.100610
     56 C                     0.279141
     57 C                    -0.136231
     58 N                    -0.471446
     59 C                    -0.077642
     60 C                     0.061732
     61 C                     0.026745
     62 C                     0.058659
     63 C                     0.061200
     64 C                     0.247995
     65 N                    -0.542876
     66 N                    -0.583144
     67 C                     0.228406
     68 C                     0.284690
     69 S                     0.614663
     70 N                    -0.574636
     71 C                    -0.220369
     72 S                     0.364051
     73 C                    -0.135201
     74 C                    -0.236835
     75 S                     0.317860
     76 C                     0.132719
     77 C                     0.098553
     78 C                    -0.330924
     79 C                    -0.082544
     80 N                    -0.442844
     81 S                     0.255664
     82 C                     0.122432
     83 C                    -0.312469
     84 C                    -0.230472
     85 H                     0.094922
     86 H                     0.120259
     87 H                     0.135247
     88 H                     0.111431
     89 H                     0.131914
     90 H                     0.117105
     91 H                     0.127302
     92 H                     0.137118
     93 H                     0.116072
     94 C                    -0.161633
     95 H                     0.087237
     96 H                     0.121275
     97 H                     0.085111
     98 C                    -0.189467
     99 H                     0.093137
    100 C                    -0.167185
    101 H                     0.088880
    102 H                     0.089830
    103 H                     0.083620
    104 C                    -0.189121
    105 H                     0.091434
    106 C                    -0.322556
    107 H                     0.096181
    108 H                     0.102614
    109 H                     0.111436
    110 H                     0.107012
  ----------------------------------------
  Sum of atomic charges =     0.000000

                    Cartesian Multipole Moments
 -----------------------------------------------------------------
    Charge (ESU x 10^10)
                 0.0000
    Dipole Moment (Debye)
         X       2.9414      Y       3.2922      Z      -2.8886
       Tot       5.2758
    Quadrupole Moments (Debye-Ang)
        XX    -406.1411     XY      21.5825     YY    -436.8080
        XZ       3.1376     YZ      -4.0711     ZZ    -431.2756

 Total job time:  88.53s(wall), 969.61s(cpu)
        *  Thank you very much for using Q-Chem.  Have a nice day.  *
