 Q-Chem 4.4, Q-Chem, Inc., Pleasanton, CA (2016)
 Q-Chem 4.4.2 for Intel X86 Linux

User input:
--------------------------------------------------------------
$comment
SP
$end

$rem
MEM_STATIC 5000
MEM_TOTAL 20000
JOBTYPE SP
EXCHANGE B3LYP
BASIS 6-31g(d,p)
$end

$molecule
0 1
C          19.454000     18.889000    -10.124000
C          18.212000     18.248000    -10.291000
N          19.619000     20.133000    -10.636000
C          17.068000     18.942000    -10.749000
C          18.645000     20.811000    -11.196000
C          17.315000     20.266000    -11.299000
C          16.195000     21.085000    -11.888000
C          16.308000     21.946000    -12.979000
C          14.965000     21.176000    -11.168000
N          15.320000     22.716000    -13.477000
N          14.683000     20.533000     -9.990000
C          13.990000     22.101000    -11.600000
C          14.151000     22.840000    -12.784000
S          13.247000     21.169000     -9.502000
N          12.939000     22.126000    -10.765000
C          13.130000     23.748000    -13.314000
S          11.494000     23.993000    -12.576000
C          13.304000     24.753000    -14.214000
C          10.973000     25.242000    -13.773000
S          14.718000     25.223000    -15.156000
C          12.150000     25.493000    -14.491000
C           9.791000     26.006000    -13.723000
C          13.790000     26.560000    -15.799000
C          12.444000     26.541000    -15.420000
N           9.528000     27.003000    -14.572000
S           8.614000     25.687000    -12.452000
C           8.267000     27.512000    -14.231000
C           7.610000     26.831000    -13.240000
C          20.675000     18.208000     -9.488000
H          18.070000     17.250000     -9.885000
H          16.070000     18.515000    -10.754000
H          18.930000     21.773000    -11.618000
H          17.240000     21.958000    -13.542000
H          14.224000     27.158000    -16.590000
H          11.735000     27.264000    -15.806000
H           7.893000     28.309000    -14.859000
H           6.578000     26.858000    -12.915000
H          21.544000     18.875000     -9.434000
C          21.124000     16.963000    -10.212000
H          20.484000     18.058000     -8.418000
H          20.262000     16.303000    -10.371000
H          21.787000     16.433000     -9.517000
C          21.729000     17.260000    -11.570000
H          22.175000     18.261000    -11.615000
C          20.728000     17.036000    -12.755000
H          22.592000     16.583000    -11.552000
H          19.761000     17.503000    -12.534000
H          20.470000     15.973000    -12.835000
C          21.409000     17.417000    -14.104000
H          20.686000     17.817000    -14.825000
C          22.298000     16.329000    -14.678000
H          22.015000     18.306000    -13.887000
H          22.866000     15.741000    -13.947000
H          22.961000     16.661000    -15.487000
H          21.720000     15.512000    -15.127000
C           0.811000     12.983000    -13.708000
C           1.826000     13.313000    -14.627000
N           1.108000     12.943000    -12.415000
C           3.150000     13.497000    -14.181000
C           2.339000     13.311000    -11.982000
C           3.485000     13.471000    -12.805000
C           4.822000     13.790000    -12.367000
C           5.896000     13.477000    -13.134000
C           5.074000     14.509000    -11.123000
N           7.179000     13.697000    -12.699000
N           4.158000     15.033000    -10.281000
C           6.382000     14.627000    -10.691000
C           7.472000     14.156000    -11.498000
S           4.990000     15.523000     -8.971000
N           6.521000     15.220000     -9.429000
C           8.916000     14.371000    -11.229000
S           9.569000     15.467000     -9.992000
C           9.970000     13.732000    -11.818000
C          11.229000     15.075000    -10.371000
S           9.979000     12.430000    -13.004000
C          11.213000     14.106000    -11.427000
C          12.368000     15.865000    -10.022000
C          11.684000     12.226000    -12.788000
C          12.220000     13.227000    -11.994000
N          13.550000     15.471000    -10.273000
S          12.164000     17.286000     -9.036000
C          14.486000     16.350000     -9.723000
C          13.860000     17.475000     -9.098000
C          -0.551000     12.485000    -14.213000
H           1.588000     13.393000    -15.684000
H           3.937000     13.731000    -14.892000
H           2.505000     13.184000    -10.913000
H           5.744000     12.892000    -14.039000
H          12.297000     11.489000    -13.289000
H          13.274000     13.254000    -11.743000
H          15.531000     16.230000     -9.977000
H          14.204000     18.441000     -8.753000
H          -0.482000     12.013000    -15.201000
C          -1.724000     13.544000    -14.195000
H          -0.746000     11.631000    -13.553000
H          -1.739000     14.020000    -13.207000
H          -2.704000     13.073000    -14.339000
C          -1.436000     14.682000    -15.213000
H          -0.455000     15.167000    -15.129000
C          -2.365000     15.938000    -15.163000
H          -1.507000     14.236000    -16.212000
H          -2.270000     16.329000    -14.142000
H          -3.437000     15.726000    -15.262000
C          -2.004000     17.015000    -16.161000
H          -1.917000     17.995000    -15.675000
C          -2.962000     17.216000    -17.377000
H          -0.988000     16.884000    -16.555000
H          -2.676000     16.418000    -18.074000
H          -2.795000     18.164000    -17.904000
H          -4.043000     17.144000    -17.204000
$end

--------------------------------------------------------------

             Standard Nuclear Orientation (Angstroms)
    I     Atom           X                Y                Z
 ----------------------------------------------------------------
    1      C       8.5373958821     3.1920560509    -0.6275945006
    2      C       7.1362431084     3.2962887654    -0.5425036903
    3      N       9.1181987726     1.9945439028    -0.3715912634
    4      C       6.3061530486     2.1554355325    -0.4448287518
    5      C       8.4307218617     0.9003556709    -0.1433641612
    6      C       6.9897582695     0.9043001935    -0.1552959118
    7      C       6.2184971908    -0.3750576778     0.0459049468
    8      C       6.5603279822    -1.3963829569     0.9315783540
    9      C       5.1758572017    -0.6950679839    -0.8760908543
   10      N       5.8996369237    -2.5621619678     1.0781888006
   11      N       4.7673912755     0.0939810050    -1.9207028780
   12      C       4.5909642838    -1.9788257857    -0.8237441163
   13      C       4.9235647727    -2.8978387109     0.1855577008
   14      S       3.7218587373    -0.8489935705    -2.7706420886
   15      N       3.6977592148    -2.1474098765    -1.8117801020
   16      C       4.2819621511    -4.2077526236     0.3279536884
   17      S       2.9243560070    -4.8023879999    -0.7134296833
   18      C       4.7497397642    -5.2879336681     1.0096383778
   19      C       2.8192828280    -6.4204766801     0.0834389696
   20      S       6.1561148286    -5.4677064748     2.0572312931
   21      C       3.9422990592    -6.4265065767     0.9216824814
   22      C       2.0212840363    -7.5051018401    -0.3290003480
   23      C       5.7532028249    -7.1615181856     2.2329179621
   24      C       4.5346884662    -7.5114657355     1.6425981589
   25      N       2.0869851032    -8.7160357661     0.2307329784
   26      S       0.9169253559    -7.2935883984    -1.6847971502
   27      C       1.1431670621    -9.5223137118    -0.4208852990
   28      C       0.3594177785    -8.8775817098    -1.3415093841
   29      C       9.4576967528     4.3942613467    -0.8861418543
   30      H       6.6610299029     4.2524217953    -0.7449537795
   31      H       5.2238710203     2.1935080516    -0.5194886106
   32      H       9.0229834495     0.0219917580     0.1065479197
   33      H       7.3795238274    -1.2314071695     1.6297460680
   34      H       6.3159267650    -7.7564852656     2.9407293360
   35      H       4.1226173871    -8.5091103546     1.7390794502
   36      H       1.0486800746   -10.5337970156    -0.0501525984
   37      H      -0.5563858755    -9.1743796666    -1.8360724642
   38      H      10.5155039850     4.1080222726    -0.9317165383
   39      C       9.3438704876     5.4829018449     0.1519850393
   40      H       9.3106381045     4.7423461249    -1.9162349283
   41      H       8.2867467411     5.7378754605     0.2982821337
   42      H       9.8111350163     6.3712642475    -0.2907000652
   43      C       9.9052640943     5.0705392219     1.4985333250
   44      H      10.6909960450     4.3110625313     1.4049253235
   45      C       8.8022609936     4.6169283442     2.5154027028
   46      H      10.4472711852     5.9840727814     1.7725894306
   47      H       8.1041912806     3.9189742322     2.0383516225
   48      H       8.1565383506     5.4647590077     2.7745521469
   49      C       9.4661993454     4.1575166011     3.8483879673
   50      H       8.8924221355     3.3587645833     4.3335115883
   51      C       9.8295790150     5.2960798468     4.7838931523
   52      H      10.3782560641     3.6226774042     3.5538619491
   53      H      10.1901933479     6.2132173573     4.3027018290
   54      H      10.5017001098     5.0154081707     5.6047163027
   55      H       8.9519369627     5.7152266551     5.2910759409
   56      C     -11.1781807864     1.1270689459     0.8952994173
   57      C     -10.1909025855     0.9413558834     1.8824561488
   58      N     -10.8156436575     1.6030837789    -0.2894514886
   59      C      -8.8642619134     1.3501151601     1.6401993002
   60      C      -9.5063775103     1.8104384274    -0.5742324666
   61      C      -8.4547302462     1.8483092576     0.3791031680
   62      C      -7.0657735650     2.1378178011     0.1180320262
   63      C      -6.2546235910     2.5916455059     1.1058630512
   64      C      -6.4621446756     1.9014548595    -1.1887830807
   65      N      -4.9530978000     2.9509009944     0.8595297218
   66      N      -7.0418677542     1.3317167274    -2.2667049763
   67      C      -5.1763026309     2.3605056895    -1.4062562318
   68      C      -4.4132458757     2.9518335636    -0.3435870764
   69      S      -5.9843330192     1.5197017672    -3.4892866338
   70      N      -4.7230432890     2.2032765297    -2.7228613208
   71      C      -2.9783872726     3.3280367406    -0.4016728638
   72      S      -1.8630630151     2.8888898607    -1.7135401660
   73      C      -2.2944890186     4.1151541810     0.4808730631
   74      C      -0.5100333404     3.7179246614    -0.9821599650
   75      S      -2.8727797332     4.9823927697     1.9005061424
   76      C      -0.9752541767     4.3103031999     0.2372703285
   77      C       0.8669378464     3.4912169430    -1.2916368806
   78      C      -1.3595683795     5.8127274102     2.0271267713
   79      C      -0.4235546327     5.3031812795     1.1417037049
   80      N       1.7885047517     4.1899785620    -0.7645622760
   81      S       1.2942278492     2.3970847462    -2.5774638478
   82      C       3.0279137673     3.8652097697    -1.3210041180
   83      C       2.9252150702     2.7976340280    -2.2685594004
   84      C     -12.6631464435     0.9727540300     1.2546556526
   85      H     -10.4649922313     0.5112539097     2.8417163629
   86      H      -8.1068880997     1.2262382587     2.4087599157
   87      H      -9.3154911084     2.2611049804    -1.5473244661
   88      H      -6.6882385308     2.8302567646     2.0750878710
   89      H      -1.1124471462     6.5584651850     2.7705951750
   90      H       0.5791026066     5.7091266897     1.0743777496
   91      H       3.9262928172     4.2688347754    -0.8727375259
   92      H       3.6348986275     2.1360908094    -2.7473357767
   93      H     -12.8568769372     1.1643805731     2.3174052768
   94      C     -13.3440408916    -0.3829595285     0.8117589400
   95      H     -13.1125308979     1.8469997231     0.7681486330
   96      H     -13.0989838460    -0.5594996000    -0.2426250733
   97      H     -14.4374703013    -0.3352487275     0.8832628230
   98      C     -12.7303446109    -1.5743128252     1.5981215774
   99      H     -11.6355170779    -1.6499401893     1.5815331818
  100      C     -13.1092068666    -3.0147647806     1.1241610776
  101      H     -13.0442953689    -1.4574453541     2.6420252682
  102      H     -12.7921152088    -3.0680212665     0.0748929387
  103      H     -14.1861254170    -3.2205796863     1.0815505111
  104      C     -12.4495912358    -4.1206606431     1.9167237319
  105      H     -11.9604095210    -4.8470105860     1.2554507094
  106      C     -13.3549670332    -4.9504888601     2.8803111933
  107      H     -11.5933405567    -3.7536666979     2.4970712302
  108      H     -13.4482520982    -4.3140723808     3.7695136233
  109      H     -12.8852657198    -5.8844596542     3.2140794242
  110      H     -14.3655327904    -5.2146625529     2.5446877281
 ----------------------------------------------------------------

    9   -5663.5283931884      7.63E-06 Convergence criterion met
 Total energy in the final basis set = -5663.5283931884

                    Orbital Energies (a.u.)
 --------------------------------------------------------------

 Alpha MOs
 -- Occupied --
-88.996 -88.992 -88.927 -88.926 -88.924 -88.922 -88.911 -88.905
-14.393 -14.390 -14.388 -14.386 -14.356 -14.350 -14.347 -14.345
-14.329 -14.326 -10.271 -10.269 -10.267 -10.265 -10.262 -10.261
-10.259 -10.259 -10.248 -10.245 -10.243 -10.243 -10.242 -10.242
-10.239 -10.235 -10.235 -10.234 -10.232 -10.232 -10.231 -10.231
-10.228 -10.227 -10.225 -10.224 -10.224 -10.223 -10.220 -10.219
-10.214 -10.213 -10.212 -10.209 -10.205 -10.200 -10.195 -10.195
-10.192 -10.189 -10.186 -10.182 -10.180 -10.178 -10.178 -10.177
-10.176 -10.175 -10.174 -10.170  -8.051  -8.048  -7.988  -7.987
 -7.987  -7.981  -7.971  -7.965  -6.016  -6.013  -6.011  -6.009
 -6.007  -6.006  -5.952  -5.951  -5.950  -5.949  -5.947  -5.947
 -5.945  -5.945  -5.944  -5.944  -5.942  -5.937  -5.935  -5.931
 -5.930  -5.927  -5.926  -5.921  -1.042  -1.039  -0.981  -0.967
 -0.961  -0.959  -0.940  -0.940  -0.915  -0.912  -0.905  -0.902
 -0.847  -0.841  -0.841  -0.832  -0.817  -0.814  -0.813  -0.810
 -0.807  -0.802  -0.795  -0.794  -0.783  -0.781  -0.770  -0.769
 -0.750  -0.748  -0.740  -0.737  -0.729  -0.720  -0.709  -0.709
 -0.695  -0.694  -0.678  -0.671  -0.658  -0.656  -0.649  -0.647
 -0.640  -0.639  -0.628  -0.625  -0.616  -0.615  -0.604  -0.597
 -0.597  -0.595  -0.582  -0.581  -0.578  -0.575  -0.571  -0.569
 -0.555  -0.548  -0.543  -0.541  -0.528  -0.527  -0.518  -0.513
 -0.510  -0.509  -0.502  -0.501  -0.487  -0.485  -0.481  -0.481
 -0.474  -0.474  -0.471  -0.470  -0.465  -0.458  -0.451  -0.450
 -0.442  -0.442  -0.441  -0.437  -0.436  -0.435  -0.434  -0.431
 -0.430  -0.428  -0.427  -0.426  -0.423  -0.421  -0.418  -0.416
 -0.413  -0.411  -0.407  -0.404  -0.404  -0.402  -0.400  -0.399
 -0.397  -0.396  -0.391  -0.391  -0.389  -0.387  -0.387  -0.383
 -0.382  -0.381  -0.376  -0.374  -0.369  -0.366  -0.359  -0.355
 -0.353  -0.352  -0.351  -0.349  -0.348  -0.346  -0.343  -0.341
 -0.339  -0.338  -0.336  -0.334  -0.332  -0.328  -0.323  -0.316
 -0.315  -0.314  -0.313  -0.310  -0.307  -0.306  -0.304  -0.302
 -0.299  -0.298  -0.295  -0.294  -0.291  -0.289  -0.285  -0.284
 -0.278  -0.271  -0.270  -0.269  -0.254  -0.253  -0.248  -0.247
 -0.246  -0.242  -0.234  -0.234  -0.195  -0.192

          Ground-State Mulliken Net Atomic Charges

     Atom                 Charge (a.u.)
  ----------------------------------------
      1 C                     0.277274
      2 C                    -0.137259
      3 N                    -0.466655
      4 C                    -0.050596
      5 C                     0.087533
      6 C                    -0.001341
      7 C                     0.030799
      8 C                     0.054633
      9 C                     0.241952
     10 N                    -0.531642
     11 N                    -0.584632
     12 C                     0.212459
     13 C                     0.321149
     14 S                     0.610978
     15 N                    -0.561346
     16 C                    -0.226030
     17 S                     0.308307
     18 C                    -0.104602
     19 C                    -0.212106
     20 S                     0.289293
     21 C                     0.134113
     22 C                     0.074248
     23 C                    -0.307965
     24 C                    -0.067569
     25 N                    -0.445376
     26 S                     0.276705
     27 C                     0.119580
     28 C                    -0.303942
     29 C                    -0.225087
     30 H                     0.086244
     31 H                     0.118562
     32 H                     0.105142
     33 H                     0.116524
     34 H                     0.129735
     35 H                     0.129083
     36 H                     0.114749
     37 H                     0.139063
     38 H                     0.118643
     39 C                    -0.193637
     40 H                     0.101870
     41 H                     0.094063
     42 H                     0.091448
     43 C                    -0.168115
     44 H                     0.106125
     45 C                    -0.187110
     46 H                     0.094576
     47 H                     0.103041
     48 H                     0.089254
     49 C                    -0.173555
     50 H                     0.090470
     51 C                    -0.322076
     52 H                     0.096943
     53 H                     0.104959
     54 H                     0.102122
     55 H                     0.099905
     56 C                     0.284861
     57 C                    -0.120026
     58 N                    -0.481426
     59 C                    -0.087028
     60 C                     0.075551
     61 C                     0.035262
     62 C                     0.068811
     63 C                     0.045227
     64 C                     0.255697
     65 N                    -0.526675
     66 N                    -0.556001
     67 C                     0.142243
     68 C                     0.316713
     69 S                     0.614119
     70 N                    -0.543184
     71 C                    -0.215916
     72 S                     0.329741
     73 C                    -0.106129
     74 C                    -0.237768
     75 S                     0.274335
     76 C                     0.136453
     77 C                     0.098511
     78 C                    -0.295926
     79 C                    -0.074333
     80 N                    -0.429340
     81 S                     0.262868
     82 C                     0.091773
     83 C                    -0.314989
     84 C                    -0.233077
     85 H                     0.090584
     86 H                     0.096845
     87 H                     0.105658
     88 H                     0.122517
     89 H                     0.130529
     90 H                     0.120019
     91 H                     0.116293
     92 H                     0.155198
     93 H                     0.100480
     94 C                    -0.182776
     95 H                     0.118101
     96 H                     0.111874
     97 H                     0.100141
     98 C                    -0.178594
     99 H                     0.100786
    100 C                    -0.178805
    101 H                     0.088079
    102 H                     0.094997
    103 H                     0.090145
    104 C                    -0.183267
    105 H                     0.094158
    106 C                    -0.323970
    107 H                     0.090926
    108 H                     0.103417
    109 H                     0.101387
    110 H                     0.104029
  ----------------------------------------
  Sum of atomic charges =     0.000000

                    Cartesian Multipole Moments
 -----------------------------------------------------------------
    Charge (ESU x 10^10)
                 0.0000
    Dipole Moment (Debye)
         X      -0.9541      Y      -1.1877      Z      -0.5751
       Tot       1.6284
    Quadrupole Moments (Debye-Ang)
        XX    -451.9848     XY      21.8536     YY    -419.4729
        XZ     -13.3832     YZ       7.8089     ZZ    -434.4260

 Total job time:  85.67s(wall), 933.83s(cpu)
        *  Thank you very much for using Q-Chem.  Have a nice day.  *
