 Q-Chem 4.4, Q-Chem, Inc., Pleasanton, CA (2016)
 Q-Chem 4.4.2 for Intel X86 Linux

User input:
--------------------------------------------------------------
$comment
SP
$end

$rem
MEM_STATIC 5000
MEM_TOTAL 20000
JOBTYPE SP
EXCHANGE B3LYP
BASIS 6-31g(d,p)
$end

$molecule
0 1
C          20.705000      7.050000     -1.900000
C          21.028000      8.399000     -1.650000
N          19.953000      6.294000     -1.095000
C          20.636000      9.008000     -0.437000
C          19.476000      6.888000     -0.008000
C          19.820000      8.252000      0.375000
C          19.248000      8.832000      1.593000
C          17.972000      9.452000      1.684000
C          20.029000      8.660000      2.804000
N          17.438000      9.923000      2.847000
N          21.056000      7.830000      2.996000
C          19.409000      9.140000      3.975000
C          18.153000      9.821000      3.998000
S          21.472000      8.052000      4.558000
N          20.189000      8.910000      5.071000
C          17.498000     10.376000      5.140000
S          18.218000     10.407000      6.748000
C          16.157000     10.663000      5.258000
C          16.764000     11.136000      7.488000
S          14.797000     10.440000      4.134000
C          15.767000     11.073000      6.528000
C          16.539000     11.606000      8.813000
C          13.801000     11.206000      5.391000
C          14.364000     11.454000      6.633000
N          17.669000     11.826000      9.452000
S          15.276000     10.976000      9.769000
C          17.506000     11.804000     10.790000
C          16.278000     11.369000     11.145000
C          21.231000      6.275000     -3.125000
H          21.654000      8.918000     -2.370000
H          20.927000     10.047000     -0.309000
H          18.883000      6.255000      0.650000
H          17.306000      9.641000      0.844000
H          12.761000     11.392000      5.157000
H          13.770000     11.888000      7.429000
H          18.348000     12.024000     11.432000
H          15.745000     11.307000     12.085000
H          22.319000      6.397000     -3.196000
C          20.442000      6.653000     -4.432000
H          21.169000      5.194000     -2.950000
H          19.405000      6.295000     -4.406000
H          20.865000      6.100000     -5.280000
C          20.346000      8.167000     -4.798000
H          19.819000      8.662000     -3.973000
C          19.456000      8.401000     -5.953000
H          21.292000      8.685000     -5.000000
H          19.429000      9.491000     -6.075000
H          18.406000      8.174000     -5.732000
C          19.770000      7.609000     -7.211000
H          20.626000      8.036000     -7.748000
C          18.550000      7.821000     -8.110000
H          20.026000      6.581000     -6.926000
H          17.697000      7.131000     -8.106000
H          18.833000      7.850000     -9.170000
H          18.251000      8.877000     -8.092000
C           7.158000     21.813000     12.981000
C           6.933000     20.577000     12.396000
N           8.396000     22.297000     13.118000
C           7.965000     19.771000     11.879000
C           9.389000     21.613000     12.421000
C           9.280000     20.336000     11.842000
C          10.446000     19.717000     11.104000
C          11.774000     20.298000     11.197000
C          10.301000     18.691000     10.101000
N          12.837000     19.849000     10.577000
N           9.106000     18.312000      9.616000
C          11.435000     18.276000      9.334000
C          12.711000     18.725000      9.737000
S           9.473000     17.251000      8.365000
N          11.091000     17.311000      8.418000
C          13.909000     18.102000      9.130000
S          13.990000     16.740000      8.021000
C          15.202000     18.581000      9.204000
C          15.752000     16.733000      8.025000
S          15.676000     20.072000     10.139000
C          16.231000     17.853000      8.620000
C          16.486000     15.771000      7.291000
C          17.345000     19.600000      9.600000
C          17.446000     18.425000      8.900000
N          17.816000     15.771000      7.370000
S          15.840000     14.515000      6.295000
C          18.375000     14.691000      6.660000
C          17.424000     13.932000      5.951000
C           6.017000     22.703000     13.408000
H           5.891000     20.287000     12.297000
H           7.704000     18.789000     11.496000
H          10.312000     22.184000     12.325000
H          11.907000     21.228000     11.748000
H          18.060000     20.306000     10.002000
H          18.385000     18.024000      8.535000
H          19.446000     14.536000      6.630000
H          17.473000     13.115000      5.242000
H           6.292000     23.024000     14.420000
C           4.570000     22.106000     13.467000
H           6.019000     23.593000     12.767000
H           4.679000     21.267000     14.165000
H           4.302000     21.830000     12.440000
C           3.477000     23.092000     14.042000
H           3.822000     23.583000     14.961000
C           2.123000     22.352000     14.357000
H           3.404000     23.904000     13.307000
H           2.246000     21.395000     14.880000
H           1.628000     22.194000     13.391000
C           1.091000     23.230000     15.151000
H           1.593000     23.707000     16.001000
C          -0.002000     22.281000     15.715000
H           0.711000     24.047000     14.525000
H          -0.688000     22.768000     16.419000
H           0.495000     21.531000     16.342000
H          -0.640000     21.857000     14.930000
$end

--------------------------------------------------------------

             Standard Nuclear Orientation (Angstroms)
    I     Atom           X                Y                Z
 ----------------------------------------------------------------
    1      C     -12.4443701725     1.5314795233     0.0213208590
    2      C     -11.6974099247     1.2290089451    -1.1350492969
    3      N     -11.9844290108     1.4053475037     1.2693632627
    4      C     -10.4089428587     0.6615954125    -1.0175397110
    5      C     -10.7310613367     0.9864109856     1.3938448560
    6      C      -9.9088418743     0.5741439765     0.2626896637
    7      C      -8.5328818955     0.1240345803     0.4890603070
    8      C      -7.4016594550     0.9763820452     0.6102897967
    9      C      -8.3584522217    -1.3018232795     0.6953844518
   10      N      -6.1426555557     0.5321449536     0.8880101381
   11      N      -9.3043242421    -2.2048918232     0.9605001367
   12      C      -7.0410988275    -1.6923962086     1.0085518539
   13      C      -5.9258811362    -0.7998456934     1.0468804222
   14      S      -8.4892606583    -3.6067984722     1.1408140354
   15      N      -6.9674887815    -3.0383832950     1.2216629145
   16      C      -4.5624682798    -1.1398820330     1.3051335359
   17      S      -4.0020963787    -2.7971911100     1.5156922117
   18      C      -3.5716381235    -0.2873417893     1.7364161974
   19      C      -2.3249756098    -2.2861836865     1.8610823381
   20      S      -3.5976137346     1.4420273179     2.1503156525
   21      C      -2.3659786585    -0.9122330635     2.0347384223
   22      C      -1.1450401537    -3.0593826026     2.0536070265
   23      C      -1.8521939647     1.2673006913     2.4363251503
   24      C      -1.2934499528    -0.0009022250     2.4138865177
   25      N      -1.2771766839    -4.2796322359     1.5770026101
   26      S      -0.2353975426    -2.9363880241     3.4900706194
   27      C      -0.4094972659    -5.1410870884     2.1447393137
   28      C       0.2391567440    -4.5913097047     3.1936562808
   29      C     -13.9115183769     2.0036877914    -0.0278878600
   30      H     -12.1736001245     1.3620482197    -2.1020965786
   31      H      -9.8954554378     0.4466178425    -1.9506534838
   32      H     -10.3760344947     0.8673742050     2.4161404034
   33      H      -7.4123130019     2.0555468159     0.4682795871
   34      H      -1.2968212718     2.1620694992     2.6851261801
   35      H      -0.2384168759    -0.1404385788     2.6194170815
   36      H      -0.3777131946    -6.1665853423     1.8028751533
   37      H       1.0573942710    -4.9138100220     3.8245397048
   38      H     -14.4952695816     1.3203057445    -0.6570877559
   39      C     -14.0186948035     3.5199552439    -0.4317445498
   40      H     -14.3996739589     1.8390158158     0.9404185317
   41      H     -13.6268946603     4.1836589637     0.3494078171
   42      H     -15.0770355445     3.8053561887    -0.4797359741
   43      C     -13.3033281030     3.9633721960    -1.7458982281
   44      H     -12.2335879502     3.7614867958    -1.6107046981
   45      C     -13.3474638578     5.4277007584    -1.9321101951
   46      H     -13.6549449135     3.5015001065    -2.6770715694
   47      H     -12.7727455879     5.6154217885    -2.8476279312
   48      H     -12.7575195329     5.9684374019    -1.1821504789
   49      C     -14.7245488760     6.0675675858    -1.8808140387
   50      H     -15.2756657242     5.9036823986    -2.8150762424
   51      C     -14.4447367797     7.5700795648    -1.8052631044
   52      H     -15.2962085703     5.6095254616    -1.0641454362
   53      H     -14.3618256350     8.0993585798    -0.8478110344
   54      H     -15.2120646032     8.1481927542    -2.3358506577
   55      H     -13.6540510694     7.8396431250    -2.5173112730
   56      C      12.5062705477     1.0851946406    -0.4004568703
   57      C      11.5721360212     1.5722039912     0.4999655744
   58      N      12.1703683607     0.1750538612    -1.3194141502
   59      C      10.2194497929     1.1821714603     0.4919910732
   60      C      10.8042172367    -0.0486132794    -1.4721168569
   61      C       9.7845570064     0.3516864871    -0.5901281315
   62      C       8.3344893333     0.0443000517    -0.8904251893
   63      C       7.9781710090    -0.8882593014    -1.9454912085
   64      C       7.2305839551     0.7955889556    -0.3457529036
   65      N       6.7541267441    -1.1982892175    -2.2941559309
   66      N       7.3979816129     1.9367212107     0.3446717488
   67      C       5.8996150897     0.5462380889    -0.8070727759
   68      C       5.6788295862    -0.5855726043    -1.6209795987
   69      S       5.8393529778     2.5153511399     0.5922099941
   70      N       4.9943691049     1.3749604625    -0.1887153272
   71      C       4.2856424472    -1.0102318643    -1.8864529656
   72      S       2.7973720306    -0.3614052534    -1.2115002295
   73      C       3.8787434704    -1.9126177731    -2.8492088507
   74      C       1.8036177477    -1.5696506104    -2.0222434580
   75      S       5.0267013939    -2.8050826437    -3.9481542818
   76      C       2.5334395154    -2.2461876249    -2.9428540464
   77      C       0.4004397356    -1.6099405140    -1.8421762765
   78      C       3.4958813229    -3.5899866849    -4.5307189190
   79      C       2.3457522436    -3.2378932031    -3.8718871643
   80      N      -0.3018241808    -2.5767180103    -2.4315044230
   81      S      -0.5504989233    -0.5381861133    -0.8757777191
   82      C      -1.6606821831    -2.5235041721    -2.0659169273
   83      C      -1.9828249523    -1.4147410571    -1.2596716848
   84      C      13.9159390901     1.6213111040    -0.4419747984
   85      H      11.9324649682     2.3351010467     1.1839364309
   86      H       9.5717877764     1.5659653898     1.2745318914
   87      H      10.5587314760    -0.5677822571    -2.3980684290
   88      H       8.7668009673    -1.3103336688    -2.5668655057
   89      H       3.7392431910    -4.3184432819    -5.2932089107
   90      H       1.3696327605    -3.6446904746    -4.1115822512
   91      H      -2.3711588662    -3.2455319833    -2.4478393312
   92      H      -2.9015954675    -0.9940536331    -0.8705009875
   93      H      14.5435559589     0.7224036494    -0.4715121316
   94      C      14.4195817488     2.5237159291     0.7351864497
   95      H      14.0525601297     2.1511488519    -1.3925491786
   96      H      14.2836054995     1.8803766097     1.6130423488
   97      H      13.8052503667     3.4320572377     0.7196294568
   98      C      15.9450715977     2.9266817520     0.6459157007
   99      H      16.5769392857     2.0600059437     0.4129280012
  100      C      16.4644067652     3.5690722588     1.9867238229
  101      H      16.0233292620     3.5702651072    -0.2398462329
  102      H      16.1490425691     3.0344602460     2.8918439362
  103      H      16.0821940867     4.5970867875     2.0023634293
  104      C      18.0220724946     3.7633550362     2.0344278863
  105      H      18.5167642844     2.8383775858     1.7154768722
  106      C      18.4201521895     4.0310511271     3.5119993260
  107      H      18.3403237663     4.5381041465     1.3257354677
  108      H      19.5034592444     4.0251312193     3.6846022794
  109      H      18.0754284009     3.1805338772     4.1123524864
  110      H      18.0710473093     5.0057617949     3.8740903318
 ----------------------------------------------------------------

   10   -5663.4791665257      4.69E-06 Convergence criterion met
 Total energy in the final basis set = -5663.4791665257

                    Orbital Energies (a.u.)
 --------------------------------------------------------------

 Alpha MOs
 -- Occupied --
-88.990 -88.989 -88.932 -88.923 -88.919 -88.918 -88.917 -88.903
-14.391 -14.389 -14.383 -14.382 -14.355 -14.351 -14.343 -14.338
-14.328 -14.328 -10.267 -10.265 -10.263 -10.259 -10.259 -10.258
-10.258 -10.257 -10.245 -10.241 -10.239 -10.239 -10.239 -10.237
-10.236 -10.234 -10.233 -10.230 -10.229 -10.229 -10.228 -10.227
-10.227 -10.226 -10.226 -10.224 -10.223 -10.221 -10.218 -10.212
-10.212 -10.211 -10.210 -10.209 -10.201 -10.199 -10.190 -10.189
-10.188 -10.186 -10.185 -10.184 -10.184 -10.183 -10.182 -10.177
-10.175 -10.173 -10.170 -10.168  -8.046  -8.044  -7.995  -7.982
 -7.979  -7.979  -7.976  -7.961  -6.011  -6.009  -6.005  -6.004
 -6.003  -6.002  -5.959  -5.955  -5.952  -5.946  -5.943  -5.943
 -5.942  -5.941  -5.940  -5.939  -5.938  -5.937  -5.936  -5.935
 -5.933  -5.926  -5.922  -5.917  -1.041  -1.028  -0.988  -0.957
 -0.956  -0.951  -0.944  -0.930  -0.914  -0.914  -0.905  -0.900
 -0.844  -0.839  -0.836  -0.821  -0.817  -0.813  -0.810  -0.810
 -0.802  -0.801  -0.798  -0.790  -0.784  -0.780  -0.770  -0.762
 -0.752  -0.745  -0.740  -0.737  -0.724  -0.716  -0.716  -0.708
 -0.696  -0.690  -0.676  -0.675  -0.652  -0.650  -0.643  -0.639
 -0.635  -0.631  -0.630  -0.620  -0.619  -0.610  -0.604  -0.600
 -0.593  -0.589  -0.588  -0.581  -0.577  -0.576  -0.571  -0.556
 -0.550  -0.548  -0.545  -0.535  -0.528  -0.524  -0.517  -0.509
 -0.509  -0.504  -0.500  -0.493  -0.493  -0.483  -0.481  -0.479
 -0.471  -0.470  -0.466  -0.464  -0.462  -0.458  -0.455  -0.453
 -0.452  -0.448  -0.442  -0.438  -0.437  -0.432  -0.432  -0.429
 -0.427  -0.426  -0.425  -0.419  -0.417  -0.416  -0.414  -0.414
 -0.412  -0.412  -0.403  -0.402  -0.401  -0.399  -0.397  -0.396
 -0.394  -0.392  -0.392  -0.390  -0.389  -0.385  -0.385  -0.384
 -0.382  -0.380  -0.367  -0.365  -0.362  -0.361  -0.361  -0.357
 -0.353  -0.351  -0.351  -0.348  -0.347  -0.345  -0.342  -0.340
 -0.336  -0.336  -0.330  -0.329  -0.326  -0.325  -0.324  -0.322
 -0.314  -0.314  -0.310  -0.307  -0.306  -0.305  -0.302  -0.299
 -0.297  -0.296  -0.295  -0.289  -0.284  -0.283  -0.280  -0.278
 -0.274  -0.271  -0.265  -0.263  -0.257  -0.252  -0.250  -0.250
 -0.244  -0.241  -0.241  -0.224  -0.202  -0.189

          Ground-State Mulliken Net Atomic Charges

     Atom                 Charge (a.u.)
  ----------------------------------------
      1 C                     0.260766
      2 C                    -0.106482
      3 N                    -0.454946
      4 C                    -0.053917
      5 C                     0.094536
      6 C                    -0.000999
      7 C                    -0.066869
      8 C                     0.076279
      9 C                     0.251023
     10 N                    -0.531468
     11 N                    -0.522171
     12 C                     0.183891
     13 C                     0.329905
     14 S                     0.608412
     15 N                    -0.543877
     16 C                    -0.258321
     17 S                     0.336717
     18 C                    -0.088429
     19 C                    -0.191405
     20 S                     0.284360
     21 C                     0.096504
     22 C                     0.037726
     23 C                    -0.302484
     24 C                    -0.067593
     25 N                    -0.409363
     26 S                     0.292017
     27 C                     0.140860
     28 C                    -0.317947
     29 C                    -0.234649
     30 H                     0.094162
     31 H                     0.105207
     32 H                     0.104701
     33 H                     0.120636
     34 H                     0.120893
     35 H                     0.128790
     36 H                     0.123874
     37 H                     0.140884
     38 H                     0.099072
     39 C                    -0.184306
     40 H                     0.118148
     41 H                     0.106092
     42 H                     0.095105
     43 C                    -0.175606
     44 H                     0.096934
     45 C                    -0.179795
     46 H                     0.085333
     47 H                     0.084440
     48 H                     0.094797
     49 C                    -0.162565
     50 H                     0.093513
     51 C                    -0.332681
     52 H                     0.099617
     53 H                     0.109460
     54 H                     0.088657
     55 H                     0.104771
     56 C                     0.276819
     57 C                    -0.121242
     58 N                    -0.498567
     59 C                    -0.072807
     60 C                     0.043215
     61 C                     0.059573
     62 C                     0.025803
     63 C                     0.086213
     64 C                     0.204529
     65 N                    -0.509542
     66 N                    -0.556316
     67 C                     0.205349
     68 C                     0.275247
     69 S                     0.604613
     70 N                    -0.544854
     71 C                    -0.214920
     72 S                     0.311567
     73 C                    -0.157678
     74 C                    -0.255227
     75 S                     0.270607
     76 C                     0.239382
     77 C                     0.062316
     78 C                    -0.306178
     79 C                    -0.066797
     80 N                    -0.456053
     81 S                     0.278530
     82 C                     0.120963
     83 C                    -0.310581
     84 C                    -0.226477
     85 H                     0.085422
     86 H                     0.122418
     87 H                     0.098925
     88 H                     0.113135
     89 H                     0.125819
     90 H                     0.126692
     91 H                     0.119890
     92 H                     0.153921
     93 H                     0.120196
     94 C                    -0.193045
     95 H                     0.119125
     96 H                     0.100786
     97 H                     0.101417
     98 C                    -0.188638
     99 H                     0.093847
    100 C                    -0.168445
    101 H                     0.094764
    102 H                     0.094333
    103 H                     0.096588
    104 C                    -0.182764
    105 H                     0.093363
    106 C                    -0.320673
    107 H                     0.095767
    108 H                     0.097112
    109 H                     0.104587
    110 H                     0.105759
  ----------------------------------------
  Sum of atomic charges =     0.000000

                    Cartesian Multipole Moments
 -----------------------------------------------------------------
    Charge (ESU x 10^10)
                 0.0000
    Dipole Moment (Debye)
         X      -0.6211      Y       0.6664      Z       1.9829
       Tot       2.1821
    Quadrupole Moments (Debye-Ang)
        XX    -448.4616     XY      17.6224     YY    -426.0998
        XZ      45.6863     YZ      -4.1666     ZZ    -438.2791

 Total job time:  99.88s(wall), 1057.37s(cpu)
        *  Thank you very much for using Q-Chem.  Have a nice day.  *
