 Q-Chem 4.4, Q-Chem, Inc., Pleasanton, CA (2016)
 Q-Chem 4.4.2 for Intel X86 Linux

User input:
--------------------------------------------------------------
$comment
SP
$end

$rem
MEM_STATIC 5000
MEM_TOTAL 20000
JOBTYPE SP
EXCHANGE B3LYP
BASIS 6-31g(d,p)
$end

$molecule
0 1
C          21.539000     11.757000      3.698000
C          20.646000     12.050000      4.710000
N          22.817000     11.580000      3.900000
C          21.153000     12.061000      6.010000
C          23.362000     11.577000      5.105000
C          22.558000     11.795000      6.237000
C          23.125000     11.904000      7.619000
C          22.321000     12.506000      8.640000
C          24.349000     11.319000      7.977000
N          22.700000     12.545000      9.908000
N          25.114000     10.564000      7.200000
C          24.766000     11.432000      9.300000
C          23.953000     12.098000     10.218000
S          26.396000     10.214000      8.158000
N          25.925000     10.766000      9.586000
C          24.308000     12.084000     11.636000
S          25.961000     12.049000     12.237000
C          23.501000     12.531000     12.632000
C          25.496000     12.769000     13.763000
S          21.784000     12.836000     12.663000
C          24.132000     12.980000     13.834000
C          26.463000     12.930000     14.781000
C          21.899000     13.402000     14.346000
C          23.204000     13.379000     14.853000
N          27.570000     12.256000     14.580000
S          26.170000     13.507000     16.390000
C          28.428000     12.370000     15.701000
C          27.822000     13.012000     16.758000
C          21.120000     11.819000      2.284000
H          19.575000     12.127000      4.546000
H          20.517000     12.313000      6.853000
H          24.441000     11.460000      5.186000
H          21.467000     13.128000      8.374000
H          21.104000     13.935000     14.851000
H          23.517000     13.743000     15.825000
H          29.401000     11.899000     15.674000
H          28.120000     12.915000     17.794000
H          21.842000     11.277000      1.661000
C          21.103000     13.274000      1.690000
H          20.147000     11.341000      2.113000
H          21.041000     13.191000      0.597000
H          22.055000     13.803000      1.819000
C          19.912000     14.160000      2.137000
H          19.900000     14.202000      3.233000
C          18.505000     13.635000      1.698000
H          20.113000     15.149000      1.706000
H          17.999000     12.787000      2.176000
H          18.561000     13.307000      0.652000
C          17.554000     14.849000      1.735000
H          17.330000     15.260000      2.727000
C          16.292000     14.576000      0.997000
H          18.060000     15.706000      1.275000
H          15.801000     13.666000      1.362000
H          16.546000     14.370000     -0.050000
H          15.609000     15.434000      1.028000
C           7.158000     21.813000     12.981000
C           6.933000     20.577000     12.396000
N           8.396000     22.297000     13.118000
C           7.965000     19.771000     11.879000
C           9.389000     21.613000     12.421000
C           9.280000     20.336000     11.842000
C          10.446000     19.717000     11.104000
C          11.774000     20.298000     11.197000
C          10.301000     18.691000     10.101000
N          12.837000     19.849000     10.577000
N           9.106000     18.312000      9.616000
C          11.435000     18.276000      9.334000
C          12.711000     18.725000      9.737000
S           9.473000     17.251000      8.365000
N          11.091000     17.311000      8.418000
C          13.909000     18.102000      9.130000
S          13.990000     16.740000      8.021000
C          15.202000     18.581000      9.204000
C          15.752000     16.733000      8.025000
S          15.676000     20.072000     10.139000
C          16.231000     17.853000      8.620000
C          16.486000     15.771000      7.291000
C          17.345000     19.600000      9.600000
C          17.446000     18.425000      8.900000
N          17.816000     15.771000      7.370000
S          15.840000     14.515000      6.295000
C          18.375000     14.691000      6.660000
C          17.424000     13.932000      5.951000
C           6.017000     22.703000     13.408000
H           5.891000     20.287000     12.297000
H           7.704000     18.789000     11.496000
H          10.312000     22.184000     12.325000
H          11.907000     21.228000     11.748000
H          18.060000     20.306000     10.002000
H          18.385000     18.024000      8.535000
H          19.446000     14.536000      6.630000
H          17.473000     13.115000      5.242000
H           6.292000     23.024000     14.420000
C           4.570000     22.106000     13.467000
H           6.019000     23.593000     12.767000
H           4.679000     21.267000     14.165000
H           4.302000     21.830000     12.440000
C           3.477000     23.092000     14.042000
H           3.822000     23.583000     14.961000
C           2.123000     22.352000     14.357000
H           3.404000     23.904000     13.307000
H           2.246000     21.395000     14.880000
H           1.628000     22.194000     13.391000
C           1.091000     23.230000     15.151000
H           1.593000     23.707000     16.001000
C          -0.002000     22.281000     15.715000
H           0.711000     24.047000     14.525000
H          -0.688000     22.768000     16.419000
H           0.495000     21.531000     16.342000
H          -0.640000     21.857000     14.930000
$end

--------------------------------------------------------------

             Standard Nuclear Orientation (Angstroms)
    I     Atom           X                Y                Z
 ----------------------------------------------------------------
    1      C      -6.2346887365    -5.5486328467    -0.5566818773
    2      C      -5.1969730119    -4.6924231251    -0.8689205483
    3      N      -7.4257446324    -5.1355327172    -0.2158723471
    4      C      -5.4957584122    -3.3297053275    -0.8988786638
    5      C      -7.7752260705    -3.8600489652    -0.2238047264
    6      C      -6.8364458415    -2.8796995817    -0.5884562971
    7      C      -7.1355930229    -1.4136075694    -0.5222809593
    8      C      -6.0381826012    -0.4933119311    -0.5249836253
    9      C      -8.4429471146    -0.9096864438    -0.5961306583
   10      N      -6.2144245216     0.8178507443    -0.5776830004
   11      N      -9.5464053627    -1.6186674511    -0.7928660793
   12      C      -8.6137538939     0.4714297807    -0.5779642433
   13      C      -7.4914388947     1.2976987570    -0.5076960326
   14      S     -10.7328877500    -0.4898322432    -0.7506924150
   15      N      -9.9076018302     0.8829177622    -0.7369238572
   16      C      -7.6530781351     2.7439069861    -0.6466187234
   17      S      -9.0688869639     3.6335556922    -0.0999510546
   18      C      -6.6249035686     3.6198642223    -0.7831104116
   19      C      -8.1630055776     5.1239651444     0.0461981111
   20      S      -4.9606728935     3.3679337866    -1.2402124962
   21      C      -6.8496456361     4.9650959463    -0.3536821733
   22      C      -8.8352380072     6.3165121118     0.3972953786
   23      C      -4.6208030773     5.1002472542    -1.0173929326
   24      C      -5.7328157085     5.8348760447    -0.5880312573
   25      N     -10.1413755404     6.2427531975     0.3040732415
   26      S      -8.1364792553     7.9019743621     0.4728245764
   27      C     -10.7261446366     7.5094408392     0.5476887630
   28      C      -9.7826842625     8.5067683934     0.6566349519
   29      C      -5.9943696191    -6.9968707566    -0.4028811030
   30      H      -4.2300305183    -5.0424023207    -1.2187816304
   31      H      -4.7236002853    -2.5953596064    -1.1066217478
   32      H      -8.7764577940    -3.5944652262     0.1100984235
   33      H      -5.0325488307    -0.8339187102    -0.2807629429
   34      H      -3.6203103295     5.5107768208    -0.9771594069
   35      H      -5.7389674539     6.8860118577    -0.3228432889
   36      H     -11.8031909998     7.6056617350     0.5442725275
   37      H      -9.9737619102     9.5597151317     0.4944575835
   38      H      -6.9473481426    -7.5371293543    -0.4588237651
   39      C      -5.3977631730    -7.3965681387     0.9951363329
   40      H      -5.3626029657    -7.4049162138    -1.2021456402
   41      H      -5.5029178038    -8.4835755342     1.1080053975
   42      H      -5.9928854531    -7.0269771953     1.8389479270
   43      C      -3.8948092227    -7.0722149300     1.1931525424
   44      H      -3.7418730473    -6.0012271605     1.0122666008
   45      C      -2.9287850507    -7.8282662721     0.2219786819
   46      H      -3.6811143376    -7.3307884192     2.2380244230
   47      H      -2.8034806338    -7.5631357927    -0.8352008828
   48      H      -3.2426257170    -8.8781534079     0.1581269924
   49      C      -1.5390026864    -7.8175564187     0.8912740420
   50      H      -1.0450634988    -6.8412342976     0.9686057617
   51      C      -0.6231426655    -8.8063361184     0.2625196165
   52      H      -1.6582666348    -8.0640198211     1.9529316619
   53      H      -0.5515311685    -8.6562838226    -0.8213448132
   54      H      -1.0585582832    -9.8049720639     0.3901929820
   55      H       0.3692980496    -8.7960701212     0.7300343608
   56      C      12.0648991734     2.0735944382     0.5096761991
   57      C      11.6478913534     1.3067350535    -0.5666960238
   58      N      11.1966373495     2.4987033542     1.4322122768
   59      C      10.3139025069     0.8945294304    -0.7469993284
   60      C       9.9313639977     1.9191096190     1.3786543890
   61      C       9.3937443106     1.1746029139     0.3135131598
   62      C       7.9991838281     0.5954783239     0.3982289779
   63      C       7.0892677453     1.0066564000     1.4531125317
   64      C       7.5576011596    -0.5374544690    -0.3771277359
   65      N       5.8752475284     0.5445936687     1.6222957028
   66      N       8.3952408307    -1.2804848285    -1.1208727638
   67      C       6.2791095339    -1.1252508095    -0.1193979842
   68      C       5.3914905525    -0.4382409566     0.7363683425
   69      S       7.4554128078    -2.5639328286    -1.6639155968
   70      N       6.0512461744    -2.2028952330    -0.9412117015
   71      C       3.9814980045    -0.8842471987     0.8055163468
   72      S       3.1775122375    -2.1203964409    -0.1520994099
   73      C       3.0550618996    -0.5108916067     1.7589772770
   74      C       1.6100795679    -1.7886324689     0.5812466838
   75      S       3.4040510584     0.6754179021     3.0979538700
   76      C       1.7509474499    -0.9791714084     1.6595764254
   77      C       0.4467415828    -2.4874298297     0.1796461598
   78      C       1.6507467030     0.4024656256     3.4856224041
   79      C       0.9584530479    -0.4079870420     2.6226496533
   80      N      -0.7254735111    -2.1623072959     0.7231055526
   81      S       0.3483585581    -3.7358292626    -1.0114405861
   82      C      -1.7832862334    -2.8851518597     0.1387178547
   83      C      -1.3569480743    -3.8485342203    -0.7957837244
   84      C      13.5229780607     2.3882890450     0.7361342812
   85      H      12.4328406352     0.9795266340    -1.2423100225
   86      H      10.0648425907     0.3496070789    -1.6526277229
   87      H       9.3553483855     2.0693069840     2.2912511050
   88      H       7.4477636714     1.6848854671     2.2262076122
   89      H       1.3757590501     1.0160296630     4.3336707298
   90      H      -0.0953064496    -0.6386943225     2.7327045130
   91      H      -2.8068634890    -2.7339819794     0.4571566544
   92      H      -1.8445209867    -4.6326088178    -1.3615316194
   93      H      13.5359175780     3.4659248976     0.9394653860
   94      C      14.5485785567     2.1010161459    -0.4124809302
   95      H      13.8455991137     1.8755564536     1.6504678888
   96      H      14.1565388364     2.6963896181    -1.2460523347
   97      H      14.5477874920     1.0157075340    -0.5700677035
   98      C      16.0235017122     2.5809072820    -0.1095350886
   99      H      16.0395592483     3.6022795374     0.2919719118
  100      C      16.9316400354     2.5425226026    -1.3955958968
  101      H      16.3673663654     1.9528143899     0.7224230949
  102      H      16.4548472050     2.9552016458    -2.2938562177
  103      H      17.1919070113     1.4890842291    -1.5558260269
  104      C      18.3289467497     3.2336627786    -1.2053245030
  105      H      18.1915601482     4.2153382196    -0.7368469153
  106      C      18.9402240680     3.4604214123    -2.6153835663
  107      H      18.9599630381     2.6551299305    -0.5191152146
  108      H      19.8458513212     4.0794344214    -2.6088129600
  109      H      18.2352784355     4.0701514878    -3.1932407201
  110      H      19.2293363920     2.5233490166    -3.1066618880
 ----------------------------------------------------------------

   12   -5663.5146966286      6.12E-06 Convergence criterion met
 Total energy in the final basis set = -5663.5146966286

                    Orbital Energies (a.u.)
 --------------------------------------------------------------

 Alpha MOs
 -- Occupied --
-88.992 -88.991 -88.930 -88.928 -88.924 -88.916 -88.910 -88.907
-14.393 -14.393 -14.385 -14.384 -14.359 -14.350 -14.347 -14.343
-14.330 -14.319 -10.271 -10.269 -10.264 -10.261 -10.261 -10.259
-10.253 -10.252 -10.245 -10.244 -10.243 -10.241 -10.241 -10.239
-10.235 -10.234 -10.234 -10.232 -10.231 -10.230 -10.230 -10.230
-10.226 -10.225 -10.225 -10.222 -10.222 -10.221 -10.221 -10.216
-10.215 -10.211 -10.210 -10.208 -10.206 -10.200 -10.194 -10.191
-10.190 -10.187 -10.185 -10.184 -10.184 -10.183 -10.183 -10.183
-10.180 -10.175 -10.174 -10.169  -8.047  -8.047  -7.991  -7.990
 -7.983  -7.975  -7.970  -7.965  -6.013  -6.012  -6.007  -6.006
 -6.005  -6.005  -5.955  -5.954  -5.952  -5.950  -5.948  -5.948
 -5.947  -5.944  -5.940  -5.939  -5.935  -5.934  -5.931  -5.930
 -5.929  -5.926  -5.926  -5.921  -1.050  -1.032  -0.969  -0.967
 -0.961  -0.955  -0.951  -0.932  -0.919  -0.918  -0.908  -0.903
 -0.843  -0.842  -0.831  -0.825  -0.815  -0.815  -0.811  -0.809
 -0.805  -0.800  -0.798  -0.794  -0.792  -0.781  -0.768  -0.766
 -0.751  -0.750  -0.741  -0.740  -0.721  -0.721  -0.712  -0.710
 -0.694  -0.694  -0.680  -0.678  -0.660  -0.652  -0.652  -0.646
 -0.638  -0.635  -0.626  -0.623  -0.614  -0.608  -0.600  -0.599
 -0.595  -0.595  -0.586  -0.586  -0.580  -0.577  -0.573  -0.569
 -0.553  -0.545  -0.540  -0.540  -0.525  -0.521  -0.519  -0.518
 -0.510  -0.503  -0.500  -0.499  -0.485  -0.483  -0.481  -0.479
 -0.476  -0.471  -0.471  -0.469  -0.467  -0.460  -0.456  -0.452
 -0.452  -0.444  -0.442  -0.439  -0.438  -0.436  -0.435  -0.435
 -0.430  -0.429  -0.428  -0.423  -0.421  -0.417  -0.415  -0.415
 -0.412  -0.410  -0.406  -0.403  -0.402  -0.399  -0.399  -0.397
 -0.396  -0.394  -0.394  -0.392  -0.390  -0.388  -0.385  -0.383
 -0.383  -0.378  -0.378  -0.369  -0.366  -0.364  -0.363  -0.359
 -0.356  -0.354  -0.352  -0.351  -0.345  -0.345  -0.344  -0.342
 -0.337  -0.337  -0.335  -0.334  -0.333  -0.331  -0.325  -0.321
 -0.318  -0.315  -0.313  -0.313  -0.309  -0.307  -0.306  -0.303
 -0.300  -0.299  -0.292  -0.292  -0.287  -0.284  -0.283  -0.279
 -0.277  -0.275  -0.273  -0.266  -0.258  -0.254  -0.252  -0.246
 -0.243  -0.241  -0.230  -0.228  -0.195  -0.192

          Ground-State Mulliken Net Atomic Charges

     Atom                 Charge (a.u.)
  ----------------------------------------
      1 C                     0.294740
      2 C                    -0.112622
      3 N                    -0.484152
      4 C                    -0.096844
      5 C                     0.088743
      6 C                     0.023979
      7 C                     0.027546
      8 C                     0.064091
      9 C                     0.256167
     10 N                    -0.520701
     11 N                    -0.566164
     12 C                     0.199811
     13 C                     0.285518
     14 S                     0.611408
     15 N                    -0.531589
     16 C                    -0.230462
     17 S                     0.366033
     18 C                    -0.128816
     19 C                    -0.263108
     20 S                     0.296120
     21 C                     0.153896
     22 C                     0.088246
     23 C                    -0.309572
     24 C                    -0.077284
     25 N                    -0.438690
     26 S                     0.273956
     27 C                     0.117165
     28 C                    -0.314215
     29 C                    -0.231179
     30 H                     0.088465
     31 H                     0.095328
     32 H                     0.126986
     33 H                     0.116675
     34 H                     0.132472
     35 H                     0.112737
     36 H                     0.123530
     37 H                     0.133685
     38 H                     0.114665
     39 C                    -0.188608
     40 H                     0.094048
     41 H                     0.091416
     42 H                     0.102761
     43 C                    -0.175875
     44 H                     0.095981
     45 C                    -0.174976
     46 H                     0.098003
     47 H                     0.084726
     48 H                     0.093055
     49 C                    -0.178953
     50 H                     0.097759
     51 C                    -0.313989
     52 H                     0.092896
     53 H                     0.094038
     54 H                     0.100533
     55 H                     0.099058
     56 C                     0.277468
     57 C                    -0.120959
     58 N                    -0.497538
     59 C                    -0.072258
     60 C                     0.043938
     61 C                     0.059064
     62 C                     0.028149
     63 C                     0.086631
     64 C                     0.205423
     65 N                    -0.508837
     66 N                    -0.556280
     67 C                     0.205542
     68 C                     0.275994
     69 S                     0.611784
     70 N                    -0.542697
     71 C                    -0.213131
     72 S                     0.318680
     73 C                    -0.157760
     74 C                    -0.257215
     75 S                     0.274050
     76 C                     0.240661
     77 C                     0.067213
     78 C                    -0.304728
     79 C                    -0.067264
     80 N                    -0.452520
     81 S                     0.282018
     82 C                     0.110244
     83 C                    -0.318130
     84 C                    -0.226652
     85 H                     0.086660
     86 H                     0.123695
     87 H                     0.099456
     88 H                     0.114397
     89 H                     0.128397
     90 H                     0.127100
     91 H                     0.118908
     92 H                     0.145645
     93 H                     0.120806
     94 C                    -0.193220
     95 H                     0.119608
     96 H                     0.101100
     97 H                     0.101533
     98 C                    -0.188744
     99 H                     0.093996
    100 C                    -0.168006
    101 H                     0.094824
    102 H                     0.094422
    103 H                     0.096632
    104 C                    -0.182900
    105 H                     0.093393
    106 C                    -0.320465
    107 H                     0.095772
    108 H                     0.097244
    109 H                     0.104606
    110 H                     0.105813
  ----------------------------------------
  Sum of atomic charges =     0.000000

                    Cartesian Multipole Moments
 -----------------------------------------------------------------
    Charge (ESU x 10^10)
                 0.0000
    Dipole Moment (Debye)
         X       1.3906      Y       0.5230      Z      -1.4618
       Tot       2.0843
    Quadrupole Moments (Debye-Ang)
        XX    -418.9809     XY     -32.9254     YY    -409.8765
        XZ     -22.9344     YZ       5.1729     ZZ    -447.8983

 Total job time:  115.05s(wall), 1238.16s(cpu)
        *  Thank you very much for using Q-Chem.  Have a nice day.  *
