 Q-Chem 4.4, Q-Chem, Inc., Pleasanton, CA (2016)
 Q-Chem 4.4.2 for Intel X86 Linux

User input:
--------------------------------------------------------------
$comment
SP
$end

$rem
MEM_STATIC 5000
MEM_TOTAL 20000
JOBTYPE SP
EXCHANGE B3LYP
BASIS 6-31g(d,p)
$end

$molecule
0 1
C           2.241000     18.856000     10.678000
C           3.570000     19.191000     10.754000
N           1.723000     18.268000      9.609000
C           4.441000     19.018000      9.700000
C           2.505000     17.939000      8.607000
C           3.864000     18.345000      8.551000
C           4.750000     17.919000      7.451000
C           6.040000     17.460000      7.664000
C           4.439000     18.010000      6.089000
N           6.887000     16.921000      6.703000
N           3.253000     18.485000      5.672000
C           5.322000     17.608000      5.082000
C           6.562000     17.011000      5.440000
S           3.266000     18.360000      4.063000
N           4.750000     17.717000      3.848000
C           7.647000     16.519000      4.571000
S           9.015000     15.631000      5.263000
C           8.063000     16.959000      3.348000
C           9.886000     15.554000      3.688000
S           7.378000     18.203000      2.383000
C           9.327000     16.449000      2.860000
C          11.151000     15.000000      3.552000
C           8.644000     17.926000      1.206000
C           9.539000     16.923000      1.579000
N          11.801000     15.030000      2.432000
S          11.976000     14.379000      5.006000
C          13.047000     14.472000      2.591000
C          13.272000     13.979000      3.863000
C           1.254000     19.160000     11.854000
H           3.910000     19.669000     11.668000
H           5.500000     19.220000      9.829000
H           2.083000     17.512000      7.698000
H           6.369000     17.350000      8.697000
H           8.520000     18.305000      0.200000
H          10.426000     16.656000      1.016000
H          13.751000     14.457000      1.769000
H          14.127000     13.456000      4.271000
H           1.659000     19.968000     12.477000
C           0.857000     17.983000     12.724000
H           0.352000     19.361000     11.262000
H           1.715000     17.685000     13.340000
H           0.718000     17.184000     11.986000
C          -0.316000     18.265000     13.653000
H          -0.247000     19.199000     14.225000
C          -0.708000     17.063000     14.593000
H          -1.151000     18.505000     12.984000
H          -0.564000     16.094000     14.099000
H          -1.747000     17.059000     14.945000
C           0.115000     17.079000     15.901000
H           1.175000     17.251000     15.676000
C          -0.029000     15.768000     16.792000
H          -0.248000     17.939000     16.477000
H          -1.009000     15.801000     17.285000
H           0.642000     15.822000     17.657000
H           0.118000     14.822000     16.256000
C           7.158000     21.813000     12.981000
C           6.933000     20.577000     12.396000
N           8.396000     22.297000     13.118000
C           7.965000     19.771000     11.879000
C           9.389000     21.613000     12.421000
C           9.280000     20.336000     11.842000
C          10.446000     19.717000     11.104000
C          11.774000     20.298000     11.197000
C          10.301000     18.691000     10.101000
N          12.837000     19.849000     10.577000
N           9.106000     18.312000      9.616000
C          11.435000     18.276000      9.334000
C          12.711000     18.725000      9.737000
S           9.473000     17.251000      8.365000
N          11.091000     17.311000      8.418000
C          13.909000     18.102000      9.130000
S          13.990000     16.740000      8.021000
C          15.202000     18.581000      9.204000
C          15.752000     16.733000      8.025000
S          15.676000     20.072000     10.139000
C          16.231000     17.853000      8.620000
C          16.486000     15.771000      7.291000
C          17.345000     19.600000      9.600000
C          17.446000     18.425000      8.900000
N          17.816000     15.771000      7.370000
S          15.840000     14.515000      6.295000
C          18.375000     14.691000      6.660000
C          17.424000     13.932000      5.951000
C           6.017000     22.703000     13.408000
H           5.891000     20.287000     12.297000
H           7.704000     18.789000     11.496000
H          10.312000     22.184000     12.325000
H          11.907000     21.228000     11.748000
H          18.060000     20.306000     10.002000
H          18.385000     18.024000      8.535000
H          19.446000     14.536000      6.630000
H          17.473000     13.115000      5.242000
H           6.292000     23.024000     14.420000
C           4.570000     22.106000     13.467000
H           6.019000     23.593000     12.767000
H           4.679000     21.267000     14.165000
H           4.302000     21.830000     12.440000
C           3.477000     23.092000     14.042000
H           3.822000     23.583000     14.961000
C           2.123000     22.352000     14.357000
H           3.404000     23.904000     13.307000
H           2.246000     21.395000     14.880000
H           1.628000     22.194000     13.391000
C           1.091000     23.230000     15.151000
H           1.593000     23.707000     16.001000
C          -0.002000     22.281000     15.715000
H           0.711000     24.047000     14.525000
H          -0.688000     22.768000     16.419000
H           0.495000     21.531000     16.342000
H          -0.640000     21.857000     14.930000
$end

--------------------------------------------------------------

             Standard Nuclear Orientation (Angstroms)
    I     Atom           X                Y                Z
 ----------------------------------------------------------------
    1      C       6.5259330068    -1.3229907257    -0.3708284407
    2      C       5.5065492809    -0.4682104504    -0.0325245825
    3      N       6.3332311776    -2.6263357185    -0.5156967766
    4      C       4.2341775817    -0.9090860750     0.2610481390
    5      C       5.1235569023    -3.1209351362    -0.3898851563
    6      C       4.0345201749    -2.3333206165     0.0667496811
    7      C       2.6675279943    -2.8823529095     0.1465489254
    8      C       1.5547719060    -2.1878507673    -0.3002067823
    9      C       2.3251139587    -4.0984383856     0.7498189671
   10      N       0.2583022905    -2.6819896169    -0.3804833878
   11      N       3.2585850703    -4.8962454811     1.2959375643
   12      C       1.0094251702    -4.5675276023     0.8150900834
   13      C      -0.0266252802    -3.8269053148     0.1824360773
   14      S       2.4736505217    -6.2085002120     1.8122129516
   15      N       0.9533395848    -5.8115204736     1.3729046970
   16      C      -1.4725138965    -4.1096922256     0.1200848772
   17      S      -2.5330641795    -3.1282880424    -0.9050545897
   18      C      -2.2878497081    -4.7287143450     1.0225393802
   19      C      -4.0233465540    -3.9534570961    -0.3190942866
   20      S      -1.8514674069    -5.4613831556     2.5127584585
   21      C      -3.7147194773    -4.6212648827     0.8024546815
   22      C      -5.2988524952    -3.5793089652    -0.7175096101
   23      C      -3.5428447774    -5.8278494577     2.7768778253
   24      C      -4.3745612285    -5.3815580096     1.7496316579
   25      N      -6.3644710310    -4.1236323904    -0.2215568451
   26      S      -5.4795863707    -2.1896919998    -1.8205426810
   27      C      -7.4883188332    -3.5259507633    -0.7401161860
   28      C      -7.2102927836    -2.5521320533    -1.6814113766
   29      C       7.9851010810    -0.8041529536    -0.5970957551
   30      H       5.7532379119     0.5850320748     0.0639373389
   31      H       3.4379943447    -0.1938935152     0.4441269622
   32      H       4.9613958887    -4.1967336347    -0.4451607941
   33      H       1.7251575552    -1.2300743607    -0.7911885391
   34      H      -3.8114001543    -6.5734641886     3.5137561618
   35      H      -5.4560748300    -5.4530767076     1.7651366767
   36      H      -8.4730308047    -3.8193529694    -0.3998479409
   37      H      -7.8768063648    -1.9482055590    -2.2831176469
   38      H       8.1207215996     0.1548376129    -0.0804119366
   39      C       8.4446336048    -0.6871958179    -2.0375779271
   40      H       8.5296126342    -1.6797965310    -0.2212972800
   41      H       7.9255722732     0.1542954512    -2.5139095114
   42      H       8.0308875968    -1.5968776998    -2.4888639945
   43      C       9.9431419040    -0.4681868128    -2.1956979217
   44      H      10.3722101812     0.3154946179    -1.5584814525
   45      C      10.4247872209    -0.3007994349    -3.6863579281
   46      H      10.4041814402    -1.3580959624    -1.7508493503
   47      H       9.8415484377    -0.9229478436    -4.3766454618
   48      H      11.4736684508    -0.5609350746    -3.8750868730
   49      C      10.3306983829     1.1714334729    -4.1469299157
   50      H       9.3628100783     1.5961653541    -3.8526442404
   51      C      10.5518630019     1.3942821871    -5.7073025193
   52      H      11.1127457984     1.7110380871    -3.5988663243
   53      H      11.6244162831     1.2885011489    -5.9146134717
   54      H      10.3918233900     2.4472398035    -5.9662418572
   55      H       9.9521482647     0.7474964628    -6.3598601495
   56      C       4.1002642046     3.9863303344     1.6667651750
   57      C       3.7261054522     3.0166861232     0.7500638433
   58      N       3.2224362433     4.8891647111     2.1139532324
   59      C       2.4130717537     2.8879120356     0.2588319825
   60      C       1.8886732879     4.6352551071     1.8035981264
   61      C       1.4084369009     3.7176860741     0.8521302697
   62      C      -0.0764334860     3.5412747266     0.6254146541
   63      C      -1.0282331631     4.4862106429     1.1830592443
   64      C      -0.6619029452     2.3465072937     0.0691177068
   65      N      -2.3299227915     4.4035535973     1.0616429193
   66      N       0.0434416057     1.2221070531    -0.1432597012
   67      C      -2.0840408284     2.1944132952     0.0397705272
   68      C      -2.8797036377     3.3175543298     0.3522779835
   69      S      -1.1022087094     0.0846448726    -0.6113154067
   70      N      -2.4447830404     0.9847685219    -0.5035908433
   71      C      -4.3322847742     3.2606817409     0.0720003524
   72      S      -5.2401288496     1.9934344827    -0.7412582297
   73      C      -5.2873959782     4.1403628522     0.5417766080
   74      C      -6.7443383519     2.9082539078    -0.6693680857
   75      S      -4.9029850864     5.5975110108     1.5669251388
   76      C      -6.6101795666     3.9812042739     0.1483390333
   77      C      -7.9406040368     2.4033997666    -1.2324193330
   78      C      -6.6901272012     5.8863599059     1.4201076418
   79      C      -7.3811949097     5.0134510883     0.6193070309
   80      N      -9.0396234130     3.1560194298    -1.2030756220
   81      S      -8.1501279587     0.8822299624    -2.0255209361
   82      C     -10.1036174722     2.5424857253    -1.8918963790
   83      C      -9.8011027870     1.2472846108    -2.3546078854
   84      C       5.4848519057     4.0133323623     2.2655120233
   85      H       4.5005854144     2.3065729678     0.4751364081
   86      H       2.2238290820     2.1399287063    -0.5052636597
   87      H       1.1928825942     5.2166779471     2.4077577012
   88      H      -0.6644742496     5.2851268087     1.8277315742
   89      H      -6.9457716252     6.7983542685     1.9437269796
   90      H      -8.4476279853     5.0843637540     0.4364439969
   91      H     -11.0689936409     3.0254685464    -1.9740087870
   92      H     -10.3662613560     0.4525271346    -2.8252748015
   93      H       5.7947757211     5.0615729369     2.1763552713
   94      C       6.6047012482     3.1225612545     1.6282026136
   95      H       5.3997638968     3.7836493511     3.3346194759
   96      H       6.6335769847     3.4711453019     0.5886539838
   97      H       6.2926345847     2.0801334340     1.7649053443
   98      C       8.0397084780     3.3222847485     2.2593402976
   99      H       8.2875509260     4.3861745943     2.3660151164
  100      C       9.1642953424     2.6385193623     1.3945222351
  101      H       7.9565278521     2.9544738854     3.2902108775
  102      H       9.0720680887     2.8181617227     0.3157591675
  103      H       9.1024817122     1.5638889362     1.6054571122
  104      C      10.6226303774     3.0101995920     1.8433615521
  105      H      10.7011747770     4.0962418135     1.9713305734
  106      C      11.5894865726     2.5943032148     0.7007481873
  107      H      10.8531570059     2.5714344609     2.8221912786
  108      H      12.6172273433     2.9512165074     0.8412572964
  109      H      11.2755622639     3.1155570164    -0.2116026239
  110      H      11.6697942588     1.5060498445     0.5898415712
 ----------------------------------------------------------------

   10   -5663.5100252600      6.11E-06 Convergence criterion met
 Total energy in the final basis set = -5663.5100252600

                    Orbital Energies (a.u.)
 --------------------------------------------------------------

 Alpha MOs
 -- Occupied --
-88.996 -88.985 -88.927 -88.921 -88.921 -88.919 -88.911 -88.904
-14.392 -14.386 -14.385 -14.379 -14.360 -14.355 -14.346 -14.342
-14.332 -14.331 -10.272 -10.268 -10.268 -10.265 -10.263 -10.259
-10.256 -10.255 -10.244 -10.243 -10.242 -10.241 -10.241 -10.238
-10.237 -10.234 -10.233 -10.232 -10.231 -10.231 -10.231 -10.230
-10.230 -10.229 -10.228 -10.227 -10.227 -10.223 -10.223 -10.222
-10.219 -10.213 -10.207 -10.203 -10.198 -10.197 -10.194 -10.194
-10.193 -10.191 -10.188 -10.188 -10.186 -10.186 -10.182 -10.181
-10.180 -10.180 -10.178 -10.176  -8.051  -8.039  -7.989  -7.982
 -7.980  -7.979  -7.973  -7.962  -6.016  -6.010  -6.009  -6.004
 -5.998  -5.997  -5.953  -5.949  -5.946  -5.946  -5.945  -5.943
 -5.943  -5.941  -5.940  -5.939  -5.937  -5.937  -5.935  -5.933
 -5.929  -5.927  -5.924  -5.919  -1.047  -1.025  -0.975  -0.972
 -0.965  -0.956  -0.951  -0.934  -0.919  -0.916  -0.909  -0.897
 -0.852  -0.843  -0.840  -0.823  -0.814  -0.812  -0.809  -0.808
 -0.808  -0.803  -0.801  -0.792  -0.788  -0.784  -0.772  -0.766
 -0.753  -0.750  -0.748  -0.740  -0.720  -0.719  -0.711  -0.710
 -0.697  -0.693  -0.680  -0.676  -0.663  -0.653  -0.651  -0.645
 -0.641  -0.633  -0.633  -0.622  -0.618  -0.609  -0.601  -0.598
 -0.595  -0.594  -0.589  -0.585  -0.584  -0.580  -0.576  -0.567
 -0.558  -0.551  -0.548  -0.536  -0.528  -0.519  -0.517  -0.516
 -0.514  -0.507  -0.503  -0.497  -0.493  -0.485  -0.483  -0.481
 -0.477  -0.471  -0.467  -0.464  -0.462  -0.461  -0.459  -0.456
 -0.454  -0.448  -0.443  -0.441  -0.437  -0.437  -0.436  -0.433
 -0.431  -0.427  -0.424  -0.423  -0.421  -0.420  -0.418  -0.418
 -0.414  -0.411  -0.407  -0.404  -0.404  -0.399  -0.398  -0.397
 -0.395  -0.394  -0.393  -0.391  -0.390  -0.387  -0.385  -0.385
 -0.379  -0.378  -0.376  -0.370  -0.368  -0.365  -0.364  -0.364
 -0.357  -0.353  -0.350  -0.349  -0.349  -0.345  -0.342  -0.340
 -0.339  -0.335  -0.334  -0.331  -0.330  -0.328  -0.328  -0.325
 -0.317  -0.316  -0.315  -0.311  -0.310  -0.309  -0.306  -0.304
 -0.301  -0.295  -0.294  -0.292  -0.288  -0.287  -0.286  -0.283
 -0.282  -0.275  -0.273  -0.268  -0.256  -0.255  -0.254  -0.253
 -0.244  -0.243  -0.237  -0.226  -0.196  -0.193

          Ground-State Mulliken Net Atomic Charges

     Atom                 Charge (a.u.)
  ----------------------------------------
      1 C                     0.267251
      2 C                    -0.114210
      3 N                    -0.476108
      4 C                    -0.078250
      5 C                     0.099640
      6 C                     0.001946
      7 C                     0.063844
      8 C                     0.036287
      9 C                     0.201119
     10 N                    -0.547568
     11 N                    -0.544331
     12 C                     0.221082
     13 C                     0.330963
     14 S                     0.615596
     15 N                    -0.555615
     16 C                    -0.210556
     17 S                     0.292372
     18 C                    -0.142783
     19 C                    -0.227855
     20 S                     0.284593
     21 C                     0.180367
     22 C                     0.085905
     23 C                    -0.303329
     24 C                    -0.072054
     25 N                    -0.454236
     26 S                     0.265477
     27 C                     0.126903
     28 C                    -0.301197
     29 C                    -0.226662
     30 H                     0.088154
     31 H                     0.119790
     32 H                     0.117125
     33 H                     0.113631
     34 H                     0.132445
     35 H                     0.127172
     36 H                     0.115714
     37 H                     0.122564
     38 H                     0.101174
     39 C                    -0.170739
     40 H                     0.118988
     41 H                     0.086853
     42 H                     0.113094
     43 C                    -0.185159
     44 H                     0.096526
     45 C                    -0.173751
     46 H                     0.091180
     47 H                     0.093196
     48 H                     0.090598
     49 C                    -0.177986
     50 H                     0.092390
     51 C                    -0.328413
     52 H                     0.093750
     53 H                     0.102936
     54 H                     0.101742
     55 H                     0.107049
     56 C                     0.279746
     57 C                    -0.116803
     58 N                    -0.499435
     59 C                    -0.077478
     60 C                     0.044950
     61 C                     0.058626
     62 C                     0.024656
     63 C                     0.086412
     64 C                     0.203763
     65 N                    -0.509657
     66 N                    -0.586036
     67 C                     0.199629
     68 C                     0.275748
     69 S                     0.670601
     70 N                    -0.552859
     71 C                    -0.214400
     72 S                     0.327975
     73 C                    -0.158420
     74 C                    -0.262272
     75 S                     0.272992
     76 C                     0.241436
     77 C                     0.058506
     78 C                    -0.304788
     79 C                    -0.067748
     80 N                    -0.451718
     81 S                     0.281293
     82 C                     0.115912
     83 C                    -0.320760
     84 C                    -0.228492
     85 H                     0.075876
     86 H                     0.121619
     87 H                     0.101244
     88 H                     0.112374
     89 H                     0.126971
     90 H                     0.125109
     91 H                     0.120161
     92 H                     0.141921
     93 H                     0.122446
     94 C                    -0.200351
     95 H                     0.121202
     96 H                     0.100467
     97 H                     0.103714
     98 C                    -0.188633
     99 H                     0.095561
    100 C                    -0.176840
    101 H                     0.097142
    102 H                     0.095495
    103 H                     0.106861
    104 C                    -0.184973
    105 H                     0.094545
    106 C                    -0.325246
    107 H                     0.097881
    108 H                     0.098719
    109 H                     0.106139
    110 H                     0.110604
  ----------------------------------------
  Sum of atomic charges =     0.000000

                    Cartesian Multipole Moments
 -----------------------------------------------------------------
    Charge (ESU x 10^10)
                 0.0000
    Dipole Moment (Debye)
         X      -0.8836      Y      -1.8697      Z      -0.0907
       Tot       2.0700
    Quadrupole Moments (Debye-Ang)
        XX    -392.1571     XY      10.4872     YY    -452.5680
        XZ      10.8020     YZ     -10.6309     ZZ    -444.0161

 Total job time:  100.63s(wall), 1125.32s(cpu)
        *  Thank you very much for using Q-Chem.  Have a nice day.  *
