 Q-Chem 4.4, Q-Chem, Inc., Pleasanton, CA (2016)
 Q-Chem 4.4.2 for Intel X86 Linux

User input:
--------------------------------------------------------------
$comment
SP
$end

$rem
MEM_STATIC 5000
MEM_TOTAL 20000
JOBTYPE SP
EXCHANGE B3LYP
BASIS 6-31g(d,p)
$end

$molecule
0 1
C          15.276000      8.453000     -3.146000
C          14.006000      9.084000     -3.257000
N          16.464000      9.031000     -3.022000
C          14.049000     10.520000     -3.144000
C          16.358000     10.352000     -2.907000
C          15.236000     11.203000     -2.972000
C          15.362000     12.634000     -2.726000
C          16.407000     13.421000     -3.280000
C          14.291000     13.429000     -2.104000
N          16.465000     14.752000     -3.160000
N          13.142000     12.986000     -1.626000
C          14.338000     14.829000     -2.091000
C          15.468000     15.440000     -2.605000
S          12.290000     14.187000     -0.995000
N          13.289000     15.365000     -1.568000
C          15.669000     16.923000     -2.728000
S          14.400000     18.157000     -2.410000
C          16.798000     17.584000     -3.233000
C          15.343000     19.488000     -2.946000
S          18.359000     17.064000     -3.656000
C          16.563000     18.978000     -3.320000
C          14.839000     20.760000     -3.300000
C          18.730000     18.745000     -4.166000
C          17.655000     19.595000     -4.013000
N          15.635000     21.737000     -3.690000
S          13.086000     21.198000     -3.222000
C          14.923000     22.903000     -3.925000
C          13.549000     22.797000     -3.698000
C          15.266000      7.019000     -3.254000
H          13.067000      8.616000     -3.536000
H          13.071000     10.993000     -3.162000
H          17.298000     10.865000     -2.707000
H          17.222000     12.900000     -3.780000
H          19.661000     18.966000     -4.672000
H          17.782000     20.651000     -4.222000
H          15.513000     23.737000     -4.284000
H          12.825000     23.601000     -3.677000
H          16.217000      6.514000     -3.040000
C          14.820000      6.619000     -4.671000
H          14.523000      6.634000     -2.545000
H          15.223000      7.221000     -5.496000
H          13.743000      6.781000     -4.800000
C          15.102000      5.108000     -5.031000
H          16.158000      4.812000     -5.010000
C          14.495000      4.661000     -6.349000
H          14.770000      4.463000     -4.209000
H          13.398000      4.673000     -6.351000
H          14.945000      3.671000     -6.490000
C          14.888000      5.402000     -7.600000
H          14.549000      6.446000     -7.612000
C          14.341000      4.771000     -8.915000
H          15.983000      5.443000     -7.648000
H          13.255000      4.919000     -8.963000
H          14.634000      3.726000     -9.074000
H          14.708000      5.373000     -9.755000
C           4.495000     12.857000     -0.653000
C           5.222000     14.008000     -0.309000
N           5.019000     11.941000     -1.495000
C           6.491000     14.271000     -0.995000
C           6.200000     12.184000     -2.095000
C           7.012000     13.310000     -1.932000
C           8.323000     13.531000     -2.697000
C           8.848000     14.819000     -2.801000
C           9.094000     12.486000     -3.208000
N           9.960000     15.063000     -3.554000
N           8.788000     11.153000     -3.231000
C          10.217000     12.756000     -3.960000
C          10.684000     14.048000     -4.121000
S           9.999000     10.402000     -3.967000
N          10.915000     11.706000     -4.363000
C          11.889000     14.579000     -4.880000
S          13.091000     13.586000     -5.614000
C          12.288000     15.940000     -4.985000
C          14.114000     14.970000     -6.018000
S          11.538000     17.424000     -4.383000
C          13.543000     16.130000     -5.619000
C          15.493000     14.914000     -6.567000
C          12.822000     18.279000     -5.131000
C          13.811000     17.523000     -5.697000
N          15.997000     13.697000     -6.735000
S          16.714000     16.161000     -6.727000
C          17.331000     13.729000     -7.090000
C          17.768000     15.011000     -7.289000
C           3.384000     12.358000      0.317000
H           4.824000     14.654000      0.467000
H           7.031000     15.185000     -0.769000
H           6.446000     11.416000     -2.828000
H           8.411000     15.723000     -2.382000
H          12.801000     19.358000     -5.056000
H          14.713000     17.941000     -6.128000
H          17.847000     12.805000     -7.317000
H          18.779000     15.303000     -7.539000
H           3.512000     11.332000      0.684000
C           2.016000     12.458000     -0.420000
H           3.290000     13.008000      1.195000
H           1.874000     11.821000     -1.302000
H           2.039000     13.501000     -0.759000
C           0.900000     12.262000      0.604000
H           0.823000     11.174000      0.719000
C          -0.408000     12.895000     -0.061000
H           1.004000     12.782000      1.564000
H          -0.689000     12.202000     -0.864000
H          -0.259000     13.913000     -0.441000
C          -1.637000     13.008000      0.941000
H          -1.859000     11.976000      1.240000
C          -2.912000     13.512000      0.239000
H          -1.284000     13.520000      1.845000
H          -3.413000     12.637000     -0.191000
H          -2.723000     14.321000     -0.478000
H          -3.599000     13.960000      0.967000
$end

--------------------------------------------------------------

             Standard Nuclear Orientation (Angstroms)
    I     Atom           X                Y                Z
 ----------------------------------------------------------------
    1      C       1.2993532929    -5.9712356345     1.9558571967
    2      C       0.3157013293    -5.1164945421     1.3855691294
    3      N       2.5205549020    -5.6489229655     2.3627787780
    4      C       0.7023113276    -3.7295021751     1.3264177725
    5      C       2.7382060622    -4.3395986280     2.2744625751
    6      C       1.9374168302    -3.2971134143     1.7652757870
    7      C       2.3645297453    -1.9067177549     1.8576200780
    8      C       3.6873251261    -1.4862818507     1.5547074982
    9      C       1.4145179300    -0.7944384387     2.0196764677
   10      N       4.0584633206    -0.2016167898     1.5198202240
   11      N       0.1055528315    -0.8782305073     2.1762755099
   12      C       1.8218700250     0.5376932880     1.8718003929
   13      C       3.1667949246     0.7792865325     1.6544833005
   14      S      -0.5371330995     0.5773026214     2.3629412680
   15      N       0.8505528323     1.3780516280     1.9793493193
   16      C       3.7748254682     2.1311905929     1.4147474678
   17      S       2.8366859663     3.6466186756     1.1747203833
   18      C       5.1295534407     2.4226039756     1.1993934315
   19      C       4.2027380514     4.6130317148     0.7899431250
   20      S       6.5537183110     1.5071976882     1.3402328835
   21      C       5.3001148495     3.7899784246     0.8719397370
   22      C       4.1623572066     5.8692025498     0.1436303365
   23      C       7.4738805550     2.9364062608     0.7621616936
   24      C       6.6587350737     4.0104706824     0.4732716411
   25      N       5.2605041873     6.5569722129    -0.1039400561
   26      S       2.6298430945     6.6799007136    -0.3712541003
   27      C       4.9678022436     7.7796299180    -0.6880279848
   28      C       3.6048724206     8.0175406458    -0.8789776720
   29      C       0.9425674192    -7.3624206688     2.0295324351
   30      H      -0.6045532220    -5.4173070435     0.8944180328
   31      H      -0.0764295148    -3.0704531000     0.9525808871
   32      H       3.6921035846    -4.0113865906     2.6857111316
   33      H       4.4393416434    -2.2575562318     1.3957326992
   34      H       8.5297351721     2.8490869110     0.5403862244
   35      H       7.1088718396     4.9528425693     0.1829991505
   36      H       5.8290753696     8.3808446061    -0.9512512764
   37      H       3.1383247307     8.9464274228    -1.1798690287
   38      H       1.6359752917    -8.0079708728     2.5842147372
   39      C       0.7988895968    -7.9265096996     0.6054659870
   40      H      -0.0355782412    -7.4327006568     2.5207012353
   41      H       1.5491438285    -7.5982727662    -0.1258459186
   42      H      -0.1239030485    -7.5655122786     0.1354142921
   43      C       0.7595869147    -9.5033347791     0.5397167058
   44      H       1.6563375293   -10.0091678625     0.9180871947
   45      C       0.4279711682   -10.0584791788    -0.8340473541
   46      H       0.0647354485    -9.8885472505     1.2951806637
   47      H      -0.5863408995    -9.8118930274    -1.1715726112
   48      H       0.6232376807   -11.1299957050    -0.7067511512
   49      C       1.3181716691    -9.6783805360    -1.9879966987
   50      H       1.2805750589    -8.6089353379    -2.2326892878
   51      C       0.9931825136   -10.4218907589    -3.3177220828
   52      H       2.3577640857    -9.8835974405    -1.7049001966
   53      H       0.0369240410   -10.0565201147    -3.7122826305
   54      H       1.0330969995   -11.5158537267    -3.2483905682
   55      H       1.7140004294   -10.0888586229    -4.0741638379
   56      C      -8.2100531695     1.0448402525     0.4773126826
   57      C      -7.3246053987     2.0574446754     0.8801532562
   58      N      -7.7411402402    -0.1088172483    -0.0440231357
   59      C      -5.8964303414     1.9025613560     0.5861240687
   60      C      -6.4226382673    -0.2471321542    -0.2811550277
   61      C      -5.4169551720     0.6879113411    -0.0202255856
   62      C      -3.9399076902     0.4683745368    -0.3708269661
   63      C      -3.0873855970     1.5678420287    -0.4696313934
   64      C      -3.3632398771    -0.7970280013    -0.4882903643
   65      N      -1.7921495839     1.4153801676    -0.8723820003
   66      N      -3.9907182263    -2.0114019799    -0.4370969922
   67      C      -2.0512418252    -0.9267759547    -0.8899862448
   68      C      -1.2364042085     0.1778248761    -1.0607804566
   69      S      -2.8690719868    -3.1339215334    -0.6696428279
   70      N      -1.5722172376    -2.1601747662    -0.9270782425
   71      C       0.2219934263     0.2788596865    -1.4766353666
   72      S       1.2712890046    -1.0729099143    -1.6798759528
   73      C       0.9770011105     1.4750349223    -1.6238603712
   74      C       2.6905364857    -0.0471440972    -1.9222435990
   75      S       0.5108680402     3.1738078236    -1.4687778431
   76      C       2.3592733689     1.2634698787    -1.8639533445
   77      C       4.1008579942    -0.5041090680    -2.0136452299
   78      C       2.1246394222     3.5700745333    -1.8905593288
   79      C       2.9939615395     2.5236676029    -2.0295722504
   80      N       4.2938471975    -1.8097166028    -1.8671080927
   81      S       5.6033219933     0.3957641271    -1.9482222673
   82      C       5.6341340745    -2.1348800225    -1.7999900038
   83      C       6.4285690662    -1.0408383575    -2.0145590589
   84      C      -9.6286842614     0.9955045489     1.1170577987
   85      H      -7.7299350010     2.9127818577     1.4111920665
   86      H      -5.2154351399     2.7054480955     0.8501134985
   87      H      -6.2017408136    -1.1781749958    -0.8026840700
   88      H      -3.3667356607     2.6086307401    -0.3197367634
   89      H       2.3682877978     4.6217574516    -1.9605986632
   90      H       4.0547182043     2.6457505356    -2.2139090496
   91      H       5.9307226579    -3.1742241605    -1.7420247131
   92      H       7.5095147516    -1.0273346889    -1.9790755977
   93      H      -9.8761449004     0.0579927661     1.6304620150
   94      C     -10.6768290999     1.2407600249    -0.0080355970
   95      H      -9.7778617035     1.8093534771     1.8365131572
   96      H     -10.7421854027     0.4892312446    -0.8047727218
   97      H     -10.2921977549     2.1675988561    -0.4511241993
   98      C     -12.0349269679     1.4930012210     0.6434185916
   99      H     -12.4221740138     0.4908946599     0.8641450413
  100      C     -12.9066629441     2.2494897054    -0.4618323124
  101      H     -12.0561674693     2.1559799708     1.5168165642
  102      H     -13.1366077651     1.4896599549    -1.2193302527
  103      H     -12.4008099978     3.1173403727    -0.9021424486
  104      C     -14.2827566149     2.8173734441     0.0959205616
  105      H     -14.8385812692     1.9359590000     0.4392520797
  106      C     -15.1479076825     3.4361012643    -1.0181416067
  107      H     -14.0602051828     3.4082940557     0.9932792919
  108      H     -15.7284805645     2.6222737522    -1.4677480003
  109      H     -14.5705398409     4.0294762894    -1.7384494958
  110      H     -15.8606451258     4.1546240000    -0.5957822632
 ----------------------------------------------------------------

   10   -5663.4962016692      3.91E-06 Convergence criterion met
 Total energy in the final basis set = -5663.4962016692

                    Orbital Energies (a.u.)
 --------------------------------------------------------------

 Alpha MOs
 -- Occupied --
-88.996 -88.987 -88.928 -88.925 -88.923 -88.919 -88.909 -88.909
-14.388 -14.386 -14.371 -14.370 -14.351 -14.347 -14.345 -14.336
-14.328 -14.326 -10.272 -10.268 -10.264 -10.260 -10.259 -10.254
-10.251 -10.247 -10.245 -10.244 -10.243 -10.240 -10.236 -10.235
-10.234 -10.233 -10.232 -10.231 -10.229 -10.228 -10.224 -10.224
-10.224 -10.224 -10.221 -10.221 -10.221 -10.220 -10.220 -10.216
-10.207 -10.207 -10.205 -10.204 -10.201 -10.197 -10.196 -10.193
-10.187 -10.182 -10.180 -10.178 -10.177 -10.177 -10.177 -10.175
-10.174 -10.173 -10.173 -10.172  -8.051  -8.042  -7.989  -7.986
 -7.982  -7.978  -7.969  -7.969  -6.016  -6.011  -6.009  -6.008
 -6.002  -6.000  -5.953  -5.950  -5.949  -5.947  -5.946  -5.946
 -5.944  -5.943  -5.942  -5.939  -5.938  -5.935  -5.933  -5.933
 -5.930  -5.930  -5.925  -5.925  -1.051  -1.046  -0.966  -0.966
 -0.960  -0.955  -0.949  -0.933  -0.914  -0.912  -0.909  -0.904
 -0.850  -0.845  -0.835  -0.833  -0.813  -0.811  -0.810  -0.808
 -0.806  -0.802  -0.794  -0.790  -0.789  -0.776  -0.765  -0.765
 -0.748  -0.744  -0.742  -0.738  -0.722  -0.719  -0.713  -0.706
 -0.694  -0.692  -0.679  -0.679  -0.654  -0.654  -0.648  -0.644
 -0.633  -0.632  -0.625  -0.625  -0.610  -0.605  -0.600  -0.595
 -0.592  -0.590  -0.582  -0.579  -0.578  -0.576  -0.569  -0.556
 -0.551  -0.544  -0.543  -0.540  -0.527  -0.526  -0.520  -0.512
 -0.507  -0.505  -0.502  -0.501  -0.488  -0.486  -0.483  -0.480
 -0.476  -0.473  -0.470  -0.469  -0.467  -0.466  -0.452  -0.448
 -0.444  -0.439  -0.438  -0.434  -0.432  -0.430  -0.430  -0.429
 -0.428  -0.426  -0.425  -0.421  -0.418  -0.415  -0.414  -0.411
 -0.409  -0.408  -0.405  -0.404  -0.403  -0.402  -0.401  -0.397
 -0.396  -0.393  -0.390  -0.390  -0.388  -0.386  -0.382  -0.381
 -0.380  -0.375  -0.371  -0.367  -0.364  -0.362  -0.358  -0.358
 -0.355  -0.351  -0.350  -0.350  -0.348  -0.344  -0.344  -0.341
 -0.337  -0.337  -0.329  -0.327  -0.325  -0.324  -0.324  -0.322
 -0.316  -0.313  -0.311  -0.310  -0.306  -0.302  -0.300  -0.297
 -0.295  -0.293  -0.290  -0.285  -0.283  -0.282  -0.276  -0.275
 -0.274  -0.269  -0.267  -0.261  -0.260  -0.252  -0.251  -0.249
 -0.245  -0.236  -0.229  -0.227  -0.194  -0.192

          Ground-State Mulliken Net Atomic Charges

     Atom                 Charge (a.u.)
  ----------------------------------------
      1 C                     0.281790
      2 C                    -0.118839
      3 N                    -0.468962
      4 C                    -0.088007
      5 C                     0.056537
      6 C                     0.085938
      7 C                     0.026350
      8 C                     0.080896
      9 C                     0.228451
     10 N                    -0.537633
     11 N                    -0.569458
     12 C                     0.272659
     13 C                     0.332137
     14 S                     0.598045
     15 N                    -0.604983
     16 C                    -0.235449
     17 S                     0.326734
     18 C                    -0.087867
     19 C                    -0.196717
     20 S                     0.279129
     21 C                     0.106102
     22 C                     0.058268
     23 C                    -0.310774
     24 C                    -0.056775
     25 N                    -0.436295
     26 S                     0.245055
     27 C                     0.122657
     28 C                    -0.315073
     29 C                    -0.239718
     30 H                     0.095469
     31 H                     0.124193
     32 H                     0.082252
     33 H                     0.116887
     34 H                     0.122381
     35 H                     0.129222
     36 H                     0.116351
     37 H                     0.137360
     38 H                     0.112325
     39 C                    -0.182149
     40 H                     0.106443
     41 H                     0.111404
     42 H                     0.089040
     43 C                    -0.189027
     44 H                     0.091635
     45 C                    -0.159825
     46 H                     0.088064
     47 H                     0.086383
     48 H                     0.088215
     49 C                    -0.176499
     50 H                     0.092330
     51 C                    -0.320986
     52 H                     0.089587
     53 H                     0.101659
     54 H                     0.103495
     55 H                     0.101009
     56 C                     0.266909
     57 C                    -0.129010
     58 N                    -0.477672
     59 C                    -0.102891
     60 C                     0.061332
     61 C                     0.061173
     62 C                     0.036803
     63 C                     0.050460
     64 C                     0.239030
     65 N                    -0.530449
     66 N                    -0.535786
     67 C                     0.203928
     68 C                     0.305452
     69 S                     0.612741
     70 N                    -0.562156
     71 C                    -0.244565
     72 S                     0.352581
     73 C                    -0.123892
     74 C                    -0.252741
     75 S                     0.298371
     76 C                     0.175905
     77 C                     0.058683
     78 C                    -0.309797
     79 C                    -0.084165
     80 N                    -0.434689
     81 S                     0.316878
     82 C                     0.101937
     83 C                    -0.305357
     84 C                    -0.215821
     85 H                     0.092577
     86 H                     0.095549
     87 H                     0.121557
     88 H                     0.121638
     89 H                     0.137065
     90 H                     0.113119
     91 H                     0.117304
     92 H                     0.132621
     93 H                     0.116907
     94 C                    -0.174236
     95 H                     0.095716
     96 H                     0.114893
     97 H                     0.091415
     98 C                    -0.186690
     99 H                     0.099690
    100 C                    -0.175157
    101 H                     0.089790
    102 H                     0.092248
    103 H                     0.092211
    104 C                    -0.188708
    105 H                     0.092921
    106 C                    -0.317211
    107 H                     0.088993
    108 H                     0.108894
    109 H                     0.101877
    110 H                     0.100405
  ----------------------------------------
  Sum of atomic charges =     0.000000

                    Cartesian Multipole Moments
 -----------------------------------------------------------------
    Charge (ESU x 10^10)
                 0.0000
    Dipole Moment (Debye)
         X       0.0734      Y       3.0861      Z      -0.7605
       Tot       3.1793
    Quadrupole Moments (Debye-Ang)
        XX    -421.0623     XY       0.6133     YY    -415.4054
        XZ     -19.8912     YZ      -0.7896     ZZ    -456.5417

 Total job time:  120.88s(wall), 1285.98s(cpu)
        *  Thank you very much for using Q-Chem.  Have a nice day.  *
