 Q-Chem 4.4, Q-Chem, Inc., Pleasanton, CA (2016)
 Q-Chem 4.4.2 for Intel X86 Linux

User input:
--------------------------------------------------------------
$comment
SP
$end

$rem
MEM_STATIC 5000
MEM_TOTAL 20000
JOBTYPE SP
EXCHANGE B3LYP
BASIS 6-31g(d,p)
$end

$molecule
0 1
C          11.543000     11.175000      1.142000
C          10.419000     11.428000      0.352000
N          11.504000     11.482000      2.480000
C           9.239000     11.872000      0.926000
C          10.393000     11.826000      3.032000
C           9.203000     12.102000      2.347000
C           7.943000     12.547000      3.004000
C           7.068000     13.538000      2.438000
C           7.370000     11.847000      4.088000
N           5.884000     13.910000      2.885000
N           8.023000     10.961000      4.804000
C           6.150000     12.283000      4.644000
C           5.456000     13.333000      4.048000
S           6.952000     10.483000      5.979000
N           5.775000     11.545000      5.731000
C           4.235000     13.886000      4.567000
S           2.808000     14.371000      3.642000
C           3.995000     14.096000      5.869000
C           1.970000     14.942000      5.097000
S           5.048000     14.047000      7.237000
C           2.798000     14.769000      6.181000
C           0.557000     15.448000      5.185000
C           3.780000     14.614000      8.254000
C           2.631000     14.930000      7.545000
N          -0.243000     15.164000      4.169000
S          -0.063000     16.580000      6.370000
C          -1.431000     15.792000      4.293000
C          -1.557000     16.618000      5.425000
C          12.796000     10.612000      0.562000
H          10.441000     11.223000     -0.714000
H           8.386000     12.056000      0.279000
H          10.430000     11.950000      4.114000
H           7.450000     14.006000      1.532000
H           3.909000     14.550000      9.326000
H           1.734000     15.334000      8.001000
H          -2.195000     15.828000      3.528000
H          -2.394000     17.272000      5.636000
H          12.750000     10.476000     -0.526000
C          13.031000      9.126000      0.869000
H          13.666000     11.224000      0.828000
H          12.321000      8.518000      0.295000
H          12.765000      8.929000      1.915000
C          14.422000      8.635000      0.499000
H          14.522000      8.883000     -0.565000
C          14.401000      7.076000      0.595000
H          15.127000      9.230000      1.092000
H          13.687000      6.801000     -0.191000
H          14.068000      6.725000      1.579000
C          15.755000      6.484000      0.222000
H          16.249000      6.986000     -0.619000
C          15.739000      5.053000      0.000000
H          16.438000      6.791000      1.024000
H          15.416000      4.514000      0.899000
H          16.760000      4.748000     -0.259000
H          15.170000      4.756000     -0.890000
C           4.495000     12.857000     -0.653000
C           5.222000     14.008000     -0.309000
N           5.019000     11.941000     -1.495000
C           6.491000     14.271000     -0.995000
C           6.200000     12.184000     -2.095000
C           7.012000     13.310000     -1.932000
C           8.323000     13.531000     -2.697000
C           8.848000     14.819000     -2.801000
C           9.094000     12.486000     -3.208000
N           9.960000     15.063000     -3.554000
N           8.788000     11.153000     -3.231000
C          10.217000     12.756000     -3.960000
C          10.684000     14.048000     -4.121000
S           9.999000     10.402000     -3.967000
N          10.915000     11.706000     -4.363000
C          11.889000     14.579000     -4.880000
S          13.091000     13.586000     -5.614000
C          12.288000     15.940000     -4.985000
C          14.114000     14.970000     -6.018000
S          11.538000     17.424000     -4.383000
C          13.543000     16.130000     -5.619000
C          15.493000     14.914000     -6.567000
C          12.822000     18.279000     -5.131000
C          13.811000     17.523000     -5.697000
N          15.997000     13.697000     -6.735000
S          16.714000     16.161000     -6.727000
C          17.331000     13.729000     -7.090000
C          17.768000     15.011000     -7.289000
C           3.384000     12.358000      0.317000
H           4.824000     14.654000      0.467000
H           7.031000     15.185000     -0.769000
H           6.446000     11.416000     -2.828000
H           8.411000     15.723000     -2.382000
H          12.801000     19.358000     -5.056000
H          14.713000     17.941000     -6.128000
H          17.847000     12.805000     -7.317000
H          18.779000     15.303000     -7.539000
H           3.512000     11.332000      0.684000
C           2.016000     12.458000     -0.420000
H           3.290000     13.008000      1.195000
H           1.874000     11.821000     -1.302000
H           2.039000     13.501000     -0.759000
C           0.900000     12.262000      0.604000
H           0.823000     11.174000      0.719000
C          -0.408000     12.895000     -0.061000
H           1.004000     12.782000      1.564000
H          -0.689000     12.202000     -0.864000
H          -0.259000     13.913000     -0.441000
C          -1.637000     13.008000      0.941000
H          -1.859000     11.976000      1.240000
C          -2.912000     13.512000      0.239000
H          -1.284000     13.520000      1.845000
H          -3.413000     12.637000     -0.191000
H          -2.723000     14.321000     -0.478000
H          -3.599000     13.960000      0.967000
$end

--------------------------------------------------------------

             Standard Nuclear Orientation (Angstroms)
    I     Atom           X                Y                Z
 ----------------------------------------------------------------
    1      C       2.3936348703     3.4305861058    -0.4194683796
    2      C       1.9422715129     2.2911450309     0.2509271428
    3      N       1.5563483598     4.0612721939    -1.3067115017
    4      C       0.6304516538     1.8668949857     0.1161957189
    5      C       0.3181574201     3.7171747983    -1.3831391093
    6      C      -0.2495431735     2.6013035715    -0.7554063308
    7      C      -1.6748650807     2.1950554215    -0.8992600811
    8      C      -2.0954115135     0.8239064615    -1.0048689229
    9      C      -2.7411329004     3.0923867079    -0.6728655161
   10      N      -3.3317885645     0.3643386772    -1.0196418540
   11      N      -2.5932886374     4.3963658211    -0.6299522741
   12      C      -4.0741279225     2.6450152746    -0.7758949862
   13      C      -4.3341813580     1.2932024206    -0.9864329126
   14      S      -4.1256049545     4.9965213635    -0.4109316602
   15      N      -4.9807894443     3.6526762198    -0.6043656752
   16      C      -5.6520553462     0.7461029055    -1.1593527542
   17      S      -6.2794445819    -0.7574454768    -0.4716725895
   18      C      -6.6250311272     1.3318936926    -1.8714421329
   19      C      -7.8426658069    -0.5620986360    -1.2862209388
   20      S      -6.5825923838     2.6745641486    -2.9568310032
   21      C      -7.8073884564     0.5861654333    -2.0417433644
   22      C      -9.0581982689    -1.4325771675    -1.1278007378
   23      C      -8.2331817256     2.4135031556    -3.3703572815
   24      C      -8.7557149999     1.2738503376    -2.7779989174
   25      N      -9.0879355526    -2.2295133521    -0.0709561837
   26      S     -10.3148051252    -1.6797089274    -2.3235908959
   27      C     -10.1497179316    -3.0611594782    -0.1166387908
   28      C     -10.9616867584    -2.9342784370    -1.2586474711
   29      C       3.7738168873     3.9591278349    -0.2216825346
   30      H       2.6000355543     1.7591483256     0.9315084908
   31      H       0.3163591040     0.9773392442     0.6548147426
   32      H      -0.2974392816     4.3368038047    -2.0347291609
   33      H      -1.2763434861     0.1088538553    -1.0649633212
   34      H      -8.7592561817     3.1876951807    -3.9123843795
   35      H      -9.7679036137     0.9206556980    -2.9407525862
   36      H     -10.3149381880    -3.8916855520     0.5565221912
   37      H     -11.7935090063    -3.5792399130    -1.5134070486
   38      H       4.3863178468     3.3396800391     0.4457625964
   39      C       3.8570277415     5.2167602375     0.6553047478
   40      H       4.2863120628     4.0984922515    -1.1809146517
   41      H       3.6551084499     4.9476781402     1.6993657731
   42      H       3.0349499363     5.8936485353     0.3913136222
   43      C       5.2206534369     5.8898209635     0.6359083013
   44      H       5.9170964786     5.0982216822     0.9391205496
   45      C       5.2260345400     6.9530207562     1.7803362127
   46      H       5.4079820572     6.1772391832    -0.4057239539
   47      H       5.1292432806     6.3321211621     2.6794091498
   48      H       4.3944258020     7.6622447720     1.6921647750
   49      C       6.5667533915     7.6740490464     1.8544993157
   50      H       7.4359002293     7.0254462981     1.6895167429
   51      C       6.7575096539     8.4551781422     3.0589703133
   52      H       6.6275075219     8.2711930519     0.9359842247
   53      H       5.9936877669     9.2368272465     3.1519853800
   54      H       7.7481781365     8.9212292500     2.9963658192
   55      H       6.8400343363     7.8441200939     3.9666419160
   56      C      -2.3072091102    -1.7782355805     2.1291970578
   57      C      -1.9832590865    -1.9997031017     0.7809854575
   58      N      -1.3414592850    -1.4948858074     3.0289949135
   59      C      -0.5694354842    -2.0672873859     0.3980217695
   60      C      -0.0482881816    -1.5323324186     2.6546738632
   61      C       0.4522927310    -1.8161062993     1.3808292359
   62      C       1.9487311811    -1.8886436835     1.0518956665
   63      C       2.3676873958    -2.5678401133    -0.0920243044
   64      C       2.9244176597    -1.2077216664     1.7812571009
   65      N       3.6956141881    -2.7319112342    -0.3618021787
   66      N       2.7591218276    -0.4869996890     2.9320355849
   67      C       4.2592947953    -1.3833726008     1.4866679258
   68      C       4.6650083923    -2.1257608167     0.3923506893
   69      S       4.2071521152     0.0470533974     3.3681704117
   70      N       5.1126536077    -0.6617807538     2.1960316857
   71      C       6.0568308806    -2.4404596416    -0.1309673885
   72      S       7.5086945721    -1.7519583876     0.4916615898
   73      C       6.3712087626    -3.2209603530    -1.2774978883
   74      C       8.5010366396    -2.4724755321    -0.7816464112
   75      S       5.3364375600    -4.1202248320    -2.3945171160
   76      C       7.7467418875    -3.2142192405    -1.6252681855
   77      C       9.9386870254    -2.1999132310    -1.0366937795
   78      C       6.7689649719    -4.6047247499    -3.2021742485
   79      C       7.9380535065    -4.0538309159    -2.7552279631
   80      N      10.5054679560    -1.3034240575    -0.2376971972
   81      S      10.9532992893    -2.5934334042    -2.4104309550
   82      C      11.7878290337    -0.9842765753    -0.6380719603
   83      C      12.1923354783    -1.7569083143    -1.6933011924
   84      C      -3.7495856708    -1.3110541290     2.4834756894
   85      H      -2.7948729980    -2.0963304946     0.0669532414
   86      H      -0.3143708888    -2.2887737122    -0.6334615602
   87      H       0.6217004884    -1.3936775209     3.5029185221
   88      H       1.7224636560    -3.0741595475    -0.8069179721
   89      H       6.6530776894    -5.2661431198    -4.0503504553
   90      H       8.8978495083    -4.2159583269    -3.2312482751
   91      H      12.3842767059    -0.3101062341    -0.0369850070
   92      H      13.1393835734    -1.6766840351    -2.2095850007
   93      H      -3.8112933235    -0.3591574566     3.0255401605
   94      C      -4.4209993622    -2.4209600968     3.3448149940
   95      H      -4.3768346949    -1.2171240357     1.5890732077
   96      H      -3.9821012132    -2.6257133728     4.3293461061
   97      H      -4.2550891419    -3.3022805843     2.7131133261
   98      C      -5.9146525420    -2.1183002876     3.4440380678
   99      H      -5.9894584981    -1.3723267570     4.2445538770
  100      C      -6.6072839305    -3.5030449578     3.8396666284
  101      H      -6.4242967584    -1.8043867593     2.5250510878
  102      H      -6.3241505402    -3.6803141337     4.8848604490
  103      H      -6.3144192893    -4.3407668657     3.1951689116
  104      C      -8.1946007260    -3.4625710922     3.7621988480
  105      H      -8.4976994521    -2.6978920465     4.4882195910
  106      C      -8.8322650035    -4.7730711173     4.2606152939
  107      H      -8.4702378174    -3.0735300284     2.7739477440
  108      H      -8.9374007811    -4.6894222214     5.3484918175
  109      H      -8.2975398420    -5.6714523260     3.9270419054
  110      H      -9.8382301292    -4.8938989868     3.8409823687
 ----------------------------------------------------------------

   10   -5663.5035735682      4.11E-06 Convergence criterion met
 Total energy in the final basis set = -5663.5035735682

                    Orbital Energies (a.u.)
 --------------------------------------------------------------

 Alpha MOs
 -- Occupied --
-88.994 -88.990 -88.934 -88.930 -88.926 -88.924 -88.912 -88.908
-14.388 -14.386 -14.385 -14.377 -14.353 -14.350 -14.345 -14.339
-14.324 -14.321 -10.276 -10.268 -10.267 -10.259 -10.259 -10.255
-10.253 -10.251 -10.245 -10.245 -10.243 -10.240 -10.236 -10.234
-10.233 -10.232 -10.232 -10.231 -10.229 -10.228 -10.228 -10.225
-10.224 -10.224 -10.223 -10.222 -10.222 -10.220 -10.219 -10.217
-10.212 -10.208 -10.206 -10.205 -10.201 -10.201 -10.201 -10.193
-10.182 -10.179 -10.177 -10.176 -10.172 -10.169 -10.169 -10.169
-10.168 -10.167 -10.167 -10.165  -8.050  -8.046  -7.995  -7.992
 -7.985  -7.983  -7.972  -7.971  -6.015  -6.011  -6.009  -6.008
 -6.005  -6.004  -5.959  -5.956  -5.955  -5.952  -5.952  -5.949
 -5.949  -5.947  -5.945  -5.943  -5.941  -5.940  -5.936  -5.935
 -5.933  -5.931  -5.928  -5.927  -1.050  -1.042  -0.972  -0.970
 -0.963  -0.954  -0.942  -0.930  -0.924  -0.914  -0.909  -0.909
 -0.853  -0.851  -0.834  -0.827  -0.817  -0.816  -0.812  -0.809
 -0.806  -0.796  -0.795  -0.791  -0.789  -0.771  -0.770  -0.763
 -0.752  -0.746  -0.746  -0.741  -0.728  -0.723  -0.716  -0.705
 -0.696  -0.690  -0.679  -0.677  -0.655  -0.652  -0.645  -0.642
 -0.635  -0.630  -0.621  -0.620  -0.608  -0.604  -0.601  -0.599
 -0.598  -0.590  -0.580  -0.578  -0.574  -0.572  -0.568  -0.560
 -0.550  -0.546  -0.542  -0.542  -0.529  -0.527  -0.521  -0.517
 -0.508  -0.506  -0.503  -0.499  -0.490  -0.483  -0.482  -0.481
 -0.478  -0.474  -0.470  -0.467  -0.466  -0.461  -0.451  -0.449
 -0.444  -0.443  -0.440  -0.436  -0.434  -0.434  -0.433  -0.432
 -0.431  -0.428  -0.425  -0.419  -0.417  -0.416  -0.413  -0.413
 -0.409  -0.408  -0.408  -0.407  -0.403  -0.401  -0.401  -0.398
 -0.395  -0.392  -0.391  -0.388  -0.387  -0.386  -0.384  -0.382
 -0.377  -0.375  -0.374  -0.368  -0.367  -0.361  -0.361  -0.359
 -0.354  -0.353  -0.352  -0.349  -0.348  -0.345  -0.342  -0.341
 -0.338  -0.337  -0.332  -0.330  -0.329  -0.319  -0.317  -0.316
 -0.313  -0.311  -0.310  -0.309  -0.306  -0.301  -0.301  -0.298
 -0.296  -0.295  -0.292  -0.289  -0.287  -0.285  -0.282  -0.277
 -0.274  -0.271  -0.264  -0.263  -0.254  -0.253  -0.250  -0.248
 -0.243  -0.241  -0.231  -0.229  -0.196  -0.196

          Ground-State Mulliken Net Atomic Charges

     Atom                 Charge (a.u.)
  ----------------------------------------
      1 C                     0.278075
      2 C                    -0.124843
      3 N                    -0.481680
      4 C                    -0.072068
      5 C                     0.105881
      6 C                     0.010189
      7 C                    -0.005035
      8 C                     0.091415
      9 C                     0.253495
     10 N                    -0.513099
     11 N                    -0.544368
     12 C                     0.211779
     13 C                     0.241737
     14 S                     0.611542
     15 N                    -0.529176
     16 C                    -0.214181
     17 S                     0.352052
     18 C                    -0.106456
     19 C                    -0.238248
     20 S                     0.271310
     21 C                     0.136053
     22 C                     0.048399
     23 C                    -0.303906
     24 C                    -0.072640
     25 N                    -0.425378
     26 S                     0.277167
     27 C                     0.127247
     28 C                    -0.315245
     29 C                    -0.225473
     30 H                     0.085059
     31 H                     0.114644
     32 H                     0.103902
     33 H                     0.099411
     34 H                     0.135381
     35 H                     0.106287
     36 H                     0.121395
     37 H                     0.134588
     38 H                     0.098289
     39 C                    -0.186587
     40 H                     0.115646
     41 H                     0.086079
     42 H                     0.107455
     43 C                    -0.176374
     44 H                     0.091467
     45 C                    -0.166550
     46 H                     0.097855
     47 H                     0.090333
     48 H                     0.097571
     49 C                    -0.171518
     50 H                     0.087897
     51 C                    -0.307500
     52 H                     0.090934
     53 H                     0.100567
     54 H                     0.095323
     55 H                     0.099961
     56 C                     0.264277
     57 C                    -0.123309
     58 N                    -0.476347
     59 C                    -0.122389
     60 C                     0.057912
     61 C                     0.046794
     62 C                     0.035674
     63 C                     0.060621
     64 C                     0.249819
     65 N                    -0.535346
     66 N                    -0.549178
     67 C                     0.192571
     68 C                     0.316130
     69 S                     0.616803
     70 N                    -0.553582
     71 C                    -0.234980
     72 S                     0.358424
     73 C                    -0.129213
     74 C                    -0.248627
     75 S                     0.298573
     76 C                     0.172615
     77 C                     0.053560
     78 C                    -0.303922
     79 C                    -0.083298
     80 N                    -0.427984
     81 S                     0.290697
     82 C                     0.107652
     83 C                    -0.307116
     84 C                    -0.230208
     85 H                     0.120713
     86 H                     0.099378
     87 H                     0.121379
     88 H                     0.122840
     89 H                     0.127775
     90 H                     0.108387
     91 H                     0.118408
     92 H                     0.134458
     93 H                     0.111503
     94 C                    -0.172378
     95 H                     0.116670
     96 H                     0.110918
     97 H                     0.090161
     98 C                    -0.199036
     99 H                     0.094701
    100 C                    -0.173469
    101 H                     0.116133
    102 H                     0.087476
    103 H                     0.090533
    104 C                    -0.203531
    105 H                     0.089662
    106 C                    -0.317051
    107 H                     0.111969
    108 H                     0.107299
    109 H                     0.099748
    110 H                     0.092665
  ----------------------------------------
  Sum of atomic charges =     0.000000

                    Cartesian Multipole Moments
 -----------------------------------------------------------------
    Charge (ESU x 10^10)
                 0.0000
    Dipole Moment (Debye)
         X      -0.2231      Y      -0.3414      Z      -2.9594
       Tot       2.9873
    Quadrupole Moments (Debye-Ang)
        XX    -360.5915     XY      -0.5741     YY    -437.6234
        XZ       6.4021     YZ      14.6637     ZZ    -440.7259

 Total job time:  99.45s(wall), 1099.02s(cpu)
        *  Thank you very much for using Q-Chem.  Have a nice day.  *
