 Q-Chem 4.4, Q-Chem, Inc., Pleasanton, CA (2016)
 Q-Chem 4.4.2 for Intel X86 Linux

User input:
--------------------------------------------------------------
$comment
SP
$end

$rem
MEM_STATIC 5000
MEM_TOTAL 20000
JOBTYPE SP
EXCHANGE B3LYP
BASIS 6-31g(d,p)
$end

$molecule
0 1
C           0.902000     14.124000     -4.074000
C           1.259000     14.301000     -5.398000
N           1.206000     14.985000     -3.187000
C           2.109000     15.418000     -5.704000
C           2.141000     15.902000     -3.393000
C           2.696000     16.163000     -4.661000
C           3.595000     17.311000     -4.926000
C           3.335000     18.282000     -5.985000
C           4.655000     17.736000     -4.082000
N           3.803000     19.550000     -6.026000
N           5.262000     16.893000     -3.255000
C           5.282000     19.005000     -4.188000
C           4.734000     19.937000     -5.144000
S           6.455000     17.745000     -2.541000
N           6.402000     19.159000     -3.363000
C           5.204000     21.306000     -5.275000
S           5.405000     22.157000     -6.781000
C           5.715000     22.004000     -4.173000
C           6.113000     23.563000     -5.927000
S           5.516000     21.705000     -2.513000
C           6.187000     23.290000     -4.584000
C           6.433000     24.835000     -6.503000
C           6.083000     23.402000     -2.224000
C           6.372000     24.077000     -3.384000
N           6.957000     25.817000     -5.760000
S           6.240000     25.139000     -8.200000
C           7.159000     26.922000     -6.524000
C           6.865000     26.765000     -7.784000
C          -0.185000     13.098000     -3.784000
H           0.869000     13.643000     -6.169000
H           2.376000     15.641000     -6.733000
H           2.562000     16.488000     -2.578000
H           2.473000     18.185000     -6.644000
H           6.260000     23.744000     -1.212000
H           6.730000     25.100000     -3.384000
H           7.492000     27.802000     -5.990000
H           6.926000     27.516000     -8.561000
H          -0.130000     12.299000     -4.534000
C          -1.579000     13.791000     -3.680000
H           0.163000     12.561000     -2.892000
H          -1.782000     14.335000     -4.611000
H          -1.631000     14.585000     -2.925000
C          -2.734000     12.783000     -3.413000
H          -2.515000     11.888000     -4.008000
C          -4.020000     13.444000     -3.772000
H          -2.759000     12.556000     -2.340000
H          -3.901000     14.114000     -4.633000
H          -4.259000     14.108000     -2.932000
C          -5.339000     12.613000     -3.848000
H          -6.197000     13.294000     -3.923000
C          -5.443000     11.709000     -2.561000
H          -5.148000     11.943000     -4.695000
H          -4.762000     10.854000     -2.651000
H          -6.421000     11.238000     -2.721000
H          -5.513000     12.222000     -1.594000
C           4.495000     12.857000     -0.653000
C           5.222000     14.008000     -0.309000
N           5.019000     11.941000     -1.495000
C           6.491000     14.271000     -0.995000
C           6.200000     12.184000     -2.095000
C           7.012000     13.310000     -1.932000
C           8.323000     13.531000     -2.697000
C           8.848000     14.819000     -2.801000
C           9.094000     12.486000     -3.208000
N           9.960000     15.063000     -3.554000
N           8.788000     11.153000     -3.231000
C          10.217000     12.756000     -3.960000
C          10.684000     14.048000     -4.121000
S           9.999000     10.402000     -3.967000
N          10.915000     11.706000     -4.363000
C          11.889000     14.579000     -4.880000
S          13.091000     13.586000     -5.614000
C          12.288000     15.940000     -4.985000
C          14.114000     14.970000     -6.018000
S          11.538000     17.424000     -4.383000
C          13.543000     16.130000     -5.619000
C          15.493000     14.914000     -6.567000
C          12.822000     18.279000     -5.131000
C          13.811000     17.523000     -5.697000
N          15.997000     13.697000     -6.735000
S          16.714000     16.161000     -6.727000
C          17.331000     13.729000     -7.090000
C          17.768000     15.011000     -7.289000
C           3.384000     12.358000      0.317000
H           4.824000     14.654000      0.467000
H           7.031000     15.185000     -0.769000
H           6.446000     11.416000     -2.828000
H           8.411000     15.723000     -2.382000
H          12.801000     19.358000     -5.056000
H          14.713000     17.941000     -6.128000
H          17.847000     12.805000     -7.317000
H          18.779000     15.303000     -7.539000
H           3.512000     11.332000      0.684000
C           2.016000     12.458000     -0.420000
H           3.290000     13.008000      1.195000
H           1.874000     11.821000     -1.302000
H           2.039000     13.501000     -0.759000
C           0.900000     12.262000      0.604000
H           0.823000     11.174000      0.719000
C          -0.408000     12.895000     -0.061000
H           1.004000     12.782000      1.564000
H          -0.689000     12.202000     -0.864000
H          -0.259000     13.913000     -0.441000
C          -1.637000     13.008000      0.941000
H          -1.859000     11.976000      1.240000
C          -2.912000     13.512000      0.239000
H          -1.284000     13.520000      1.845000
H          -3.413000     12.637000     -0.191000
H          -2.723000     14.321000     -0.478000
H          -3.599000     13.960000      0.967000
$end

--------------------------------------------------------------

             Standard Nuclear Orientation (Angstroms)
    I     Atom           X                Y                Z
 ----------------------------------------------------------------
    1      C      -5.7062599683    -0.7749437179    -1.6541365606
    2      C      -5.0043908287    -0.4542897423    -2.8014441649
    3      N      -5.4444395821    -0.2150020169    -0.5412927365
    4      C      -3.8769570981     0.4241254872    -2.6561690204
    5      C      -4.3063227876     0.4325701174    -0.3341925362
    6      C      -3.4126618084     0.7675428090    -1.3701140343
    7      C      -2.2421453536     1.6539724868    -1.1689582358
    8      C      -2.0090483523     2.8418635870    -1.9853542929
    9      C      -1.3547158998     1.6039423879    -0.0614714622
   10      N      -1.2730919106     3.9169265405    -1.6232261914
   11      N      -1.1748390017     0.4857608999     0.6315952457
   12      C      -0.4526225169     2.6487454511     0.2691946652
   13      C      -0.5251759311     3.8591854404    -0.5133876207
   14      S      -0.0342059277     0.8265747282     1.7459341191
   15      N       0.4352380404     2.3303923416     1.3031656166
   16      C       0.2574595899     5.0460235942    -0.2115286503
   17      S       1.0082303932     6.0794351839    -1.3951847183
   18      C       0.6250361574     5.3547369250     1.1046447981
   19      C       1.7814335082     7.0488083185    -0.1029429960
   20      S      -0.0378289699     4.8119405552     2.5711317309
   21      C       1.4597687990     6.5159767512     1.1202807512
   22      C       2.5102581610     8.2698356104    -0.2763413173
   23      C       0.8066276686     6.2016435301     3.3714052013
   24      C       1.5158173111     6.9792759346     2.4898815802
   25      N       3.0420894512     8.9109544964     0.7710702793
   26      S       2.8136976319     8.9317523176    -1.8509094360
   27      C       3.6683851522    10.0425782057     0.3554905933
   28      C       3.6656895662    10.2144986615    -0.9364541001
   29      C      -7.0328216104    -1.4996055875    -1.8370146196
   30      H      -5.3302677187    -0.8213273229    -3.7702540879
   31      H      -3.3221577976     0.7567490561    -3.5287618794
   32      H      -3.9781896115     0.7148745687     0.6645540861
   33      H      -2.6816418226     3.1117441155    -2.7986909539
   34      H       0.8014847190     6.2833104925     4.4511000921
   35      H       2.0829838821     7.8456944237     2.8097785676
   36      H       4.0486009491    10.6795615078     1.1429759713
   37      H       4.0827773040    11.0534648287    -1.4783254771
   38      H      -6.9758831641    -2.1254615009    -2.7364524379
   39      C      -8.2173660666    -0.4841651744    -1.8309980927
   40      H      -7.0444812167    -2.2706966194    -1.0557210294
   41      H      -8.0578166856     0.2612174567    -2.6202095525
   42      H      -8.2738269641     0.1352049679    -0.9274728889
   43      C      -9.5983555149    -1.1688600883    -2.0441623924
   44      H      -9.4464213114    -1.9595981083    -2.7889176419
   45      C     -10.5744118647    -0.1251996473    -2.4656892428
   46      H      -9.9366711908    -1.5799034336    -1.0849601865
   47      H     -10.1001585657     0.6374731734    -3.0963999349
   48      H     -10.8572802641     0.4066791703    -1.5487882710
   49      C     -11.9859990020    -0.5329247753    -2.9922630496
   50      H     -12.6237973393     0.3583927123    -3.0579624959
   51      C     -12.6033547749    -1.6012634206    -2.0114850989
   52      H     -11.7480187376    -1.0559822357    -3.9263756161
   53      H     -12.1309461347    -2.5767930034    -2.1789906505
   54      H     -13.5919459101    -1.7470273881    -2.4646577295
   55      H     -12.7919719386    -1.2821699744    -0.9791281169
   56      C      -3.4435659520    -3.6036678357     1.9648017718
   57      C      -2.5842901011    -2.7830093717     2.7130201206
   58      N      -2.9480136503    -4.4508183295     1.0377850744
   59      C      -1.1599847661    -2.7523125025     2.3658342696
   60      C      -1.6323212608    -4.4312130669     0.7507673575
   61      C      -0.6540045380    -3.6230165425     1.3368593023
   62      C       0.8199020281    -3.6284112653     0.9121743232
   63      C       1.6295847811    -2.5381353622     1.2301323308
   64      C       1.4380409733    -4.7277324676     0.3146928267
   65      N       2.9180518081    -2.4696160019     0.7848831673
   66      N       0.8559927054    -5.8962916790    -0.0936491664
   67      C       2.7424697816    -4.6379034956    -0.1211158926
   68      C       3.5123714470    -3.5171387804     0.1326790617
   69      S       2.0103347933    -6.7962034394    -0.7492947778
   70      N       3.2640979418    -5.7424632601    -0.6309833158
   71      C       4.9544187909    -3.2023710698    -0.2299333293
   72      S       6.0454724165    -4.3283544606    -0.9450363916
   73      C       5.6619159533    -2.0085672191     0.0812372531
   74      C       7.4200538886    -3.2269797709    -0.7943693104
   75      S       5.1397280606    -0.5184009446     0.8774057522
   76      C       7.0438526979    -2.0527399822    -0.2371659518
   77      C       8.8428138919    -3.5531970339    -1.0691679100
   78      C       6.7262782808     0.0781033682     0.6200616174
   79      C       7.6283643160    -0.7980134361     0.0827785167
   80      N       9.0862525669    -4.8067150753    -1.4335291751
   81      S      10.3133701092    -2.6815828951    -0.6828996032
   82      C      10.4386330016    -5.0745010098    -1.5107486862
   83      C      11.1873436747    -3.9477264780    -1.3012123350
   84      C      -4.8416671064    -3.9541056538     2.5536383345
   85      H      -3.0053958786    -2.2123874464     3.5345775090
   86      H      -0.5012218534    -2.0814534405     2.9080994666
   87      H      -1.3924979363    -5.0833908453    -0.0887431656
   88      H       1.3173726234    -1.6457568445     1.7685839532
   89      H       6.9301880378     1.0868832352     0.9533647692
   90      H       8.6786931046    -0.5691063759    -0.0532361643
   91      H      10.7736480368    -6.0438561882    -1.8566915491
   92      H      12.2676801062    -3.9018600617    -1.2756297883
   93      H      -5.0414507041    -5.0262092072     2.6737611255
   94      C      -5.9280159866    -3.3450707776     1.6190177537
   95      H      -5.0002890830    -3.4823644331     3.5306333648
   96      H      -5.9880340450    -3.7391507985     0.5967869727
   97      H      -5.5889125698    -2.3036215652     1.5582607727
   98      C      -7.2761081750    -3.4187318162     2.3329291648
   99      H      -7.6211604044    -4.4452539537     2.1594666034
  100      C      -8.2039633791    -2.3373016612     1.6094849445
  101      H      -7.2973566541    -3.1393706036     3.3932695889
  102      H      -8.4270440764    -2.7611140871     0.6222478756
  103      H      -7.7415764079    -1.3461458880     1.5274269027
  104      C      -9.5838561838    -2.0845054660     2.3572843370
  105      H     -10.0983079666    -3.0534738508     2.3450928420
  106      C     -10.5004472935    -1.1267052280     1.5731131557
  107      H      -9.3583328724    -1.8702520542     3.4095218157
  108      H     -11.0635284061    -1.7327168211     0.8539361193
  109      H      -9.9643939801    -0.2795187828     1.1267803513
  110      H     -11.2267060493    -0.6544743282     2.2455737098
 ----------------------------------------------------------------

   10   -5663.4821147867      3.98E-06 Convergence criterion met
 Total energy in the final basis set = -5663.4821147867

                    Orbital Energies (a.u.)
 --------------------------------------------------------------

 Alpha MOs
 -- Occupied --
-88.991 -88.990 -88.928 -88.927 -88.924 -88.921 -88.909 -88.909
-14.395 -14.384 -14.382 -14.380 -14.352 -14.347 -14.336 -14.335
-14.324 -14.321 -10.267 -10.266 -10.263 -10.263 -10.261 -10.259
-10.255 -10.248 -10.244 -10.242 -10.241 -10.239 -10.238 -10.237
-10.235 -10.229 -10.229 -10.228 -10.228 -10.227 -10.226 -10.224
-10.222 -10.221 -10.221 -10.220 -10.220 -10.219 -10.219 -10.217
-10.216 -10.214 -10.210 -10.203 -10.202 -10.199 -10.199 -10.197
-10.182 -10.181 -10.181 -10.181 -10.174 -10.173 -10.173 -10.172
-10.171 -10.170 -10.169 -10.167  -8.047  -8.046  -7.990  -7.987
 -7.986  -7.980  -7.970  -7.969  -6.012  -6.011  -6.006  -6.005
 -6.005  -6.004  -5.954  -5.952  -5.950  -5.949  -5.948  -5.947
 -5.946  -5.944  -5.944  -5.942  -5.941  -5.937  -5.934  -5.934
 -5.931  -5.930  -5.926  -5.926  -1.045  -1.038  -0.969  -0.967
 -0.961  -0.958  -0.951  -0.927  -0.913  -0.911  -0.905  -0.904
 -0.848  -0.844  -0.833  -0.830  -0.815  -0.810  -0.806  -0.805
 -0.799  -0.796  -0.796  -0.788  -0.785  -0.771  -0.765  -0.762
 -0.750  -0.745  -0.742  -0.741  -0.724  -0.720  -0.711  -0.703
 -0.695  -0.690  -0.676  -0.675  -0.655  -0.649  -0.646  -0.643
 -0.641  -0.632  -0.629  -0.620  -0.609  -0.603  -0.595  -0.594
 -0.590  -0.588  -0.586  -0.578  -0.578  -0.570  -0.565  -0.555
 -0.549  -0.543  -0.541  -0.539  -0.526  -0.523  -0.518  -0.514
 -0.510  -0.506  -0.505  -0.497  -0.486  -0.480  -0.478  -0.475
 -0.475  -0.471  -0.469  -0.466  -0.464  -0.462  -0.450  -0.448
 -0.443  -0.441  -0.437  -0.435  -0.433  -0.431  -0.430  -0.429
 -0.429  -0.425  -0.423  -0.418  -0.416  -0.414  -0.411  -0.410
 -0.409  -0.407  -0.406  -0.401  -0.400  -0.399  -0.398  -0.396
 -0.395  -0.391  -0.388  -0.388  -0.386  -0.384  -0.383  -0.382
 -0.375  -0.375  -0.373  -0.369  -0.363  -0.362  -0.360  -0.359
 -0.358  -0.354  -0.352  -0.350  -0.347  -0.344  -0.342  -0.342
 -0.340  -0.338  -0.335  -0.333  -0.328  -0.322  -0.317  -0.316
 -0.315  -0.310  -0.308  -0.306  -0.305  -0.304  -0.298  -0.297
 -0.294  -0.290  -0.288  -0.287  -0.287  -0.278  -0.278  -0.275
 -0.271  -0.271  -0.269  -0.262  -0.255  -0.252  -0.247  -0.244
 -0.242  -0.239  -0.232  -0.228  -0.195  -0.193

          Ground-State Mulliken Net Atomic Charges

     Atom                 Charge (a.u.)
  ----------------------------------------
      1 C                     0.273824
      2 C                    -0.112273
      3 N                    -0.463082
      4 C                    -0.097363
      5 C                     0.093353
      6 C                     0.054958
      7 C                     0.025991
      8 C                     0.054381
      9 C                     0.193059
     10 N                    -0.492648
     11 N                    -0.518480
     12 C                     0.185646
     13 C                     0.261477
     14 S                     0.601893
     15 N                    -0.531748
     16 C                    -0.194327
     17 S                     0.316682
     18 C                    -0.121497
     19 C                    -0.224764
     20 S                     0.266459
     21 C                     0.145346
     22 C                     0.072457
     23 C                    -0.299084
     24 C                    -0.049474
     25 N                    -0.455519
     26 S                     0.250994
     27 C                     0.161164
     28 C                    -0.315482
     29 C                    -0.231660
     30 H                     0.094588
     31 H                     0.098076
     32 H                     0.102754
     33 H                     0.111667
     34 H                     0.128600
     35 H                     0.127786
     36 H                     0.114650
     37 H                     0.120606
     38 H                     0.089282
     39 C                    -0.174064
     40 H                     0.117413
     41 H                     0.091476
     42 H                     0.116667
     43 C                    -0.174682
     44 H                     0.081926
     45 C                    -0.177709
     46 H                     0.114582
     47 H                     0.080108
     48 H                     0.088424
     49 C                    -0.183892
     50 H                     0.096740
     51 C                    -0.328362
     52 H                     0.094346
     53 H                     0.110739
     54 H                     0.097282
     55 H                     0.111360
     56 C                     0.273921
     57 C                    -0.126764
     58 N                    -0.480726
     59 C                    -0.094951
     60 C                     0.063490
     61 C                     0.062290
     62 C                     0.034709
     63 C                     0.069159
     64 C                     0.244795
     65 N                    -0.538073
     66 N                    -0.538264
     67 C                     0.193027
     68 C                     0.316617
     69 S                     0.614492
     70 N                    -0.553874
     71 C                    -0.234816
     72 S                     0.358806
     73 C                    -0.129991
     74 C                    -0.249890
     75 S                     0.296905
     76 C                     0.172595
     77 C                     0.053077
     78 C                    -0.303052
     79 C                    -0.084727
     80 N                    -0.428204
     81 S                     0.289260
     82 C                     0.107369
     83 C                    -0.307210
     84 C                    -0.218145
     85 H                     0.090355
     86 H                     0.088878
     87 H                     0.120252
     88 H                     0.103165
     89 H                     0.128586
     90 H                     0.107743
     91 H                     0.117735
     92 H                     0.133432
     93 H                     0.113756
     94 C                    -0.183400
     95 H                     0.094390
     96 H                     0.109700
     97 H                     0.113857
     98 C                    -0.188991
     99 H                     0.095413
    100 C                    -0.182524
    101 H                     0.087208
    102 H                     0.094464
    103 H                     0.113160
    104 C                    -0.193833
    105 H                     0.090683
    106 C                    -0.325246
    107 H                     0.088358
    108 H                     0.115682
    109 H                     0.108583
    110 H                     0.096123
  ----------------------------------------
  Sum of atomic charges =     0.000000

                    Cartesian Multipole Moments
 -----------------------------------------------------------------
    Charge (ESU x 10^10)
                 0.0000
    Dipole Moment (Debye)
         X       1.8345      Y       2.1382      Z       0.4131
       Tot       2.8474
    Quadrupole Moments (Debye-Ang)
        XX    -401.0812     XY       9.8846     YY    -429.6583
        XZ       4.0048     YZ       5.7191     ZZ    -429.0025

 Total job time:  98.27s(wall), 1090.18s(cpu)
        *  Thank you very much for using Q-Chem.  Have a nice day.  *
