 Q-Chem 4.4, Q-Chem, Inc., Pleasanton, CA (2016)
 Q-Chem 4.4.2 for Intel X86 Linux

User input:
--------------------------------------------------------------
$comment
SP
$end

$rem
MEM_STATIC 5000
MEM_TOTAL 20000
JOBTYPE SP
EXCHANGE B3LYP
BASIS 6-31g(d,p)
$end

$molecule
0 1
C           8.643000     18.493000     -6.994000
C           7.331000     18.106000     -6.943000
N           9.607000     17.570000     -6.936000
C           6.987000     16.849000     -6.563000
C           9.333000     16.266000     -6.707000
C           7.968000     15.816000     -6.454000
C           7.544000     14.406000     -6.205000
C           6.416000     14.161000     -5.473000
C           8.211000     13.240000     -6.709000
N           5.828000     12.961000     -5.267000
N           9.352000     13.250000     -7.466000
C           7.649000     11.981000     -6.509000
C           6.455000     11.864000     -5.737000
S           9.617000     11.699000     -7.782000
N           8.353000     11.019000     -7.152000
C           5.748000     10.613000     -5.444000
S           6.288000      8.973000     -5.848000
C           4.439000     10.508000     -4.812000
C           4.932000      8.230000     -4.956000
S           3.181000     11.713000     -4.381000
C           4.037000      9.192000     -4.649000
C           4.673000      6.870000     -4.717000
C           2.038000     10.409000     -4.145000
C           2.688000      9.181000     -4.288000
N           5.346000      6.058000     -5.483000
S           3.604000      6.116000     -3.644000
C           4.946000      4.701000     -5.269000
C           4.121000      4.540000     -4.194000
C           9.065000     19.878000     -7.183000
H           6.524000     18.804000     -7.148000
H           5.939000     16.585000     -6.452000
H          10.142000     15.553000     -6.559000
H           5.855000     14.927000     -4.940000
H           0.999000     10.605000     -3.917000
H           2.273000      8.191000     -4.134000
H           5.442000      3.970000     -5.893000
H           3.705000      3.607000     -3.837000
H           9.971000     19.931000     -7.800000
C           9.387000     20.601000     -5.870000
H           8.260000     20.419000     -7.696000
H          10.038000     19.963000     -5.259000
H           8.477000     20.789000     -5.286000
C           9.972000     22.066000     -6.196000
H          10.984000     22.008000     -6.617000
C           9.875000     23.090000     -5.055000
H           9.325000     22.437000     -7.000000
H          10.485000     22.611000     -4.279000
H           8.835000     23.152000     -4.714000
C          10.413000     24.502000     -5.327000
H          11.464000     24.448000     -5.637000
C          10.090000     25.453000     -4.232000
H           9.855000     24.915000     -6.176000
H          10.348000     25.117000     -3.220000
H           9.118000     25.897000     -3.984000
H          10.628000     26.405000     -4.315000
C           4.495000     12.857000     -0.653000
C           5.222000     14.008000     -0.309000
N           5.019000     11.941000     -1.495000
C           6.491000     14.271000     -0.995000
C           6.200000     12.184000     -2.095000
C           7.012000     13.310000     -1.932000
C           8.323000     13.531000     -2.697000
C           8.848000     14.819000     -2.801000
C           9.094000     12.486000     -3.208000
N           9.960000     15.063000     -3.554000
N           8.788000     11.153000     -3.231000
C          10.217000     12.756000     -3.960000
C          10.684000     14.048000     -4.121000
S           9.999000     10.402000     -3.967000
N          10.915000     11.706000     -4.363000
C          11.889000     14.579000     -4.880000
S          13.091000     13.586000     -5.614000
C          12.288000     15.940000     -4.985000
C          14.114000     14.970000     -6.018000
S          11.538000     17.424000     -4.383000
C          13.543000     16.130000     -5.619000
C          15.493000     14.914000     -6.567000
C          12.822000     18.279000     -5.131000
C          13.811000     17.523000     -5.697000
N          15.997000     13.697000     -6.735000
S          16.714000     16.161000     -6.727000
C          17.331000     13.729000     -7.090000
C          17.768000     15.011000     -7.289000
C           3.384000     12.358000      0.317000
H           4.824000     14.654000      0.467000
H           7.031000     15.185000     -0.769000
H           6.446000     11.416000     -2.828000
H           8.411000     15.723000     -2.382000
H          12.801000     19.358000     -5.056000
H          14.713000     17.941000     -6.128000
H          17.847000     12.805000     -7.317000
H          18.779000     15.303000     -7.539000
H           3.512000     11.332000      0.684000
C           2.016000     12.458000     -0.420000
H           3.290000     13.008000      1.195000
H           1.874000     11.821000     -1.302000
H           2.039000     13.501000     -0.759000
C           0.900000     12.262000      0.604000
H           0.823000     11.174000      0.719000
C          -0.408000     12.895000     -0.061000
H           1.004000     12.782000      1.564000
H          -0.689000     12.202000     -0.864000
H          -0.259000     13.913000     -0.441000
C          -1.637000     13.008000      0.941000
H          -1.859000     11.976000      1.240000
C          -2.912000     13.512000      0.239000
H          -1.284000     13.520000      1.845000
H          -3.413000     12.637000     -0.191000
H          -2.723000     14.321000     -0.478000
H          -3.599000     13.960000      0.967000
$end

--------------------------------------------------------------

             Standard Nuclear Orientation (Angstroms)
    I     Atom           X                Y                Z
 ----------------------------------------------------------------
    1      C       4.0327796783     2.7191749286    -2.4724418944
    2      C       2.8004641654     3.1432463371    -2.8911015618
    3      N       4.1703238023     1.4943270461    -1.9572542793
    4      C       1.6746460852     2.4660056251    -2.5495409255
    5      C       3.1050491266     0.6954970014    -1.7227475096
    6      C       1.7445264134     1.1619064024    -1.9700817318
    7      C       0.4967984176     0.3677368465    -1.7642989213
    8      C      -0.6780159039     1.0149337584    -1.5012771215
    9      C       0.4007683591    -1.0609079266    -1.8549264007
   10      N      -1.9083244845     0.4602076348    -1.4188166801
   11      N       1.4465675603    -1.9064607163    -2.1125589118
   12      C      -0.8449965775    -1.6776598072    -1.7621263982
   13      C      -2.0000953290    -0.8823093239    -1.5004520151
   14      S       0.7662523925    -3.3596237654    -2.1467703898
   15      N      -0.7533593570    -3.0102559084    -1.9864013431
   16      C      -3.3722580366    -1.3853621616    -1.3787706843
   17      S      -3.8801298978    -3.0843271101    -1.3792963750
   18      C      -4.5714927547    -0.5619199750    -1.2909694523
   19      C      -5.5718851735    -2.6528364817    -1.0075048677
   20      S      -4.8754124380     1.1945054340    -1.4982195632
   21      C      -5.7236401618    -1.3213417423    -1.1650173518
   22      C      -6.6629315777    -3.5004150558    -0.7524944670
   23      C      -6.5922737970     0.8684235904    -1.5910565464
   24      C      -6.8281157886    -0.4871316582    -1.3506786712
   25      N      -6.4717125944    -4.7373372167    -1.1164832968
   26      S      -8.1914012525    -3.1766194252    -0.1032311593
   27      C      -7.6601986279    -5.5139975912    -0.9388752707
   28      C      -8.6410706198    -4.8585651705    -0.2529674944
   29      C       5.2488270342     3.5135680622    -2.6214330940
   30      H       2.6777922478     4.0616172141    -3.4585736164
   31      H       0.7008232497     2.8618498525    -2.8239447025
   32      H       3.2340007550    -0.2534047999    -1.2053396927
   33      H      -0.7564790790     2.0827941126    -1.3035809049
   34      H      -7.3045522490     1.6550602906    -1.8003006831
   35      H      -7.7867709319    -0.9877024608    -1.2703656103
   36      H      -7.5863620805    -6.5476344035    -1.2485462322
   37      H      -9.6153049007    -5.2509233662     0.0076406640
   38      H       6.1109328237     2.8724072774    -2.8450856274
   39      C       5.6121618752     4.3123506446    -1.3643268219
   40      H       5.1066753758     4.2124177745    -3.4552658024
   41      H       5.5552156396     3.6516223525    -0.4900492629
   42      H       4.9037796524     5.1336360657    -1.1964432806
   43      C       7.0331572215     5.0383386346    -1.5844169494
   44      H       7.8578428659     4.3140606904    -1.5764139831
   45      C       7.3110796348     6.2455898479    -0.6760284641
   46      H       6.9759867577     5.4283274049    -2.6077967895
   47      H       7.2808851323     5.7825763516     0.3181665843
   48      H       6.4876156761     6.9632661296    -0.7686182233
   49      C       8.6509554701     6.9724342306    -0.8593369176
   50      H       9.4799463430     6.2646935709    -0.7348608504
   51      C       8.7261841166     8.2307415162    -0.0727249258
   52      H       8.6973155317     7.3330319870    -1.8940127136
   53      H       8.4628225661     8.1434436231     0.9887004232
   54      H       8.2119932945     9.1810111618    -0.2625126997
   55      H       9.7359139559     8.6571162729    -0.0368470998
   56      C      -4.1051922284     2.5362248793     2.3148980273
   57      C      -2.9365476174     3.1485162678     2.7955590605
   58      N      -4.0708120255     1.2751181881     1.8342485552
   59      C      -1.6565157656     2.4533355823     2.6271302244
   60      C      -2.8900920745     0.6387244389     1.7129497783
   61      C      -1.6287368180     1.1291532461     2.0625946007
   62      C      -0.3237431700     0.3538496917     1.8419524080
   63      C       0.8885987270     1.0431523813     1.8201825437
   64      C      -0.2656720323    -1.0387866654     1.7728241220
   65      N       2.0560010733     0.3973054947     1.5318380257
   66      N      -1.3107192827    -1.9213349708     1.7666005361
   67      C       0.9257407963    -1.6699726222     1.4870396579
   68      C       2.1112072943    -0.9638710669     1.3902730535
   69      S      -0.6869436667    -3.3926135031     1.6307275772
   70      N       0.8995498289    -2.9933852351     1.4895072581
   71      C       3.5265874087    -1.4377931736     1.1036304739
   72      S       3.9939328023    -3.0925818353     0.9901766578
   73      C       4.6899578772    -0.6235573911     1.0252962968
   74      C       5.7117382255    -2.6913024356     0.8747627435
   75      S       4.8958580863     1.1288834189     1.1424129542
   76      C       5.9017097520    -1.3519939710     0.9064748211
   77      C       6.8436216872    -3.6525725305     0.9060298782
   78      C       6.5673739486     0.8686534912     0.8640245440
   79      C       6.9801975774    -0.4334284326     0.7994310822
   80      N       6.5115333972    -4.9282539101     1.0662902455
   81      S       8.5649598908    -3.3896026793     1.1042510836
   82      C       7.6162622386    -5.7360734384     1.2496118119
   83      C       8.7824832352    -5.0333585800     1.1074344051
   84      C      -5.4824911785     3.0498797195     2.8281507011
   85      H      -3.0269243325     4.1099860303     3.2908407430
   86      H      -0.7447901519     2.9450784279     2.9511940749
   87      H      -2.9991915039    -0.3223427902     1.2108779749
   88      H       1.0160164467     2.1161806276     1.9471514667
   89      H       7.1984734786     1.7460740078     0.8176174304
   90      H       8.0185661783    -0.7294878119     0.7087200440
   91      H       7.4883246368    -6.8077700573     1.3312165125
   92      H       9.7801195345    -5.4305413757     1.2372521275
   93      H      -6.1097083481     2.2934176336     3.3161186659
   94      C      -6.2624282484     3.6394840944     1.6162687563
   95      H      -5.3681723311     3.8815872357     3.5334263981
   96      H      -6.5442347334     2.9444812926     0.8153859868
   97      H      -5.5187005196     4.3361665205     1.2103110462
   98      C      -7.4699427154     4.4092937268     2.1470699826
   99      H      -8.2266533396     3.6370207429     2.3311391802
  100      C      -7.8941090345     5.4050883665     0.9713770085
  101      H      -7.3078934852     5.0577607030     3.0165794004
  102      H      -8.3338395580     4.7661951360     0.1951866281
  103      H      -7.0614753257     6.0012602982     0.5786619276
  104      C      -8.9901952667     6.4705782035     1.4078863202
  105      H      -9.8661114822     5.8778030824     1.6996009739
  106      C      -9.4601106220     7.3362413197     0.2237191327
  107      H      -8.6330828296     6.9605399766     2.3224229067
  108      H     -10.2684037025     6.7903750089    -0.2764990864
  109      H      -8.6434609310     7.6426800593    -0.4422159851
  110      H      -9.8768718999     8.2846329489     0.5836084976
 ----------------------------------------------------------------

   10   -5663.4862532387      3.26E-06 Convergence criterion met
 Total energy in the final basis set = -5663.4862532387

                    Orbital Energies (a.u.)
 --------------------------------------------------------------

 Alpha MOs
 -- Occupied --
-88.988 -88.987 -88.926 -88.925 -88.924 -88.919 -88.906 -88.904
-14.380 -14.380 -14.378 -14.375 -14.345 -14.343 -14.335 -14.333
-14.319 -14.318 -10.264 -10.261 -10.259 -10.258 -10.253 -10.253
-10.252 -10.247 -10.242 -10.239 -10.239 -10.235 -10.233 -10.230
-10.229 -10.229 -10.228 -10.226 -10.226 -10.225 -10.224 -10.223
-10.220 -10.220 -10.218 -10.217 -10.216 -10.216 -10.215 -10.212
-10.211 -10.201 -10.200 -10.200 -10.195 -10.194 -10.194 -10.186
-10.185 -10.183 -10.183 -10.182 -10.179 -10.179 -10.178 -10.178
-10.178 -10.174 -10.174 -10.171  -8.043  -8.043  -7.988  -7.988
 -7.981  -7.978  -7.965  -7.963  -6.008  -6.008  -6.002  -6.002
 -6.001  -6.001  -5.952  -5.952  -5.948  -5.948  -5.946  -5.945
 -5.945  -5.942  -5.942  -5.938  -5.938  -5.935  -5.930  -5.927
 -5.926  -5.924  -5.921  -5.919  -1.049  -1.043  -0.968  -0.965
 -0.955  -0.949  -0.932  -0.925  -0.908  -0.907  -0.903  -0.902
 -0.844  -0.839  -0.829  -0.828  -0.813  -0.808  -0.806  -0.804
 -0.803  -0.799  -0.794  -0.789  -0.785  -0.772  -0.771  -0.761
 -0.749  -0.745  -0.740  -0.739  -0.718  -0.717  -0.711  -0.703
 -0.694  -0.690  -0.674  -0.673  -0.652  -0.648  -0.644  -0.643
 -0.633  -0.628  -0.618  -0.618  -0.609  -0.601  -0.601  -0.593
 -0.593  -0.586  -0.583  -0.576  -0.574  -0.573  -0.572  -0.569
 -0.542  -0.540  -0.539  -0.537  -0.523  -0.517  -0.516  -0.515
 -0.505  -0.503  -0.495  -0.494  -0.489  -0.483  -0.480  -0.478
 -0.476  -0.470  -0.467  -0.465  -0.463  -0.461  -0.448  -0.447
 -0.443  -0.441  -0.439  -0.435  -0.432  -0.429  -0.428  -0.427
 -0.426  -0.423  -0.422  -0.418  -0.415  -0.413  -0.412  -0.410
 -0.407  -0.406  -0.400  -0.400  -0.398  -0.398  -0.396  -0.396
 -0.393  -0.389  -0.389  -0.385  -0.384  -0.382  -0.381  -0.379
 -0.374  -0.373  -0.368  -0.365  -0.364  -0.360  -0.356  -0.355
 -0.351  -0.350  -0.347  -0.347  -0.343  -0.341  -0.340  -0.339
 -0.337  -0.334  -0.332  -0.331  -0.329  -0.326  -0.323  -0.321
 -0.315  -0.311  -0.309  -0.307  -0.305  -0.303  -0.301  -0.297
 -0.295  -0.289  -0.286  -0.282  -0.279  -0.276  -0.274  -0.273
 -0.271  -0.268  -0.266  -0.259  -0.254  -0.249  -0.244  -0.240
 -0.237  -0.232  -0.226  -0.225  -0.189  -0.187

          Ground-State Mulliken Net Atomic Charges

     Atom                 Charge (a.u.)
  ----------------------------------------
      1 C                     0.288617
      2 C                    -0.120970
      3 N                    -0.494769
      4 C                    -0.071750
      5 C                     0.108234
      6 C                     0.012670
      7 C                     0.074896
      8 C                     0.026934
      9 C                     0.194077
     10 N                    -0.529058
     11 N                    -0.551083
     12 C                     0.202179
     13 C                     0.324695
     14 S                     0.630207
     15 N                    -0.553625
     16 C                    -0.252445
     17 S                     0.349618
     18 C                    -0.129441
     19 C                    -0.186183
     20 S                     0.303990
     21 C                     0.171434
     22 C                     0.050852
     23 C                    -0.319882
     24 C                    -0.074345
     25 N                    -0.438840
     26 S                     0.276943
     27 C                     0.105679
     28 C                    -0.303781
     29 C                    -0.219731
     30 H                     0.081478
     31 H                     0.094251
     32 H                     0.129378
     33 H                     0.111192
     34 H                     0.136383
     35 H                     0.083578
     36 H                     0.118239
     37 H                     0.137995
     38 H                     0.119552
     39 C                    -0.186657
     40 H                     0.093531
     41 H                     0.110421
     42 H                     0.093055
     43 C                    -0.187787
     44 H                     0.090413
     45 C                    -0.171415
     46 H                     0.090975
     47 H                     0.090669
     48 H                     0.091376
     49 C                    -0.165814
     50 H                     0.099145
     51 C                    -0.330446
     52 H                     0.097673
     53 H                     0.097717
     54 H                     0.105891
     55 H                     0.096726
     56 C                     0.268307
     57 C                    -0.132042
     58 N                    -0.475956
     59 C                    -0.105919
     60 C                     0.077277
     61 C                     0.061781
     62 C                     0.033853
     63 C                     0.058119
     64 C                     0.244522
     65 N                    -0.532847
     66 N                    -0.541566
     67 C                     0.191018
     68 C                     0.314948
     69 S                     0.627556
     70 N                    -0.569788
     71 C                    -0.245242
     72 S                     0.349757
     73 C                    -0.133127
     74 C                    -0.247726
     75 S                     0.320227
     76 C                     0.173912
     77 C                     0.053464
     78 C                    -0.295891
     79 C                    -0.085299
     80 N                    -0.428994
     81 S                     0.289851
     82 C                     0.107114
     83 C                    -0.307282
     84 C                    -0.215537
     85 H                     0.088915
     86 H                     0.094178
     87 H                     0.130058
     88 H                     0.118166
     89 H                     0.123800
     90 H                     0.104861
     91 H                     0.116951
     92 H                     0.132711
     93 H                     0.115611
     94 C                    -0.176320
     95 H                     0.094023
     96 H                     0.114728
     97 H                     0.091011
     98 C                    -0.186586
     99 H                     0.098638
    100 C                    -0.174042
    101 H                     0.090119
    102 H                     0.086568
    103 H                     0.092383
    104 C                    -0.188169
    105 H                     0.092478
    106 C                    -0.317367
    107 H                     0.089838
    108 H                     0.107876
    109 H                     0.101655
    110 H                     0.100778
  ----------------------------------------
  Sum of atomic charges =     0.000000

                    Cartesian Multipole Moments
 -----------------------------------------------------------------
    Charge (ESU x 10^10)
                 0.0000
    Dipole Moment (Debye)
         X      -0.2715      Y       2.1328      Z       0.7481
       Tot       2.2764
    Quadrupole Moments (Debye-Ang)
        XX    -382.1116     XY       4.4991     YY    -410.1036
        XZ       0.3335     YZ      -3.4514     ZZ    -450.3217

 Total job time:  120.01s(wall), 1277.06s(cpu)
        *  Thank you very much for using Q-Chem.  Have a nice day.  *
