 Q-Chem 4.4, Q-Chem, Inc., Pleasanton, CA (2016)
 Q-Chem 4.4.2 for Intel X86 Linux

User input:
--------------------------------------------------------------
$comment
SP
$end

$rem
MEM_STATIC 5000
MEM_TOTAL 20000
JOBTYPE SP
EXCHANGE B3LYP
BASIS 6-31g(d,p)
$end

$molecule
0 1
C         -12.754000     22.362000    -13.246000
C         -12.860000     21.267000    -14.042000
N         -11.805000     22.513000    -12.307000
C         -11.918000     20.184000    -13.798000
C         -11.014000     21.435000    -12.019000
C         -11.046000     20.207000    -12.712000
C         -10.031000     19.124000    -12.488000
C          -8.867000     19.373000    -11.682000
C         -10.177000     17.813000    -13.012000
N          -7.979000     18.425000    -11.340000
N         -11.232000     17.366000    -13.678000
C          -9.211000     16.913000    -12.728000
C          -8.104000     17.206000    -11.886000
S         -10.837000     15.831000    -14.049000
N          -9.382000     15.688000    -13.328000
C          -7.028000     16.201000    -11.618000
S          -6.854000     14.678000    -12.614000
C          -5.809000     16.419000    -10.991000
C          -5.179000     14.329000    -12.017000
S          -5.359000     17.694000     -9.886000
C          -4.849000     15.374000    -11.302000
C          -4.519000     13.080000    -12.164000
C          -3.729000     16.868000     -9.940000
C          -3.679000     15.615000    -10.540000
N          -4.938000     12.352000    -13.214000
S          -3.290000     12.381000    -11.150000
C          -4.209000     11.177000    -13.312000
C          -3.348000     11.017000    -12.241000
C         -13.618000     23.575000    -13.439000
H         -13.727000     21.227000    -14.695000
H         -11.998000     19.397000    -14.543000
H         -10.439000     21.584000    -11.106000
H          -8.733000     20.299000    -11.126000
H          -2.990000     17.293000     -9.273000
H          -2.754000     15.051000    -10.569000
H          -4.260000     10.649000    -14.255000
H          -2.643000     10.202000    -12.147000
H         -13.141000     24.521000    -13.153000
C         -14.831000     23.466000    -12.494000
H         -13.891000     23.610000    -14.501000
H         -15.114000     24.485000    -12.202000
H         -14.573000     22.945000    -11.564000
C         -15.993000     22.781000    -13.260000
H         -16.149000     23.265000    -14.232000
C         -17.188000     22.825000    -12.261000
H         -15.728000     21.734000    -13.453000
H         -17.379000     23.856000    -11.936000
H         -16.851000     22.429000    -11.296000
C         -18.538000     22.048000    -12.560000
H         -18.872000     22.352000    -13.560000
C         -19.656000     22.339000    -11.589000
H         -18.357000     20.969000    -12.636000
H         -19.344000     22.054000    -10.577000
H         -20.575000     21.773000    -11.782000
H         -20.001000     23.381000    -11.610000
C         -14.278000     11.064000    -14.825000
C         -14.054000     12.354000    -14.264000
N         -13.391000     10.024000    -14.546000
C         -12.955000     12.542000    -13.319000
C         -12.381000     10.233000    -13.748000
C         -12.129000     11.444000    -13.079000
C         -10.931000     11.680000    -12.219000
C         -10.976000     12.545000    -11.127000
C          -9.666000     11.168000    -12.549000
N          -9.896000     12.915000    -10.422000
N          -9.405000     10.398000    -13.578000
C          -8.566000     11.484000    -11.750000
C          -8.702000     12.373000    -10.642000
S          -7.780000     10.012000    -13.443000
N          -7.442000     10.844000    -12.032000
C          -7.654000     12.623000     -9.680000
S          -6.153000     11.662000     -9.515000
C          -7.660000     13.602000     -8.703000
C          -5.545000     12.726000     -8.205000
S          -8.734000     14.964000     -8.575000
C          -6.467000     13.753000     -8.018000
C          -4.228000     12.803000     -7.693000
C          -7.544000     15.747000     -7.487000
C          -6.500000     14.907000     -7.282000
N          -3.598000     13.912000     -7.732000
S          -3.426000     11.406000     -7.055000
C          -2.309000     13.766000     -7.266000
C          -2.033000     12.470000     -6.929000
C         -15.520000     10.714000    -15.590000
H         -14.676000     13.204000    -14.528000
H         -12.856000     13.545000    -12.916000
H         -11.731000      9.383000    -13.547000
H         -11.886000     13.012000    -10.755000
H          -7.610000     16.775000     -7.156000
H          -5.722000     15.308000     -6.642000
H          -1.671000     14.640000     -7.258000
H          -1.085000     12.088000     -6.572000
H         -16.223000     10.190000    -14.930000
C         -15.198000      9.874000    -16.838000
H         -16.025000     11.645000    -15.876000
H         -14.618000      8.980000    -16.576000
H         -14.601000     10.477000    -17.533000
C         -16.497000      9.384000    -17.502000
H         -17.085000      8.895000    -16.715000
C         -16.053000      8.360000    -18.566000
H         -17.050000     10.250000    -17.886000
H         -15.764000      7.442000    -18.040000
H         -15.133000      8.692000    -19.063000
C         -17.095000      8.164000    -19.698000
H         -17.555000      9.121000    -19.972000
C         -18.166000      7.135000    -19.301000
H         -16.562000      7.743000    -20.559000
H         -18.857000      6.985000    -20.140000
H         -18.687000      7.579000    -18.444000
H         -17.604000      6.226000    -19.053000
$end

--------------------------------------------------------------

             Standard Nuclear Orientation (Angstroms)
    I     Atom           X                Y                Z
 ----------------------------------------------------------------
    1      C      -5.8368555504    -5.9589434288     1.2821926264
    2      C      -5.8818211323    -4.6517498715     1.6470214909
    3      N      -4.7025755863    -6.6082940401     0.9709439370
    4      C      -4.6226040879    -3.9211138737     1.6287876212
    5      C      -3.5579221244    -5.8702986935     0.8450856018
    6      C      -3.4556960100    -4.4919308541     1.1259929190
    7      C      -2.1413854910    -3.7675211050     1.1592851871
    8      C      -0.9056273093    -4.4983097862     1.0859188470
    9      C      -2.0444847955    -2.3529033462     1.2231589050
   10      N       0.3013027005    -3.9164719592     0.9910679403
   11      N      -3.0673171979    -1.5111560084     1.1823508651
   12      C      -0.8085910590    -1.8085032080     1.2258350303
   13      C       0.3777654157    -2.5820118963     1.1053998859
   14      S      -2.3718049328    -0.0457632245     1.3193825326
   15      N      -0.7908451762    -0.4407307115     1.3627637756
   16      C       1.7363743098    -1.9559729710     1.1487834863
   17      S       1.9940422949    -0.2367287578     1.7141396084
   18      C       2.9598535497    -2.6042613234     1.2459161882
   19      C       3.7832790002    -0.4390684819     1.9179180385
   20      S       3.3629674130    -4.2502169917     0.8246334433
   21      C       4.0059292800    -1.7125649326     1.7159684335
   22      C       4.7012461885     0.6355569579     2.0583687601
   23      C       5.0150677535    -3.7741685897     1.4459500967
   24      C       5.2323150145    -2.4213459772     1.6808620092
   25      N       4.1681639591     1.7554857544     2.5776257559
   26      S       6.3827286088     0.6857869202     1.6141482955
   27      C       5.1405721108     2.7321382294     2.7267643810
   28      C       6.3517446834     2.3362000071     2.1880103337
   29      C      -7.0513329896    -6.8411721749     1.3249826845
   30      H      -6.8701533280    -4.2216593618     1.7808856918
   31      H      -4.7255842702    -2.9188671730     2.0358387642
   32      H      -2.7553117366    -6.4398247814     0.3783398460
   33      H      -0.8750374040    -5.5698641382     0.8977605939
   34      H       5.7732293115    -4.5381244704     1.3310698794
   35      H       6.2015137981    -2.0646083441     2.0094255175
   36      H       4.9010850723     3.5630755354     3.3770129120
   37      H       7.2610787913     2.9189035764     2.2484589108
   38      H      -6.8369864325    -7.8971237689     1.5329797631
   39      C      -7.6925509845    -6.8577950576    -0.0767441658
   40      H      -7.7117545166    -6.4420210426     2.1048030358
   41      H      -8.1543511783    -7.8431741211    -0.2163245449
   42      H      -6.9382452529    -6.7620538438    -0.8671627152
   43      C      -8.7690346336    -5.7427099148    -0.1399349669
   44      H      -9.4397899492    -5.8082462939     0.7256101155
   45      C      -9.4235209845    -5.9220352313    -1.5425938874
   46      H      -8.2750451617    -4.7639238094    -0.0994978341
   47      H      -9.7971138254    -6.9471281123    -1.6637548318
   48      H      -8.6282210963    -5.9677534640    -2.2955998176
   49      C     -10.4500223452    -4.8558040421    -2.1127482592
   50      H     -11.2264210201    -4.7138820263    -1.3504915839
   51      C     -11.1295115133    -5.2652676568    -3.3965239478
   52      H      -9.9723837387    -3.8742914930    -2.2189201838
   53      H     -10.3735754372    -5.4248446435    -4.1748611718
   54      H     -11.8121165548    -4.5093026327    -3.8023973758
   55      H     -11.7741827978    -6.1480039900    -3.2945165910
   56      C      -4.0863469747     5.2270695335    -0.7840732652
   57      C      -4.0947971323     3.8040738176    -0.8473882513
   58      N      -2.8748727797     5.9158923204    -0.8478184054
   59      C      -2.8410062992     3.0911694121    -1.0839170141
   60      C      -1.7618738889     5.2528549709    -0.9968148557
   61      C      -1.6783941792     3.8582654568    -1.1572431118
   62      C      -0.3880702655     3.1137558186    -1.2634014665
   63      C      -0.2829504407     1.9385665615    -2.0054217039
   64      C       0.7398011642     3.4684846389    -0.5062076327
   65      N       0.8016880062     1.1487040307    -2.0041482017
   66      N       0.8143759378     4.4944702107     0.3072136663
   67      C       1.8958820060     2.6906411060    -0.5880216019
   68      C       1.9210286523     1.5044538915    -1.3809960897
   69      S       2.3925525899     4.5009438352     0.8703855291
   70      N       2.9626688715     3.1711763051     0.0312939122
   71      C       3.1173216783     0.7380722207    -1.6413614688
   72      S       4.7875903027     1.2827728762    -1.2989422546
   73      C       3.1741059859    -0.5073436092    -2.2402946479
   74      C       5.4754042218    -0.2726459909    -1.8694193889
   75      S       1.8552936001    -1.6025574747    -2.5337984462
   76      C       4.4196043454    -1.1103529582    -2.2205826812
   77      C       6.7844040899    -0.7686235220    -1.6618437792
   78      C       3.0494672582    -2.9280085514    -2.7071815991
   79      C       4.3022340816    -2.4244931057    -2.5863160459
   80      N       6.9508341035    -1.8852242910    -1.0670280319
   81      S       8.1787914785     0.1337081286    -2.1551372039
   82      C       8.2903975442    -2.1554717013    -0.8866697063
   83      C       9.0814716688    -1.1409980477    -1.3497095920
   84      C      -5.3404363940     6.0499000060    -0.8064057986
   85      H      -5.0102719212     3.2350990183    -0.7160353349
   86      H      -2.9252611115     2.0104710117    -1.1405835290
   87      H      -0.8468281002     5.8392943561    -1.0614759120
   88      H      -1.0739817544     1.5447737390    -2.6408504360
   89      H       2.7868728297    -3.9754583274    -2.7749616322
   90      H       5.0912859609    -3.1639570682    -2.6655320794
   91      H       8.5585518744    -3.0753394197    -0.3837575511
   92      H      10.1616420011    -1.0935471463    -1.2944152423
   93      H      -5.5182392332     6.4217025515    -1.8235262524
   94      C      -5.2758604857     7.2073287061     0.2050173355
   95      H      -6.1900665769     5.3932091904    -0.5817555705
   96      H      -4.3830200521     7.8249998686     0.0450226634
   97      H      -5.2287350676     6.7952470471     1.2204044052
   98      C      -6.4941106316     8.1325084254     0.0367732599
   99      H      -6.5347509837     8.4055969026    -1.0253025592
  100      C      -6.1928222426     9.3699087673     0.9061832326
  101      H      -7.4021159297     7.5792803654     0.3063768433
  102      H      -5.4399778100     9.9682437482     0.3787920011
  103      H      -5.7020459898     9.0754927090     1.8421804838
  104      C      -7.4677754936    10.1467678006     1.3264072801
  105      H      -8.2824291674     9.4537148395     1.5683617901
  106      C      -7.9006544122    11.1426651351     0.2381539360
  107      H      -7.2070510143    10.7431384255     2.2090260107
  108      H      -8.7740328445    11.7078513308     0.5869757789
  109      H      -8.1600889519    10.5244775902    -0.6299266357
  110      H      -7.0238918887    11.7823920487     0.0779479639
 ----------------------------------------------------------------

   10   -5663.4927597928      3.76E-06 Convergence criterion met
 Total energy in the final basis set = -5663.4927597928

                    Orbital Energies (a.u.)
 --------------------------------------------------------------

 Alpha MOs
 -- Occupied --
-88.990 -88.976 -88.933 -88.927 -88.923 -88.909 -88.904 -88.899
-14.391 -14.383 -14.382 -14.375 -14.347 -14.339 -14.339 -14.338
-14.326 -14.325 -10.264 -10.262 -10.261 -10.253 -10.251 -10.250
-10.244 -10.244 -10.240 -10.236 -10.235 -10.232 -10.232 -10.232
-10.232 -10.232 -10.230 -10.229 -10.229 -10.228 -10.227 -10.225
-10.222 -10.220 -10.219 -10.216 -10.216 -10.215 -10.215 -10.214
-10.210 -10.210 -10.204 -10.200 -10.199 -10.199 -10.194 -10.185
-10.183 -10.183 -10.179 -10.178 -10.178 -10.176 -10.173 -10.172
-10.172 -10.172 -10.171 -10.168  -8.046  -8.031  -7.992  -7.989
 -7.980  -7.968  -7.962  -7.959  -6.011  -6.005  -6.004  -5.996
 -5.991  -5.988  -5.956  -5.953  -5.953  -5.950  -5.950  -5.946
 -5.945  -5.941  -5.937  -5.932  -5.929  -5.926  -5.924  -5.923
 -5.922  -5.919  -5.918  -5.915  -1.048  -1.030  -0.984  -0.960
 -0.957  -0.956  -0.933  -0.933  -0.911  -0.911  -0.904  -0.899
 -0.839  -0.833  -0.829  -0.826  -0.810  -0.809  -0.806  -0.806
 -0.803  -0.802  -0.793  -0.792  -0.781  -0.780  -0.765  -0.763
 -0.748  -0.748  -0.742  -0.738  -0.721  -0.709  -0.707  -0.701
 -0.692  -0.690  -0.675  -0.671  -0.652  -0.650  -0.646  -0.640
 -0.632  -0.631  -0.626  -0.620  -0.610  -0.609  -0.600  -0.599
 -0.593  -0.590  -0.578  -0.578  -0.574  -0.574  -0.573  -0.563
 -0.548  -0.547  -0.537  -0.535  -0.522  -0.520  -0.517  -0.511
 -0.505  -0.503  -0.497  -0.496  -0.484  -0.481  -0.478  -0.475
 -0.471  -0.470  -0.465  -0.464  -0.457  -0.457  -0.447  -0.447
 -0.445  -0.441  -0.440  -0.438  -0.437  -0.431  -0.430  -0.427
 -0.423  -0.422  -0.422  -0.420  -0.416  -0.413  -0.413  -0.410
 -0.409  -0.406  -0.405  -0.402  -0.398  -0.396  -0.393  -0.393
 -0.392  -0.389  -0.388  -0.387  -0.385  -0.383  -0.380  -0.379
 -0.378  -0.377  -0.373  -0.372  -0.370  -0.359  -0.358  -0.354
 -0.353  -0.351  -0.349  -0.348  -0.345  -0.343  -0.341  -0.337
 -0.333  -0.331  -0.331  -0.328  -0.327  -0.326  -0.322  -0.319
 -0.312  -0.309  -0.306  -0.305  -0.302  -0.300  -0.297  -0.294
 -0.294  -0.291  -0.287  -0.286  -0.284  -0.280  -0.280  -0.277
 -0.271  -0.265  -0.263  -0.261  -0.255  -0.252  -0.251  -0.244
 -0.239  -0.234  -0.228  -0.223  -0.194  -0.189

          Ground-State Mulliken Net Atomic Charges

     Atom                 Charge (a.u.)
  ----------------------------------------
      1 C                     0.285534
      2 C                    -0.121874
      3 N                    -0.485593
      4 C                    -0.095741
      5 C                     0.049999
      6 C                     0.065446
      7 C                     0.027765
      8 C                     0.054081
      9 C                     0.271846
     10 N                    -0.529661
     11 N                    -0.567560
     12 C                     0.188649
     13 C                     0.322975
     14 S                     0.599619
     15 N                    -0.544413
     16 C                    -0.234053
     17 S                     0.313770
     18 C                    -0.092048
     19 C                    -0.203824
     20 S                     0.274041
     21 C                     0.139123
     22 C                     0.043739
     23 C                    -0.290684
     24 C                    -0.063679
     25 N                    -0.421140
     26 S                     0.298196
     27 C                     0.123485
     28 C                    -0.313663
     29 C                    -0.231146
     30 H                     0.092822
     31 H                     0.122654
     32 H                     0.101956
     33 H                     0.112889
     34 H                     0.110541
     35 H                     0.109321
     36 H                     0.121617
     37 H                     0.124772
     38 H                     0.113054
     39 C                    -0.179837
     40 H                     0.092484
     41 H                     0.094815
     42 H                     0.114598
     43 C                    -0.176835
     44 H                     0.093972
     45 C                    -0.176851
     46 H                     0.096179
     47 H                     0.089769
     48 H                     0.090950
     49 C                    -0.180902
     50 H                     0.089258
     51 C                    -0.316691
     52 H                     0.091721
     53 H                     0.100899
     54 H                     0.098968
     55 H                     0.103611
     56 C                     0.267949
     57 C                    -0.141183
     58 N                    -0.486078
     59 C                    -0.080467
     60 C                     0.118321
     61 C                     0.030181
     62 C                     0.023194
     63 C                     0.041333
     64 C                     0.286623
     65 N                    -0.538870
     66 N                    -0.577422
     67 C                     0.219897
     68 C                     0.344666
     69 S                     0.572533
     70 N                    -0.574504
     71 C                    -0.193343
     72 S                     0.332875
     73 C                    -0.142407
     74 C                    -0.258652
     75 S                     0.267322
     76 C                     0.216908
     77 C                     0.056629
     78 C                    -0.300501
     79 C                    -0.063851
     80 N                    -0.407149
     81 S                     0.258390
     82 C                     0.114175
     83 C                    -0.308786
     84 C                    -0.227904
     85 H                     0.086494
     86 H                     0.105860
     87 H                     0.111210
     88 H                     0.112172
     89 H                     0.131900
     90 H                     0.103065
     91 H                     0.114476
     92 H                     0.124771
     93 H                     0.119425
     94 C                    -0.176578
     95 H                     0.093778
     96 H                     0.126350
     97 H                     0.093964
     98 C                    -0.173177
     99 H                     0.094397
    100 C                    -0.178734
    101 H                     0.087192
    102 H                     0.094165
    103 H                     0.091453
    104 C                    -0.184170
    105 H                     0.090118
    106 C                    -0.306384
    107 H                     0.085652
    108 H                     0.097364
    109 H                     0.103268
    110 H                     0.103163
  ----------------------------------------
  Sum of atomic charges =     0.000000

                    Cartesian Multipole Moments
 -----------------------------------------------------------------
    Charge (ESU x 10^10)
                 0.0000
    Dipole Moment (Debye)
         X       2.9456      Y       0.0338      Z       0.4146
       Tot       2.9748
    Quadrupole Moments (Debye-Ang)
        XX    -371.7397     XY      -1.8110     YY    -457.9983
        XZ       1.9936     YZ       9.6605     ZZ    -453.2383

 Total job time:  115.95s(wall), 1233.10s(cpu)
        *  Thank you very much for using Q-Chem.  Have a nice day.  *
