 Q-Chem 4.4, Q-Chem, Inc., Pleasanton, CA (2016)
 Q-Chem 4.4.2 for Intel X86 Linux

User input:
--------------------------------------------------------------
$comment
SP
$end

$rem
MEM_STATIC 5000
MEM_TOTAL 20000
JOBTYPE SP
EXCHANGE B3LYP
BASIS 6-31g(d,p)
$end

$molecule
0 1
C           3.880000     -4.066000     -8.879000
C           3.679000     -3.447000     -7.676000
N           3.242000     -3.724000     -9.966000
C           2.864000     -2.297000     -7.740000
C           2.448000     -2.594000    -10.033000
C           2.238000     -1.817000     -8.881000
C           1.373000     -0.564000     -8.985000
C           1.812000      0.541000     -8.264000
C           0.063000     -0.515000     -9.395000
N           1.216000      1.730000     -8.208000
N          -0.688000     -1.474000    -10.035000
C          -0.566000      0.733000     -9.417000
C          -0.034000      1.824000     -8.771000
S          -1.984000     -0.780000    -10.606000
N          -1.691000      0.786000    -10.085000
C          -0.734000      3.129000     -8.670000
S          -2.277000      3.600000     -9.430000
C          -0.194000      4.245000     -8.110000
C          -2.134000      5.282000     -8.849000
S           1.432000      4.453000     -7.432000
C          -0.930000      5.402000     -8.237000
C          -3.027000      6.407000     -9.218000
C           1.001000      6.175000     -7.223000
C          -0.247000      6.542000     -7.724000
N          -3.974000      6.105000    -10.128000
S          -2.914000      8.119000     -8.901000
C          -4.483000      7.237000    -10.747000
C          -4.087000      8.417000    -10.164000
C           4.815000     -5.309000     -9.017000
H           4.256000     -3.733000     -6.801000
H           2.760000     -1.703000     -6.836000
H           1.999000     -2.387000    -11.003000
H           2.821000      0.473000     -7.858000
H           1.787000      6.807000     -6.833000
H          -0.641000      7.551000     -7.761000
H          -5.082000      7.080000    -11.635000
H          -4.379000      9.387000    -10.544000
H           5.146000     -5.343000    -10.062000
C           4.147000     -6.690000     -8.888000
H           5.688000     -5.142000     -8.375000
H           3.117000     -6.490000     -9.208000
H           4.240000     -7.046000     -7.855000
C           4.757000     -7.793000     -9.747000
H           4.636000     -7.520000    -10.803000
C           4.044000     -9.166000     -9.458000
H           5.842000     -7.897000     -9.616000
H           3.058000     -9.048000     -9.924000
H           4.027000     -9.497000     -8.412000
C           4.621000    -10.324000    -10.350000
H           4.547000    -10.108000    -11.423000
C           3.843000    -11.604000    -10.025000
H           5.684000    -10.553000    -10.211000
H           3.694000    -12.271000    -10.884000
H           2.792000    -11.390000     -9.796000
H           4.268000    -12.141000     -9.168000
C         -14.278000     11.064000    -14.825000
C         -14.054000     12.354000    -14.264000
N         -13.391000     10.024000    -14.546000
C         -12.955000     12.542000    -13.319000
C         -12.381000     10.233000    -13.748000
C         -12.129000     11.444000    -13.079000
C         -10.931000     11.680000    -12.219000
C         -10.976000     12.545000    -11.127000
C          -9.666000     11.168000    -12.549000
N          -9.896000     12.915000    -10.422000
N          -9.405000     10.398000    -13.578000
C          -8.566000     11.484000    -11.750000
C          -8.702000     12.373000    -10.642000
S          -7.780000     10.012000    -13.443000
N          -7.442000     10.844000    -12.032000
C          -7.654000     12.623000     -9.680000
S          -6.153000     11.662000     -9.515000
C          -7.660000     13.602000     -8.703000
C          -5.545000     12.726000     -8.205000
S          -8.734000     14.964000     -8.575000
C          -6.467000     13.753000     -8.018000
C          -4.228000     12.803000     -7.693000
C          -7.544000     15.747000     -7.487000
C          -6.500000     14.907000     -7.282000
N          -3.598000     13.912000     -7.732000
S          -3.426000     11.406000     -7.055000
C          -2.309000     13.766000     -7.266000
C          -2.033000     12.470000     -6.929000
C         -15.520000     10.714000    -15.590000
H         -14.676000     13.204000    -14.528000
H         -12.856000     13.545000    -12.916000
H         -11.731000      9.383000    -13.547000
H         -11.886000     13.012000    -10.755000
H          -7.610000     16.775000     -7.156000
H          -5.722000     15.308000     -6.642000
H          -1.671000     14.640000     -7.258000
H          -1.085000     12.088000     -6.572000
H         -16.223000     10.190000    -14.930000
C         -15.198000      9.874000    -16.838000
H         -16.025000     11.645000    -15.876000
H         -14.618000      8.980000    -16.576000
H         -14.601000     10.477000    -17.533000
C         -16.497000      9.384000    -17.502000
H         -17.085000      8.895000    -16.715000
C         -16.053000      8.360000    -18.566000
H         -17.050000     10.250000    -17.886000
H         -15.764000      7.442000    -18.040000
H         -15.133000      8.692000    -19.063000
C         -17.095000      8.164000    -19.698000
H         -17.555000      9.121000    -19.972000
C         -18.166000      7.135000    -19.301000
H         -16.562000      7.743000    -20.559000
H         -18.857000      6.985000    -20.140000
H         -18.687000      7.579000    -18.444000
H         -17.604000      6.226000    -19.053000
$end

--------------------------------------------------------------

             Standard Nuclear Orientation (Angstroms)
    I     Atom           X                Y                Z
 ----------------------------------------------------------------
    1      C      13.2325529689    -0.8996468958    -0.3188569576
    2      C      12.8617476901     0.0991744504     0.5388320091
    3      N      12.3688222690    -1.6739837383    -0.9188142330
    4      C      11.4727880001     0.3429341000     0.5856637570
    5      C      11.0077817672    -1.4334273976    -0.8797450709
    6      C      10.5064489807    -0.3735383102    -0.1049976543
    7      C       9.0021312082    -0.1167498322    -0.0932623796
    8      C       8.6116780952     1.2177330894    -0.1102535083
    9      C       8.0305747152    -1.0079997995     0.2919031392
   10      N       7.3597950902     1.6702775470    -0.1021630358
   11      N       8.1232212014    -2.3651820940     0.4986755935
   12      C       6.6999355563    -0.5834136533     0.2394147289
   13      C       6.3676157198     0.7452196013     0.1172746412
   14      S       6.6606335293    -2.9525967355     0.5541223291
   15      N       5.8013647256    -1.5323962785     0.3210262438
   16      C       4.9704374027     1.2421272217     0.1820941368
   17      S       3.4745811234     0.2776780889     0.2940845905
   18      C       4.6097982833     2.5383376863    -0.0189875805
   19      C       2.4423923822     1.7276010522     0.1546435523
   20      S       5.6492697076     3.9104619796    -0.4474710480
   21      C       3.2565337453     2.7890843879    -0.0666864479
   22      C       0.9660475500     1.7322662623     0.0145750971
   23      C       4.1435867884     4.8653264653    -0.5734820029
   24      C       2.9641578168     4.1452310705    -0.3901682737
   25      N       0.4011829857     0.5125131505    -0.0815673512
   26      S      -0.1548289317     3.0260547964    -0.3229884403
   27      C      -0.8718874066     0.5685139001    -0.6291271125
   28      C      -1.3700617475     1.8435188223    -0.7527789400
   29      C      14.7325806400    -1.2600572672    -0.5603923590
   30      H      13.6066214327     0.7486064147     0.9902201253
   31      H      11.1309177716     1.1963418920     1.1650495417
   32      H      10.3880561163    -2.1224058956    -1.4512332571
   33      H       9.3981807366     1.9400640079    -0.3274921769
   34      H       4.2685728489     5.8904086312    -0.8942701540
   35      H       1.9603601488     4.5358861675    -0.5104381245
   36      H      -1.3096652025    -0.3704010627    -0.9434252101
   37      H      -2.3392279912     2.0562903414    -1.1840666313
   38      H      14.7894059112    -1.7398288287    -1.5449390249
   39      C      15.3253273746    -2.3688867739     0.3279625440
   40      H      15.2997073047    -0.3221806579    -0.5909997440
   41      H      14.4437920516    -2.9696799364     0.5833897356
   42      H      15.8307533985    -1.9161111404     1.1893641692
   43      C      16.3806062770    -3.2453748122    -0.3389296189
   44      H      15.9133309474    -3.7770624339    -1.1775403983
   45      C      16.9663498486    -4.2761183105     0.6961990249
   46      H      17.1945286967    -2.6715233641    -0.8009110149
   47      H      16.1477563246    -4.9922370866     0.8388683664
   48      H      17.3833671539    -3.8568710771     1.6204794609
   49      C      18.0342342157    -5.2230280947     0.0385198941
   50      H      17.6365615544    -5.7755478959    -0.8217354888
   51      C      18.5155815269    -6.2087920260     1.1089792523
   52      H      18.9264855274    -4.7319595693    -0.3670294865
   53      H      18.7522146512    -7.2098554070     0.7257719040
   54      H      17.7077097045    -6.4811999542     1.7988886951
   55      H      19.3406647026    -5.8015978985     1.7063683179
   56      C     -10.8467615851    -4.5934235983     0.4073690938
   57      C     -11.5425549769    -3.3530669907     0.3274688947
   58      N      -9.4525371963    -4.6035124513     0.4547670744
   59      C     -10.7880042498    -2.1035702680     0.4021759233
   60      C      -8.7981226237    -3.4755413046     0.4575346498
   61      C      -9.3984893723    -2.2039359667     0.4704044492
   62      C      -8.6289652432    -0.9253895750     0.4099748285
   63      C      -9.0966537185     0.2369834072     1.0206060923
   64      C      -7.4802536246    -0.7855199983    -0.3851145493
   65      N      -8.5304086060     1.4432162569     0.8634635300
   66      N      -6.9285553676    -1.7408092516    -1.0942784766
   67      C      -6.8446214594     0.4546680243    -0.4636156267
   68      C      -7.3869403757     1.5944879374     0.2021033521
   69      S      -5.5521018248    -1.0587110560    -1.7635793776
   70      N      -5.6866383635     0.4727693686    -1.1049014374
   71      C      -6.7082823953     2.8658092963     0.2991257620
   72      S      -4.9877421491     3.1512760906    -0.1033627105
   73      C      -7.2541087333     4.0485584410     0.7640817485
   74      C      -5.1320671413     4.9024601032     0.2577257145
   75      S      -8.9344663699     4.4040239727     1.0378452762
   76      C      -6.4568823625     5.1672636796     0.5961421675
   77      C      -4.2298678709     5.9356336522    -0.0903416556
   78      C      -8.5295621089     6.1495664721     0.9923818586
   79      C      -7.1913429548     6.2977577249     0.8349974625
   80      N      -4.6327469879     6.9131288379    -0.8048299892
   81      S      -2.5666957892     5.8801642176     0.3919847574
   82      C      -3.5941305036     7.7681062146    -1.1053004270
   83      C      -2.4048016636     7.3222679887    -0.5992508380
   84      C     -11.5450010543    -5.9069650435     0.6006551916
   85      H     -12.6206662392    -3.3134996450     0.2042190212
   86      H     -11.3844070928    -1.1978423834     0.3554892233
   87      H      -7.7127859238    -3.5386413510     0.5163872792
   88      H      -9.9711899054     0.2776570378     1.6672165729
   89      H      -9.2657269748     6.9422655628     0.9726222582
   90      H      -6.8582265938     7.3283293149     0.7836098389
   91      H      -3.8115542872     8.6346223848    -1.7159235720
   92      H      -1.4376145545     7.7920811215    -0.7253528451
   93      H     -11.5073737786    -6.1910341323     1.6600295073
   94      C     -10.9409339086    -7.0054740236    -0.2910672451
   95      H     -12.6091974270    -5.7710030168     0.3713466488
   96      H      -9.8586686283    -7.0947120547    -0.1328950701
   97      H     -11.1123622957    -6.7488316856    -1.3435832870
   98      C     -11.5563723456    -8.3729534754     0.0548120390
   99      H     -11.4459903698    -8.4999883895     1.1392067780
  100      C     -10.7046719897    -9.4101355598    -0.7045744422
  101      H     -12.6221014445    -8.3603835252    -0.2045804901
  102      H      -9.7495111555    -9.5047868183    -0.1738862853
  103      H     -10.4299897345    -9.0333755765    -1.6976678787
  104      C     -11.4491229378   -10.7478037341    -0.9536540305
  105      H     -12.5005567548   -10.5655883317    -1.2062594056
  106      C     -11.3314419318   -11.6878349468     0.2571240252
  107      H     -10.9435545497   -11.2489509386    -1.7878620887
  108      H     -11.8262047495   -12.6403163674     0.0293282888
  109      H     -11.8466358004   -11.1688855864     1.0746158228
  110      H     -10.2525561202   -11.8039223226     0.4188587666
 ----------------------------------------------------------------

   10   -5663.5154931007      3.90E-06 Convergence criterion met
 Total energy in the final basis set = -5663.5154931007

                    Orbital Energies (a.u.)
 --------------------------------------------------------------

 Alpha MOs
 -- Occupied --
-88.990 -88.986 -88.933 -88.931 -88.931 -88.920 -88.910 -88.907
-14.394 -14.385 -14.380 -14.380 -14.353 -14.347 -14.343 -14.340
-14.329 -14.321 -10.274 -10.265 -10.262 -10.261 -10.255 -10.255
-10.254 -10.246 -10.244 -10.243 -10.240 -10.239 -10.238 -10.237
-10.235 -10.234 -10.234 -10.230 -10.229 -10.228 -10.228 -10.228
-10.225 -10.223 -10.222 -10.222 -10.222 -10.221 -10.217 -10.215
-10.214 -10.211 -10.206 -10.206 -10.205 -10.203 -10.198 -10.191
-10.186 -10.180 -10.178 -10.176 -10.176 -10.176 -10.174 -10.173
-10.173 -10.172 -10.168 -10.167  -8.046  -8.042  -7.993  -7.992
 -7.989  -7.978  -7.969  -7.967  -6.011  -6.007  -6.005  -6.004
 -6.001  -5.999  -5.958  -5.956  -5.954  -5.953  -5.953  -5.950
 -5.950  -5.949  -5.946  -5.942  -5.939  -5.935  -5.933  -5.931
 -5.930  -5.927  -5.925  -5.923  -1.043  -1.040  -0.987  -0.964
 -0.963  -0.959  -0.938  -0.936  -0.920  -0.915  -0.914  -0.907
 -0.847  -0.840  -0.837  -0.835  -0.812  -0.810  -0.809  -0.808
 -0.802  -0.801  -0.798  -0.796  -0.783  -0.780  -0.770  -0.767
 -0.752  -0.752  -0.743  -0.743  -0.729  -0.719  -0.711  -0.708
 -0.695  -0.695  -0.679  -0.679  -0.655  -0.651  -0.648  -0.647
 -0.638  -0.635  -0.630  -0.625  -0.615  -0.608  -0.602  -0.598
 -0.596  -0.590  -0.582  -0.579  -0.578  -0.573  -0.569  -0.564
 -0.555  -0.545  -0.544  -0.540  -0.529  -0.527  -0.516  -0.514
 -0.509  -0.508  -0.504  -0.498  -0.488  -0.486  -0.482  -0.480
 -0.476  -0.475  -0.473  -0.471  -0.465  -0.459  -0.452  -0.452
 -0.447  -0.446  -0.445  -0.441  -0.439  -0.434  -0.433  -0.432
 -0.430  -0.428  -0.425  -0.420  -0.419  -0.417  -0.416  -0.413
 -0.411  -0.408  -0.407  -0.405  -0.404  -0.402  -0.400  -0.398
 -0.396  -0.396  -0.393  -0.391  -0.390  -0.386  -0.386  -0.386
 -0.380  -0.377  -0.375  -0.368  -0.362  -0.359  -0.358  -0.357
 -0.354  -0.354  -0.353  -0.351  -0.346  -0.345  -0.343  -0.339
 -0.335  -0.332  -0.331  -0.331  -0.331  -0.329  -0.325  -0.319
 -0.317  -0.312  -0.309  -0.307  -0.307  -0.304  -0.300  -0.299
 -0.298  -0.296  -0.293  -0.291  -0.287  -0.283  -0.281  -0.277
 -0.272  -0.272  -0.266  -0.265  -0.258  -0.254  -0.250  -0.248
 -0.247  -0.239  -0.237  -0.235  -0.198  -0.197

          Ground-State Mulliken Net Atomic Charges

     Atom                 Charge (a.u.)
  ----------------------------------------
      1 C                     0.270399
      2 C                    -0.102514
      3 N                    -0.484291
      4 C                    -0.100630
      5 C                     0.064448
      6 C                     0.056722
      7 C                    -0.007823
      8 C                     0.066743
      9 C                     0.249821
     10 N                    -0.526238
     11 N                    -0.526330
     12 C                     0.235020
     13 C                     0.309114
     14 S                     0.610357
     15 N                    -0.591477
     16 C                    -0.235084
     17 S                     0.357990
     18 C                    -0.110579
     19 C                    -0.234712
     20 S                     0.293029
     21 C                     0.161893
     22 C                     0.031930
     23 C                    -0.317729
     24 C                    -0.070281
     25 N                    -0.420814
     26 S                     0.289875
     27 C                     0.118486
     28 C                    -0.324003
     29 C                    -0.225380
     30 H                     0.095490
     31 H                     0.089995
     32 H                     0.115934
     33 H                     0.109947
     34 H                     0.123650
     35 H                     0.105884
     36 H                     0.119971
     37 H                     0.153218
     38 H                     0.114080
     39 C                    -0.163851
     40 H                     0.087361
     41 H                     0.111568
     42 H                     0.088755
     43 C                    -0.188852
     44 H                     0.097478
     45 C                    -0.171362
     46 H                     0.090162
     47 H                     0.104691
     48 H                     0.097051
     49 C                    -0.183084
     50 H                     0.094264
     51 C                    -0.325265
     52 H                     0.091377
     53 H                     0.096698
     54 H                     0.098700
     55 H                     0.104029
     56 C                     0.268977
     57 C                    -0.139413
     58 N                    -0.485778
     59 C                    -0.076807
     60 C                     0.117870
     61 C                     0.030102
     62 C                     0.026225
     63 C                     0.043386
     64 C                     0.287053
     65 N                    -0.534379
     66 N                    -0.570450
     67 C                     0.202441
     68 C                     0.330755
     69 S                     0.571816
     70 N                    -0.580795
     71 C                    -0.206393
     72 S                     0.331681
     73 C                    -0.140114
     74 C                    -0.250988
     75 S                     0.270573
     76 C                     0.216018
     77 C                     0.049070
     78 C                    -0.306511
     79 C                    -0.064173
     80 N                    -0.407026
     81 S                     0.264329
     82 C                     0.118664
     83 C                    -0.308371
     84 C                    -0.228624
     85 H                     0.088987
     86 H                     0.108203
     87 H                     0.110826
     88 H                     0.116266
     89 H                     0.132045
     90 H                     0.107370
     91 H                     0.120071
     92 H                     0.126746
     93 H                     0.120182
     94 C                    -0.176734
     95 H                     0.094768
     96 H                     0.126283
     97 H                     0.094412
     98 C                    -0.173115
     99 H                     0.094541
    100 C                    -0.178910
    101 H                     0.087591
    102 H                     0.094371
    103 H                     0.091473
    104 C                    -0.184276
    105 H                     0.090304
    106 C                    -0.306674
    107 H                     0.085956
    108 H                     0.097698
    109 H                     0.103208
    110 H                     0.103440
  ----------------------------------------
  Sum of atomic charges =     0.000000

                    Cartesian Multipole Moments
 -----------------------------------------------------------------
    Charge (ESU x 10^10)
                 0.0000
    Dipole Moment (Debye)
         X      -2.0912      Y       3.6643      Z      -0.5264
       Tot       4.2517
    Quadrupole Moments (Debye-Ang)
        XX    -405.4089     XY      11.3945     YY    -416.9261
        XZ      10.3354     YZ      -2.8391     ZZ    -452.8136

 Total job time:  95.33s(wall), 1000.63s(cpu)
        *  Thank you very much for using Q-Chem.  Have a nice day.  *
