 Q-Chem 4.4, Q-Chem, Inc., Pleasanton, CA (2016)
 Q-Chem 4.4.2 for Intel X86 Linux

User input:
--------------------------------------------------------------
$comment
SP
$end

$rem
MEM_STATIC 5000
MEM_TOTAL 20000
JOBTYPE SP
EXCHANGE B3LYP
BASIS 6-31g(d,p)
$end

$molecule
0 1
C         -17.628000     -8.730000    -11.128000
C         -17.809000     -9.602000    -10.084000
N         -17.724000     -9.102000    -12.378000
C         -18.050000    -10.999000    -10.369000
C         -17.969000    -10.418000    -12.703000
C         -18.206000    -11.445000    -11.715000
C         -18.538000    -12.855000    -12.077000
C         -18.139000    -13.254000    -13.328000
C         -19.012000    -13.894000    -11.188000
N         -18.351000    -14.486000    -13.771000
N         -19.270000    -13.739000     -9.881000
C         -19.238000    -15.187000    -11.683000
C         -18.894000    -15.453000    -13.038000
S         -20.004000    -15.148000     -9.424000
N         -19.812000    -16.054000    -10.783000
C         -19.391000    -16.682000    -13.689000
S         -20.448000    -17.853000    -12.977000
C         -19.058000    -17.086000    -14.981000
C         -20.686000    -18.792000    -14.520000
S         -17.973000    -16.363000    -16.144000
C         -19.779000    -18.143000    -15.378000
C         -21.516000    -19.877000    -14.760000
C         -18.462000    -17.724000    -17.214000
C         -19.339000    -18.581000    -16.584000
N         -22.168000    -20.339000    -13.730000
S         -22.230000    -20.263000    -16.273000
C         -23.195000    -21.182000    -14.113000
C         -23.400000    -21.217000    -15.466000
C         -17.416000     -7.229000    -10.819000
H         -17.881000     -9.201000     -9.077000
H         -18.209000    -11.628000     -9.498000
H         -18.185000    -10.546000    -13.763000
H         -17.507000    -12.653000    -13.979000
H         -17.946000    -17.948000    -18.138000
H         -19.770000    -19.443000    -17.081000
H         -23.730000    -21.712000    -13.337000
H         -24.085000    -21.874000    -15.984000
H         -16.701000     -7.183000     -9.989000
C         -18.673000     -6.487000    -10.381000
H         -17.001000     -6.768000    -11.723000
H         -18.403000     -5.547000     -9.884000
H         -19.139000     -7.099000     -9.599000
C         -19.686000     -6.206000    -11.429000
H         -19.240000     -5.756000    -12.325000
C         -20.782000     -5.165000    -11.131000
H         -20.294000     -7.048000    -11.782000
H         -21.488000     -5.011000    -11.956000
H         -20.346000     -4.219000    -10.787000
C         -21.731000     -5.598000     -9.963000
H         -22.076000     -6.632000    -10.079000
C         -22.776000     -4.621000     -9.555000
H         -21.001000     -5.605000     -9.144000
H         -22.363000     -3.636000     -9.305000
H         -23.252000     -4.935000     -8.618000
H         -23.463000     -4.526000    -10.405000
C         -13.931000    -15.991000    -14.848000
C         -13.254000    -16.821000    -13.951000
N         -14.752000    -14.968000    -14.469000
C         -13.377000    -16.439000    -12.633000
C         -14.915000    -14.675000    -13.222000
C         -14.285000    -15.448000    -12.177000
C         -14.487000    -15.030000    -10.753000
C         -14.394000    -16.027000     -9.744000
C         -14.818000    -13.744000    -10.285000
N         -14.726000    -15.817000     -8.475000
N         -14.843000    -12.585000    -11.017000
C         -15.141000    -13.495000     -8.959000
C         -15.145000    -14.612000     -8.096000
S         -14.930000    -11.412000     -9.981000
N         -15.327000    -12.236000     -8.623000
C         -15.740000    -14.597000     -6.698000
S         -15.107000    -15.727000     -5.414000
C         -16.777000    -13.847000     -6.192000
C         -16.244000    -15.130000     -4.218000
S         -17.986000    -12.833000     -7.027000
C         -17.070000    -14.207000     -4.857000
C         -16.424000    -15.469000     -2.796000
C         -18.749000    -12.556000     -5.419000
C         -18.282000    -13.496000     -4.481000
N         -15.487000    -16.289000     -2.363000
S         -17.280000    -14.573000     -1.554000
C         -15.555000    -16.465000     -0.989000
C         -16.464000    -15.558000     -0.386000
C         -13.837000    -16.250000    -16.326000
H         -12.565000    -17.625000    -14.190000
H         -12.745000    -16.929000    -11.898000
H         -15.540000    -13.802000    -13.040000
H         -14.144000    -17.029000    -10.089000
H         -19.648000    -11.954000     -5.396000
H         -18.757000    -13.650000     -3.519000
H         -14.854000    -17.100000     -0.463000
H         -16.804000    -15.530000      0.641000
H         -13.762000    -17.330000    -16.505000
C         -12.653000    -15.456000    -17.017000
H         -14.786000    -15.946000    -16.785000
H         -12.886000    -14.402000    -16.816000
H         -12.745000    -15.781000    -18.060000
C         -11.356000    -15.841000    -16.436000
H         -11.298000    -15.393000    -15.437000
C         -10.096000    -15.268000    -17.239000
H         -11.335000    -16.938000    -16.407000
H          -9.727000    -14.352000    -16.763000
H         -10.333000    -14.886000    -18.240000
C          -8.974000    -16.337000    -17.270000
H          -8.839000    -16.749000    -16.262000
C          -7.601000    -15.892000    -17.755000
H          -9.156000    -17.201000    -17.921000
H          -7.266000    -15.035000    -17.157000
H          -7.604000    -15.571000    -18.804000
H          -6.846000    -16.675000    -17.615000
$end

--------------------------------------------------------------

             Standard Nuclear Orientation (Angstroms)
    I     Atom           X                Y                Z
 ----------------------------------------------------------------
    1      C      -2.6164330455    -5.0229092034     0.0166578743
    2      C      -3.1261213403    -3.7650367560     0.2192800551
    3      N      -1.3483355440    -5.3003458008     0.1749539934
    4      C      -2.2233433059    -2.6869483165     0.5563737175
    5      C      -0.4493725609    -4.3126034811     0.5122026625
    6      C      -0.8392043362    -2.9479839870     0.7821782601
    7      C       0.1320554648    -1.8990909363     1.2132765868
    8      C       1.4424270213    -2.1334769737     0.8795213330
    9      C      -0.1788900370    -0.5809561345     1.7235231341
   10      N       2.4066696739    -1.2746432644     1.1822716703
   11      N      -1.4137897518    -0.1001801796     1.9301996341
   12      C       0.8592569591     0.3058374076     2.0457001477
   13      C       2.1941770427    -0.0972215024     1.7617126732
   14      S      -1.1843135107     1.3245908183     2.7365830778
   15      N       0.4508149606     1.4744770045     2.6445504015
   16      C       3.3229604059     0.6477646792     2.3550883621
   17      S       3.1966408232     1.9732925332     3.4607344498
   18      C       4.6678683459     0.3954442240     2.0887689657
   19      C       4.9840955003     2.0465796478     3.8054789584
   20      S       5.4050856061    -0.7526369696     0.9974654863
   21      C       5.4789350296     1.1025298611     2.8868289487
   22      C       5.6645800059     2.8491485436     4.7091099700
   23      C       6.9647362518    -0.0926317209     1.6042808907
   24      C       6.7708228892     0.9255601011     2.5132148935
   25      N       4.9443567877     3.7220360589     5.3562528456
   26      S       7.1343794611     2.4330172030     5.4930010779
   27      C       5.6233857566     4.2359854976     6.4456759195
   28      C       6.8146806326     3.6093814831     6.6947600969
   29      C      -3.5915627177    -6.1818048758    -0.2987925068
   30      H      -4.2046581006    -3.6363316077     0.2343612168
   31      H      -2.6960446166    -1.7241747074     0.7272053550
   32      H       0.5287539637    -4.7175772615     0.7689218456
   33      H       1.7628254471    -2.9471892810     0.2317226531
   34      H       7.9115889483    -0.3188440823     1.1325755392
   35      H       7.5932107624     1.4253933939     3.0128736425
   36      H       5.1650797225     5.0513229728     6.9883373062
   37      H       7.5430115937     3.9092638792     7.4355721915
   38      H      -4.3001327078    -5.7952670178    -1.0409232591
   39      C      -4.4021672533    -6.6725010101     0.8947713125
   40      H      -2.9949977740    -7.0028826793    -0.7134049867
   41      H      -5.2710557483    -7.2471627823     0.5508154564
   42      H      -4.8226237270    -5.7796427487     1.3735661315
   43      C      -3.6756736501    -7.4621931704     1.9204551509
   44      H      -3.0790880788    -8.2685476386     1.4753595121
   45      C      -4.4969490545    -8.2756637222     2.9390195187
   46      H      -2.9992945289    -6.9179140806     2.5909091441
   47      H      -3.8876999325    -8.8347430155     3.6594519244
   48      H      -5.2249797292    -8.9223193202     2.4338899568
   49      C      -5.3691270122    -7.3739129202     3.8762842098
   50      H      -4.7937799175    -6.5370978054     4.2890228490
   51      C      -6.2533744697    -8.0764717386     4.8445483993
   52      H      -6.0418919746    -6.9455951591     3.1228645386
   53      H      -6.9189183282    -8.8033273199     4.3628572781
   54      H      -6.9525487616    -7.3708576615     5.3097419975
   55      H      -5.5929501782    -8.5950675870     5.5505173089
   56      C       4.3239321763    -0.2947783695    -3.0985370483
   57      C       3.9725161170     0.8901946615    -3.7498308906
   58      N       3.4560610050    -1.0425789682    -2.3557013365
   59      C       2.6274052205     1.1826982607    -3.6924260073
   60      C       2.2133810323    -0.7077313568    -2.2505796796
   61      C       1.7022772805     0.4963925827    -2.8632072117
   62      C       0.2424866493     0.8050214903    -2.7325798396
   63      C      -0.1610703364     2.1666629069    -2.7943326695
   64      C      -0.8007259039    -0.1109415349    -2.4978452970
   65      N      -1.3931615185     2.5780321896    -2.5161032100
   66      N      -0.7134622587    -1.4789668655    -2.5227802308
   67      C      -2.1008936985     0.2939489701    -2.2328294770
   68      C      -2.3247424639     1.6868399859    -2.1857089029
   69      S      -2.1867480571    -2.0136145110    -2.5421413098
   70      N      -3.0071220729    -0.6558519025    -2.1369053622
   71      C      -3.5920287747     2.3204568844    -1.6369202074
   72      S      -4.1421433276     3.9522658201    -2.2376019668
   73      C      -4.4534068418     1.8641980690    -0.6654467292
   74      C      -5.5412946817     3.9571029987    -1.1783824003
   75      S      -4.2748167991     0.5263408567     0.5030333418
   76      C      -5.4690782511     2.8084020440    -0.3923818254
   77      C      -6.6367675546     4.9291703411    -1.0220837552
   78      C      -5.8609670024     1.0243115081     1.1963693088
   79      C      -6.2079297819     2.3169411118     0.7601829527
   80      N      -6.5711158445     5.8932242974    -1.9188266517
   81      S      -8.2027748835     4.7052758346    -0.2633952185
   82      C      -7.6958440575     6.7038894521    -1.8829873726
   83      C      -8.7098376185     6.1616883088    -1.0520999082
   84      C       5.7489662973    -0.7730104515    -3.1297272631
   85      H       4.6055002348     1.5079033882    -4.3791360913
   86      H       2.2531759631     1.9901395013    -4.3151138150
   87      H       1.6011324881    -1.4106944177    -1.6876652499
   88      H       0.6340764848     2.8894526693    -2.9699615169
   89      H      -6.2202343824     0.4716110375     2.0546135278
   90      H      -7.0053320288     2.8943472551     1.2135446210
   91      H      -7.8136295721     7.5409325377    -2.5588478946
   92      H      -9.6433243760     6.6161694962    -0.7468748701
   93      H       6.4257014534     0.0907566899    -3.1310889129
   94      C       6.0441191400    -1.7529249656    -4.3390350587
   95      H       5.9516955969    -1.2977415120    -2.1877845126
   96      H       5.3514016943    -2.5896898381    -4.1791191789
   97      H       7.1085041595    -1.9720957280    -4.1941671633
   98      C       5.7931155466    -1.0847062168    -5.6268533300
   99      H       4.7066494744    -0.9958176012    -5.7441533215
  100      C       6.2963323226    -1.9215911252    -6.8945814264
  101      H       6.2924662749    -0.1084247162    -5.5797971754
  102      H       5.4630147294    -2.4813178557    -7.3351274241
  103      H       6.9781042361    -2.7461224647    -6.6508005244
  104      C       6.8983461129    -0.9544509963    -7.9456881609
  105      H       6.2188794381    -0.1043597854    -8.0860554330
  106      C       7.1903196282    -1.5220588910    -9.3280599431
  107      H       7.8710674627    -0.5167483628    -7.6894644690
  108      H       6.2762254444    -1.9729109282    -9.7348058878
  109      H       7.9567726137    -2.3067591631    -9.3123658713
  110      H       7.4847507455    -0.7382960297   -10.0363960882
 ----------------------------------------------------------------

    9   -5663.4695888122      7.15E-06 Convergence criterion met
 Total energy in the final basis set = -5663.4695888122

                    Orbital Energies (a.u.)
 --------------------------------------------------------------

 Alpha MOs
 -- Occupied --
-88.987 -88.987 -88.930 -88.927 -88.920 -88.920 -88.910 -88.909
-14.393 -14.383 -14.377 -14.376 -14.345 -14.343 -14.340 -14.337
-14.327 -14.321 -10.268 -10.263 -10.261 -10.259 -10.259 -10.254
-10.252 -10.247 -10.239 -10.239 -10.237 -10.237 -10.235 -10.234
-10.234 -10.234 -10.234 -10.232 -10.229 -10.228 -10.228 -10.226
-10.225 -10.224 -10.224 -10.222 -10.221 -10.220 -10.220 -10.215
-10.210 -10.210 -10.209 -10.208 -10.197 -10.197 -10.194 -10.191
-10.184 -10.182 -10.181 -10.179 -10.178 -10.178 -10.177 -10.173
-10.171 -10.169 -10.169 -10.168  -8.042  -8.042  -7.991  -7.989
 -7.978  -7.977  -7.969  -7.969  -6.008  -6.007  -6.002  -6.002
 -6.001  -6.000  -5.955  -5.953  -5.952  -5.949  -5.948  -5.946
 -5.942  -5.942  -5.938  -5.938  -5.935  -5.934  -5.933  -5.933
 -5.930  -5.930  -5.925  -5.924  -1.050  -1.033  -0.978  -0.964
 -0.964  -0.962  -0.942  -0.938  -0.920  -0.909  -0.903  -0.899
 -0.843  -0.834  -0.829  -0.829  -0.812  -0.811  -0.810  -0.809
 -0.806  -0.806  -0.795  -0.792  -0.784  -0.781  -0.772  -0.765
 -0.754  -0.746  -0.745  -0.735  -0.719  -0.719  -0.712  -0.707
 -0.696  -0.688  -0.678  -0.671  -0.655  -0.651  -0.648  -0.646
 -0.637  -0.629  -0.626  -0.622  -0.611  -0.609  -0.604  -0.599
 -0.597  -0.592  -0.586  -0.578  -0.575  -0.574  -0.567  -0.552
 -0.550  -0.544  -0.541  -0.536  -0.524  -0.521  -0.520  -0.515
 -0.507  -0.503  -0.499  -0.497  -0.486  -0.483  -0.481  -0.477
 -0.472  -0.472  -0.469  -0.467  -0.463  -0.462  -0.455  -0.447
 -0.444  -0.443  -0.441  -0.438  -0.436  -0.435  -0.434  -0.433
 -0.431  -0.427  -0.426  -0.422  -0.419  -0.416  -0.413  -0.412
 -0.412  -0.408  -0.406  -0.404  -0.400  -0.397  -0.396  -0.395
 -0.394  -0.392  -0.391  -0.390  -0.389  -0.387  -0.384  -0.384
 -0.381  -0.377  -0.376  -0.372  -0.365  -0.362  -0.358  -0.355
 -0.353  -0.352  -0.352  -0.348  -0.345  -0.343  -0.342  -0.335
 -0.333  -0.332  -0.331  -0.330  -0.328  -0.327  -0.322  -0.315
 -0.315  -0.312  -0.312  -0.309  -0.305  -0.303  -0.299  -0.296
 -0.295  -0.291  -0.289  -0.286  -0.285  -0.284  -0.278  -0.278
 -0.272  -0.271  -0.266  -0.259  -0.257  -0.249  -0.247  -0.243
 -0.242  -0.241  -0.231  -0.226  -0.191  -0.190

          Ground-State Mulliken Net Atomic Charges

     Atom                 Charge (a.u.)
  ----------------------------------------
      1 C                     0.289473
      2 C                    -0.117130
      3 N                    -0.486226
      4 C                    -0.126646
      5 C                     0.046240
      6 C                     0.050851
      7 C                     0.059277
      8 C                     0.043382
      9 C                     0.251887
     10 N                    -0.516521
     11 N                    -0.584762
     12 C                     0.184597
     13 C                     0.324159
     14 S                     0.616299
     15 N                    -0.554483
     16 C                    -0.231341
     17 S                     0.356868
     18 C                    -0.130058
     19 C                    -0.190768
     20 S                     0.302844
     21 C                     0.168285
     22 C                     0.041114
     23 C                    -0.312386
     24 C                    -0.091230
     25 N                    -0.427407
     26 S                     0.281749
     27 C                     0.117899
     28 C                    -0.312470
     29 C                    -0.227115
     30 H                     0.094627
     31 H                     0.139536
     32 H                     0.112231
     33 H                     0.136241
     34 H                     0.120897
     35 H                     0.096513
     36 H                     0.117643
     37 H                     0.138140
     38 H                     0.096630
     39 C                    -0.171981
     40 H                     0.113125
     41 H                     0.093567
     42 H                     0.095907
     43 C                    -0.161108
     44 H                     0.095297
     45 C                    -0.186163
     46 H                     0.100739
     47 H                     0.087060
     48 H                     0.084222
     49 C                    -0.178879
     50 H                     0.087249
     51 C                    -0.308224
     52 H                     0.086901
     53 H                     0.099788
     54 H                     0.100373
     55 H                     0.098826
     56 C                     0.261784
     57 C                    -0.093479
     58 N                    -0.472382
     59 C                    -0.092491
     60 C                     0.103278
     61 C                     0.019060
     62 C                     0.039601
     63 C                     0.061277
     64 C                     0.195031
     65 N                    -0.497230
     66 N                    -0.534226
     67 C                     0.222532
     68 C                     0.264044
     69 S                     0.636575
     70 N                    -0.566694
     71 C                    -0.242197
     72 S                     0.337503
     73 C                    -0.117594
     74 C                    -0.185848
     75 S                     0.290973
     76 C                     0.130468
     77 C                     0.051986
     78 C                    -0.306604
     79 C                    -0.101930
     80 N                    -0.421401
     81 S                     0.287189
     82 C                     0.115783
     83 C                    -0.324684
     84 C                    -0.249131
     85 H                     0.101531
     86 H                     0.092120
     87 H                     0.115035
     88 H                     0.111147
     89 H                     0.130635
     90 H                     0.105269
     91 H                     0.121526
     92 H                     0.137218
     93 H                     0.093163
     94 C                    -0.175598
     95 H                     0.117990
     96 H                     0.113019
     97 H                     0.095782
     98 C                    -0.173640
     99 H                     0.106072
    100 C                    -0.180333
    101 H                     0.090545
    102 H                     0.093838
    103 H                     0.092101
    104 C                    -0.175189
    105 H                     0.093276
    106 C                    -0.322504
    107 H                     0.093466
    108 H                     0.097045
    109 H                     0.100876
    110 H                     0.098879
  ----------------------------------------
  Sum of atomic charges =     0.000000

                    Cartesian Multipole Moments
 -----------------------------------------------------------------
    Charge (ESU x 10^10)
                 0.0000
    Dipole Moment (Debye)
         X       0.0408      Y       1.4971      Z       1.5834
       Tot       2.1795
    Quadrupole Moments (Debye-Ang)
        XX    -378.1340     XY       3.9735     YY    -449.3868
        XZ      -0.7750     YZ      10.7557     ZZ    -426.3790

 Total job time:  98.26s(wall), 1066.17s(cpu)
        *  Thank you very much for using Q-Chem.  Have a nice day.  *
