 Q-Chem 4.4, Q-Chem, Inc., Pleasanton, CA (2016)
 Q-Chem 4.4.2 for Intel X86 Linux

User input:
--------------------------------------------------------------
$comment
SP
$end

$rem
MEM_STATIC 5000
MEM_TOTAL 20000
JOBTYPE SP
EXCHANGE B3LYP
BASIS 6-31g(d,p)
$end

$molecule
0 1
C           4.495000     12.857000     -0.653000
C           5.222000     14.008000     -0.309000
N           5.019000     11.941000     -1.495000
C           6.491000     14.271000     -0.995000
C           6.200000     12.184000     -2.095000
C           7.012000     13.310000     -1.932000
C           8.323000     13.531000     -2.697000
C           8.848000     14.819000     -2.801000
C           9.094000     12.486000     -3.208000
N           9.960000     15.063000     -3.554000
N           8.788000     11.153000     -3.231000
C          10.217000     12.756000     -3.960000
C          10.684000     14.048000     -4.121000
S           9.999000     10.402000     -3.967000
N          10.915000     11.706000     -4.363000
C          11.889000     14.579000     -4.880000
S          13.091000     13.586000     -5.614000
C          12.288000     15.940000     -4.985000
C          14.114000     14.970000     -6.018000
S          11.538000     17.424000     -4.383000
C          13.543000     16.130000     -5.619000
C          15.493000     14.914000     -6.567000
C          12.822000     18.279000     -5.131000
C          13.811000     17.523000     -5.697000
N          15.997000     13.697000     -6.735000
S          16.714000     16.161000     -6.727000
C          17.331000     13.729000     -7.090000
C          17.768000     15.011000     -7.289000
C           3.384000     12.358000      0.317000
H           4.824000     14.654000      0.467000
H           7.031000     15.185000     -0.769000
H           6.446000     11.416000     -2.828000
H           8.411000     15.723000     -2.382000
H          12.801000     19.358000     -5.056000
H          14.713000     17.941000     -6.128000
H          17.847000     12.805000     -7.317000
H          18.779000     15.303000     -7.539000
H           3.512000     11.332000      0.684000
C           2.016000     12.458000     -0.420000
H           3.290000     13.008000      1.195000
H           1.874000     11.821000     -1.302000
H           2.039000     13.501000     -0.759000
C           0.900000     12.262000      0.604000
H           0.823000     11.174000      0.719000
C          -0.408000     12.895000     -0.061000
H           1.004000     12.782000      1.564000
H          -0.689000     12.202000     -0.864000
H          -0.259000     13.913000     -0.441000
C          -1.637000     13.008000      0.941000
H          -1.859000     11.976000      1.240000
C          -2.912000     13.512000      0.239000
H          -1.284000     13.520000      1.845000
H          -3.413000     12.637000     -0.191000
H          -2.723000     14.321000     -0.478000
H          -3.599000     13.960000      0.967000
C           0.811000     12.983000    -13.708000
C           1.826000     13.313000    -14.627000
N           1.108000     12.943000    -12.415000
C           3.150000     13.497000    -14.181000
C           2.339000     13.311000    -11.982000
C           3.485000     13.471000    -12.805000
C           4.822000     13.790000    -12.367000
C           5.896000     13.477000    -13.134000
C           5.074000     14.509000    -11.123000
N           7.179000     13.697000    -12.699000
N           4.158000     15.033000    -10.281000
C           6.382000     14.627000    -10.691000
C           7.472000     14.156000    -11.498000
S           4.990000     15.523000     -8.971000
N           6.521000     15.220000     -9.429000
C           8.916000     14.371000    -11.229000
S           9.569000     15.467000     -9.992000
C           9.970000     13.732000    -11.818000
C          11.229000     15.075000    -10.371000
S           9.979000     12.430000    -13.004000
C          11.213000     14.106000    -11.427000
C          12.368000     15.865000    -10.022000
C          11.684000     12.226000    -12.788000
C          12.220000     13.227000    -11.994000
N          13.550000     15.471000    -10.273000
S          12.164000     17.286000     -9.036000
C          14.486000     16.350000     -9.723000
C          13.860000     17.475000     -9.098000
C          -0.551000     12.485000    -14.213000
H           1.588000     13.393000    -15.684000
H           3.937000     13.731000    -14.892000
H           2.505000     13.184000    -10.913000
H           5.744000     12.892000    -14.039000
H          12.297000     11.489000    -13.289000
H          13.274000     13.254000    -11.743000
H          15.531000     16.230000     -9.977000
H          14.204000     18.441000     -8.753000
H          -0.482000     12.013000    -15.201000
C          -1.724000     13.544000    -14.195000
H          -0.746000     11.631000    -13.553000
H          -1.739000     14.020000    -13.207000
H          -2.704000     13.073000    -14.339000
C          -1.436000     14.682000    -15.213000
H          -0.455000     15.167000    -15.129000
C          -2.365000     15.938000    -15.163000
H          -1.507000     14.236000    -16.212000
H          -2.270000     16.329000    -14.142000
H          -3.437000     15.726000    -15.262000
C          -2.004000     17.015000    -16.161000
H          -1.917000     17.995000    -15.675000
C          -2.962000     17.216000    -17.377000
H          -0.988000     16.884000    -16.555000
H          -2.676000     16.418000    -18.074000
H          -2.795000     18.164000    -17.904000
H          -4.043000     17.144000    -17.204000
$end

--------------------------------------------------------------

             Standard Nuclear Orientation (Angstroms)
    I     Atom           X                Y                Z
 ----------------------------------------------------------------
    1      C       0.1914414302     7.9316818946    -0.2481254532
    2      C      -0.6664342643     7.7885317008     0.8542462241
    3      N       0.0939412340     7.0983645148    -1.3057983025
    4      C      -1.5641138118     6.6301043466     0.9026558809
    5      C      -0.7568352807     6.0554350691    -1.2579705549
    6      C      -1.6185785769     5.7183728003    -0.2103176933
    7      C      -2.5209472558     4.4780207998    -0.2170021777
    8      C      -3.0207033316     3.9865640807     0.9888581616
    9      C      -2.9711226302     3.8679560727    -1.3886463904
   10      N      -3.7469821587     2.8315021386     1.0268051688
   11      N      -2.6185211273     4.1651263061    -2.6764414178
   12      C      -3.7091021067     2.7056312158    -1.3260347349
   13      C      -4.1331134873     2.1844875800    -0.1169451353
   14      S      -3.3947725644     3.1348909379    -3.6294717386
   15      N      -4.1356421817     2.2229481931    -2.4824056374
   16      C      -4.9557119813     0.9448929739     0.1941881645
   17      S      -5.7130070694    -0.0439868888    -0.9967063592
   18      C      -5.3433051541     0.4909318544     1.4850165165
   19      C      -6.5523367238    -1.0169429232     0.2174119573
   20      S      -4.9697905918     1.1100955078     3.0987956966
   21      C      -6.2455839015    -0.6039259163     1.4688757634
   22      C      -7.5904388652    -2.0464703716    -0.0444948525
   23      C      -5.8844934839    -0.1986240461     3.7231007088
   24      C      -6.5257317087    -0.9869023796     2.8079811493
   25      N      -7.9259584441    -2.2149955157    -1.3182118101
   26      S      -8.7023119718    -2.8548417405     1.0425764076
   27      C      -9.0049981145    -3.0638215443    -1.4657677755
   28      C      -9.3858361122    -3.6062600225    -0.2679293402
   29      C       0.8418150197     9.3214008983    -0.5125442209
   30      H      -0.6448081381     8.5528216108     1.6244989386
   31      H      -2.1922866855     6.4881763983     1.7763419219
   32      H      -0.6508984176     5.4077952539    -2.1280102383
   33      H      -2.8323422173     4.4034523703     1.9760107559
   34      H      -5.9468040141    -0.2828930588     4.7998193960
   35      H      -7.1975362333    -1.7932860933     3.0772635050
   36      H      -9.3417585096    -3.3342372883    -2.4582539274
   37      H     -10.2240110930    -4.2721156505    -0.1130617057
   38      H       0.6262506992     9.7573943939    -1.4960027586
   39      C       2.3841639333     9.1720498197    -0.3594198138
   40      H       0.5442551471    10.0588664070     0.2423218240
   41      H       2.8985549267     8.5212985316    -1.0775992252
   42      H       2.4495711249     8.6999124370     0.6285615581
   43      C       3.0029924040    10.5676711454    -0.3177012462
   44      H       3.0790658901    10.8641705813    -1.3708863720
   45      C       4.4361630757    10.3809208001     0.3641522091
   46      H       2.4976079842    11.3215405713     0.2979963069
   47      H       5.0486272240     9.8646102221    -0.3857344851
   48      H       4.4039862226     9.8259962963     1.3096406781
   49      C       5.1524551440    11.7547541398     0.7201320228
   50      H       5.2845904519    12.2667379278    -0.2411805493
   51      C       6.5764470088    11.5406947412     1.2668227424
   52      H       4.4422051659    12.3615859207     1.2956918879
   53      H       7.2490106722    11.4762818617     0.4036685849
   54      H       6.6529674788    10.6951519902     1.9621594047
   55      H       6.8910976539    12.4038652699     1.8656454288
   56      C       8.7971402838    -2.5039245572    -1.2780876964
   57      C       8.2221388930    -3.7846292575    -1.1647083716
   58      N       8.0081971277    -1.4397196679    -1.1962668550
   59      C       6.8233565643    -3.9246490973    -1.0669820118
   60      C       6.6909271047    -1.5825684033    -0.9087465507
   61      C       5.9656626256    -2.8020010401    -0.9654958198
   62      C       4.5517720625    -2.9744639950    -0.7367076978
   63      C       3.8924033431    -4.0444777020    -1.2466464772
   64      C       3.7875055915    -2.0501388811     0.0936662211
   65      N       2.5338215746    -4.1838146788    -1.1104305259
   66      N       4.2622002578    -1.0051931406     0.8045455170
   67      C       2.4121226075    -2.1867944373     0.1262070590
   68      C       1.7617093203    -3.2758781279    -0.5461390354
   69      S       2.9518753302    -0.2136330675     1.3567277647
   70      N       1.7499794547    -1.1831805028     0.8458872073
   71      C       0.3227747070    -3.6281980537    -0.4509557993
   72      S      -0.8233921221    -2.9231457610     0.7096461413
   73      C      -0.3742498065    -4.4801976875    -1.2599128141
   74      C      -2.1707540009    -3.8581357709     0.1068902629
   75      S       0.1557895825    -5.3671265151    -2.6862004782
   76      C      -1.6859153503    -4.6667789012    -0.9726377686
   77      C      -3.3902532803    -4.1041155817     0.8108344654
   78      C      -1.4806116417    -5.8072775892    -3.0379888598
   79      C      -2.3373553749    -5.4446964205    -2.0112181591
   80      N      -4.3517433827    -4.7356394423     0.2703944626
   81      S      -3.6673040786    -3.3403017049     2.3512513625
   82      C      -5.4705328908    -4.7329266570     1.1067793485
   83      C      -5.2025621743    -4.0879259482     2.3558957485
   84      C      10.2693270649    -2.3558969674    -1.6889732207
   85      H       8.8604478926    -4.6635079479    -1.1853691696
   86      H       6.3779317071    -4.9129919396    -1.0004904887
   87      H       6.1158891072    -0.6576410706    -0.9256796731
   88      H       4.4226989885    -4.7199485894    -1.9151370222
   89      H      -1.8049689041    -6.3923208086    -3.8879628580
   90      H      -3.4034145843    -5.6328825471    -2.0636561583
   91      H      -6.3185714493    -5.3543873783     0.8507360413
   92      H      -5.7017371311    -4.0528690269     3.3151206308
   93      H      10.6254437833    -3.2099897734    -2.2783757671
   94      C      11.2844702791    -2.0384978425    -0.5200095557
   95      H      10.2233266114    -1.5530812515    -2.4348364016
   96      H      10.8787749409    -1.2061158281     0.0677799259
   97      H      12.2610336173    -1.7159775597    -0.9011679397
   98      C      11.3756423209    -3.2451088135     0.4547158536
   99      H      10.4215909406    -3.6245997814     0.8425490253
  100      C      12.1453903048    -3.0233775114     1.7968783888
  101      H      11.8629807676    -4.0583187269    -0.0958737169
  102      H      11.6298873593    -2.1913841067     2.2932559545
  103      H      13.1756882383    -2.6625609497     1.6863045355
  104      C      12.1646716816    -4.2312887609     2.7061817714
  105      H      11.8432608006    -3.9697565494     3.7222826266
  106      C      13.5195719443    -4.9910523957     2.8605368730
  107      H      11.3998984442    -4.9669294917     2.4258112832
  108      H      13.5758980750    -5.6171704856     1.9609744768
  109      H      13.5332959765    -5.6761113283     3.7177579121
  110      H      14.4422083425    -4.4005065084     2.9211308636
 ----------------------------------------------------------------

    9   -5663.5095491528      8.54E-06 Convergence criterion met
 Total energy in the final basis set = -5663.5095491528

                    Orbital Energies (a.u.)
 --------------------------------------------------------------

 Alpha MOs
 -- Occupied --
-88.990 -88.989 -88.929 -88.922 -88.922 -88.917 -88.912 -88.901
-14.389 -14.383 -14.382 -14.381 -14.349 -14.344 -14.338 -14.338
-14.326 -14.324 -10.267 -10.265 -10.264 -10.258 -10.258 -10.256
-10.255 -10.249 -10.243 -10.243 -10.239 -10.239 -10.237 -10.236
-10.235 -10.231 -10.231 -10.229 -10.229 -10.227 -10.227 -10.224
-10.223 -10.223 -10.222 -10.221 -10.221 -10.220 -10.219 -10.215
-10.211 -10.210 -10.205 -10.205 -10.204 -10.202 -10.197 -10.190
-10.190 -10.187 -10.185 -10.180 -10.178 -10.177 -10.176 -10.176
-10.175 -10.175 -10.172 -10.172  -8.046  -8.044  -7.991  -7.982
 -7.981  -7.980  -7.972  -7.961  -6.011  -6.009  -6.005  -6.004
 -6.004  -6.002  -5.955  -5.952  -5.948  -5.946  -5.945  -5.943
 -5.942  -5.941  -5.940  -5.939  -5.938  -5.937  -5.936  -5.933
 -5.928  -5.926  -5.922  -5.917  -1.046  -1.035  -0.975  -0.969
 -0.957  -0.952  -0.937  -0.930  -0.912  -0.911  -0.906  -0.898
 -0.851  -0.843  -0.838  -0.831  -0.817  -0.811  -0.806  -0.803
 -0.800  -0.800  -0.790  -0.789  -0.779  -0.774  -0.766  -0.763
 -0.747  -0.745  -0.743  -0.733  -0.724  -0.723  -0.706  -0.705
 -0.693  -0.691  -0.676  -0.667  -0.655  -0.650  -0.645  -0.644
 -0.635  -0.631  -0.622  -0.622  -0.612  -0.605  -0.599  -0.597
 -0.593  -0.591  -0.580  -0.579  -0.574  -0.571  -0.568  -0.568
 -0.544  -0.543  -0.540  -0.539  -0.528  -0.523  -0.519  -0.509
 -0.507  -0.507  -0.499  -0.498  -0.483  -0.482  -0.479  -0.478
 -0.477  -0.470  -0.468  -0.466  -0.464  -0.456  -0.451  -0.447
 -0.443  -0.440  -0.439  -0.434  -0.433  -0.431  -0.431  -0.430
 -0.426  -0.426  -0.420  -0.418  -0.417  -0.413  -0.411  -0.411
 -0.409  -0.408  -0.405  -0.402  -0.401  -0.400  -0.399  -0.396
 -0.393  -0.393  -0.389  -0.388  -0.386  -0.384  -0.383  -0.378
 -0.377  -0.375  -0.372  -0.371  -0.364  -0.362  -0.360  -0.357
 -0.356  -0.352  -0.349  -0.347  -0.346  -0.344  -0.343  -0.340
 -0.338  -0.335  -0.334  -0.333  -0.331  -0.322  -0.321  -0.321
 -0.314  -0.311  -0.311  -0.308  -0.307  -0.301  -0.298  -0.297
 -0.294  -0.292  -0.292  -0.287  -0.283  -0.280  -0.276  -0.274
 -0.272  -0.267  -0.265  -0.264  -0.253  -0.249  -0.248  -0.243
 -0.243  -0.241  -0.231  -0.231  -0.195  -0.187

          Ground-State Mulliken Net Atomic Charges

     Atom                 Charge (a.u.)
  ----------------------------------------
      1 C                     0.266945
      2 C                    -0.129388
      3 N                    -0.478091
      4 C                    -0.102774
      5 C                     0.061721
      6 C                     0.060438
      7 C                     0.036088
      8 C                     0.058213
      9 C                     0.244059
     10 N                    -0.536848
     11 N                    -0.539484
     12 C                     0.195186
     13 C                     0.316866
     14 S                     0.617102
     15 N                    -0.552278
     16 C                    -0.234187
     17 S                     0.365835
     18 C                    -0.128270
     19 C                    -0.246492
     20 S                     0.295530
     21 C                     0.177359
     22 C                     0.061788
     23 C                    -0.306598
     24 C                    -0.084531
     25 N                    -0.427413
     26 S                     0.279474
     27 C                     0.109103
     28 C                    -0.311968
     29 C                    -0.215719
     30 H                     0.091750
     31 H                     0.096238
     32 H                     0.121942
     33 H                     0.119241
     34 H                     0.124669
     35 H                     0.102492
     36 H                     0.118402
     37 H                     0.132733
     38 H                     0.116745
     39 C                    -0.174644
     40 H                     0.095358
     41 H                     0.115124
     42 H                     0.091168
     43 C                    -0.186213
     44 H                     0.099640
     45 C                    -0.175531
     46 H                     0.089477
     47 H                     0.092634
     48 H                     0.092176
     49 C                    -0.188675
     50 H                     0.092851
     51 C                    -0.317525
     52 H                     0.088742
     53 H                     0.109106
     54 H                     0.102074
     55 H                     0.100144
     56 C                     0.284525
     57 C                    -0.120265
     58 N                    -0.481626
     59 C                    -0.086998
     60 C                     0.075390
     61 C                     0.035510
     62 C                     0.068259
     63 C                     0.044909
     64 C                     0.255629
     65 N                    -0.528114
     66 N                    -0.556594
     67 C                     0.141056
     68 C                     0.316970
     69 S                     0.613402
     70 N                    -0.541895
     71 C                    -0.218452
     72 S                     0.330867
     73 C                    -0.105896
     74 C                    -0.233406
     75 S                     0.271022
     76 C                     0.135538
     77 C                     0.097645
     78 C                    -0.296894
     79 C                    -0.073667
     80 N                    -0.429859
     81 S                     0.275801
     82 C                     0.104539
     83 C                    -0.315022
     84 C                    -0.233172
     85 H                     0.089617
     86 H                     0.096043
     87 H                     0.106062
     88 H                     0.121403
     89 H                     0.128855
     90 H                     0.121739
     91 H                     0.119239
     92 H                     0.136323
     93 H                     0.099921
     94 C                    -0.182616
     95 H                     0.118030
     96 H                     0.111918
     97 H                     0.099609
     98 C                    -0.178228
     99 H                     0.100942
    100 C                    -0.178681
    101 H                     0.087647
    102 H                     0.095155
    103 H                     0.089820
    104 C                    -0.183230
    105 H                     0.094176
    106 C                    -0.323954
    107 H                     0.090936
    108 H                     0.103252
    109 H                     0.101157
    110 H                     0.103875
  ----------------------------------------
  Sum of atomic charges =     0.000000

                    Cartesian Multipole Moments
 -----------------------------------------------------------------
    Charge (ESU x 10^10)
                 0.0000
    Dipole Moment (Debye)
         X      -2.7914      Y      -1.2970      Z       2.8606
       Tot       4.2020
    Quadrupole Moments (Debye-Ang)
        XX    -404.4875     XY       8.5914     YY    -424.3509
        XZ     -13.8592     YZ      11.4355     ZZ    -427.3324

 Total job time:  88.31s(wall), 943.15s(cpu)
        *  Thank you very much for using Q-Chem.  Have a nice day.  *
