 Q-Chem 4.4, Q-Chem, Inc., Pleasanton, CA (2016)
 Q-Chem 4.4.2 for Intel X86 Linux

User input:
--------------------------------------------------------------
$comment
SP
$end

$rem
MEM_STATIC 5000
MEM_TOTAL 20000
JOBTYPE SP
EXCHANGE B3LYP
BASIS 6-31g(d,p)
$end

$molecule
0 1
C         -13.687000     -6.158000     -9.296000
C         -12.573000     -6.486000     -8.512000
N         -14.205000     -7.077000    -10.209000
C         -11.944000     -7.685000     -8.658000
C         -13.634000     -8.254000    -10.301000
C         -12.510000     -8.641000     -9.555000
C         -11.882000     -9.959000     -9.721000
C         -11.321000    -10.441000    -10.940000
C         -11.902000    -10.897000     -8.650000
N         -10.864000    -11.688000    -11.117000
N         -12.384000    -10.631000     -7.446000
C         -11.330000    -12.151000     -8.859000
C         -10.819000    -12.565000    -10.126000
S         -12.044000    -12.015000     -6.573000
N         -11.372000    -12.907000     -7.760000
C         -10.537000    -13.958000    -10.422000
S         -10.837000    -15.297000     -9.236000
C         -10.032000    -14.464000    -11.558000
C         -10.242000    -16.454000    -10.418000
S          -9.241000    -13.561000    -12.864000
C          -9.821000    -15.800000    -11.532000
C          -9.945000    -17.856000    -10.053000
C          -8.606000    -15.109000    -13.446000
C          -9.005000    -16.191000    -12.622000
N          -9.101000    -18.530000    -10.856000
S         -10.474000    -18.495000     -8.547000
C          -8.947000    -19.760000    -10.222000
C          -9.677000    -19.956000     -9.128000
C         -14.504000     -4.865000     -9.100000
H         -12.175000     -5.705000     -7.872000
H         -11.112000     -8.035000     -8.053000
H         -13.989000     -8.983000    -11.028000
H         -11.582000     -9.921000    -11.861000
H          -7.985000    -15.229000    -14.324000
H          -8.707000    -17.204000    -12.866000
H          -8.405000    -20.520000    -10.769000
H          -9.612000    -20.797000     -8.450000
H         -13.751000     -4.100000     -9.323000
C         -15.092000     -4.691000     -7.639000
H         -15.244000     -4.911000     -9.909000
H         -15.536000     -3.688000     -7.621000
H         -14.237000     -4.575000     -6.961000
C         -16.095000     -5.801000     -7.113000
H         -16.467000     -5.408000     -6.159000
C         -15.378000     -7.167000     -6.959000
H         -16.916000     -5.958000     -7.824000
H         -14.323000     -7.197000     -6.657000
H         -15.392000     -7.708000     -7.913000
C         -16.046000     -8.021000     -5.835000
H         -15.412000     -8.911000     -5.744000
C         -17.460000     -8.434000     -6.191000
H         -15.936000     -7.479000     -4.887000
H         -17.608000     -8.489000     -7.277000
H         -18.235000     -7.833000     -5.700000
H         -17.719000     -9.419000     -5.784000
C         -13.931000    -15.991000    -14.848000
C         -13.254000    -16.821000    -13.951000
N         -14.752000    -14.968000    -14.469000
C         -13.377000    -16.439000    -12.633000
C         -14.915000    -14.675000    -13.222000
C         -14.285000    -15.448000    -12.177000
C         -14.487000    -15.030000    -10.753000
C         -14.394000    -16.027000     -9.744000
C         -14.818000    -13.744000    -10.285000
N         -14.726000    -15.817000     -8.475000
N         -14.843000    -12.585000    -11.017000
C         -15.141000    -13.495000     -8.959000
C         -15.145000    -14.612000     -8.096000
S         -14.930000    -11.412000     -9.981000
N         -15.327000    -12.236000     -8.623000
C         -15.740000    -14.597000     -6.698000
S         -15.107000    -15.727000     -5.414000
C         -16.777000    -13.847000     -6.192000
C         -16.244000    -15.130000     -4.218000
S         -17.986000    -12.833000     -7.027000
C         -17.070000    -14.207000     -4.857000
C         -16.424000    -15.469000     -2.796000
C         -18.749000    -12.556000     -5.419000
C         -18.282000    -13.496000     -4.481000
N         -15.487000    -16.289000     -2.363000
S         -17.280000    -14.573000     -1.554000
C         -15.555000    -16.465000     -0.989000
C         -16.464000    -15.558000     -0.386000
C         -13.837000    -16.250000    -16.326000
H         -12.565000    -17.625000    -14.190000
H         -12.745000    -16.929000    -11.898000
H         -15.540000    -13.802000    -13.040000
H         -14.144000    -17.029000    -10.089000
H         -19.648000    -11.954000     -5.396000
H         -18.757000    -13.650000     -3.519000
H         -14.854000    -17.100000     -0.463000
H         -16.804000    -15.530000      0.641000
H         -13.762000    -17.330000    -16.505000
C         -12.653000    -15.456000    -17.017000
H         -14.786000    -15.946000    -16.785000
H         -12.886000    -14.402000    -16.816000
H         -12.745000    -15.781000    -18.060000
C         -11.356000    -15.841000    -16.436000
H         -11.298000    -15.393000    -15.437000
C         -10.096000    -15.268000    -17.239000
H         -11.335000    -16.938000    -16.407000
H          -9.727000    -14.352000    -16.763000
H         -10.333000    -14.886000    -18.240000
C          -8.974000    -16.337000    -17.270000
H          -8.839000    -16.749000    -16.262000
C          -7.601000    -15.892000    -17.755000
H          -9.156000    -17.201000    -17.921000
H          -7.266000    -15.035000    -17.157000
H          -7.604000    -15.571000    -18.804000
H          -6.846000    -16.675000    -17.615000
$end

--------------------------------------------------------------

             Standard Nuclear Orientation (Angstroms)
    I     Atom           X                Y                Z
 ----------------------------------------------------------------
    1      C      -3.1024258105     6.4912794298     0.9131926457
    2      C      -3.0231493525     5.9184771450     2.1894562493
    3      N      -2.2859144349     6.0317945532    -0.1205562705
    4      C      -2.1172379493     4.9385725138     2.4608774040
    5      C      -1.4591498894     5.0450215355     0.1295904823
    6      C      -1.3219265864     4.4361945068     1.3866347991
    7      C      -0.3532491611     3.3578844995     1.6274159731
    8      C       1.0572174813     3.4843290723     1.4612786182
    9      C      -0.8109402164     2.0487352715     1.9498011415
   10      N       1.9211917744     2.4651001279     1.5608164486
   11      N      -2.0838943189     1.7389446609     2.1403624974
   12      C       0.1374102101     1.0435055751     2.1329014585
   13      C       1.5327621209     1.2491309670     1.9126351577
   14      S      -2.0315525178     0.1346392242     2.6058186196
   15      N      -0.4259264424    -0.1153320176     2.4805338068
   16      C       2.4605116447     0.1404355043     1.7797284526
   17      S       1.9369268269    -1.5948491005     1.8442519281
   18      C       3.7889806839     0.2061772577     1.5997144706
   19      C       3.6071627878    -2.0896134614     1.6090540063
   20      S       4.8233221721     1.6287848767     1.8300430362
   21      C       4.4106321052    -0.9948539665     1.5655602786
   22      C       4.0367803618    -3.4922109218     1.7966362657
   23      C       6.2084047237     0.5244148868     1.8429368519
   24      C       5.8113285882    -0.8282791083     1.6964769662
   25      N       5.3440604965    -3.7030480451     2.0374419069
   26      S       2.8718706166    -4.7494994709     1.9323152621
   27      C       5.4265288099    -5.0755904854     2.2562985425
   28      C       4.3013672728    -5.7670189651     2.1010884502
   29      C      -4.1776914098     7.5235485932     0.5182518082
   30      H      -3.6332565695     6.3655423146     2.9678307849
   31      H      -2.0307853347     4.4078709767     3.4051394566
   32      H      -0.7816572117     4.6848501078    -0.6432453439
   33      H       1.4283954576     4.3368202963     0.8936100329
   34      H       7.2403138820     0.8318966990     1.9503771810
   35      H       6.5541267348    -1.6168786780     1.6669704902
   36      H       6.4217399544    -5.4916406560     2.3401438366
   37      H       4.1494649698    -6.8137618530     2.3300972208
   38      H      -3.9409049217     8.3502785451     1.1982611800
   39      C      -5.6640753974     7.0136533220     0.7212553888
   40      H      -3.9022243015     7.7917071061    -0.5095642669
   41      H      -6.3010147945     7.8831172815     0.5167813621
   42      H      -5.8098705726     6.8716756947     1.7995647694
   43      C      -6.1192472418     5.7312989387    -0.0930976228
   44      H      -7.1962590191     5.6502778884     0.0977694014
   45      C      -5.3337216751     4.4760178301     0.3662278854
   46      H      -5.9147181653     5.8526112170    -1.1643875873
   47      H      -5.0321919648     4.3769501923     1.4171296110
   48      H      -4.3882169667     4.4023936558    -0.1847651521
   49      C      -6.1867014641     3.1832675308     0.1658828250
   50      H      -5.5851403621     2.3787651800     0.6054703681
   51      C      -6.4461483286     2.8873057940    -1.2976044401
   52      H      -7.0804779326     3.2657504320     0.7974904526
   53      H      -5.6607170545     3.3005298183    -1.9431031771
   54      H      -7.4495889667     3.1716409319    -1.6369676896
   55      H      -6.4917298639     1.8104951984    -1.5009668380
   56      C       5.0078277257     0.0419990540    -3.5815486385
   57      C       4.9856709951    -1.0556673144    -2.7175604309
   58      N       3.8981939400     0.7518619281    -3.9407401773
   59      C       3.7559154286    -1.2905351790    -2.1424818859
   60      C       2.7391256152     0.4655090456    -3.4488157471
   61      C       2.5567817246    -0.6476980146    -2.5466102567
   62      C       1.1918007623    -0.9005652914    -1.9843033007
   63      C       0.8615166624    -2.2295834757    -1.6030395088
   64      C       0.1503379345     0.0345767975    -1.8318387090
   65      N      -0.3647556051    -2.6095541322    -1.2616253523
   66      N       0.2357514830     1.3929625173    -1.9968319275
   67      C      -1.1310715154    -0.3345351995    -1.4492787066
   68      C      -1.3486370109    -1.7135752273    -1.2409811870
   69      S      -1.0770542964     1.9937797570    -1.3866240694
   70      N      -1.9882380602     0.6416586926    -1.2374202641
   71      C      -2.7260153417    -2.3395376123    -1.1007883690
   72      S      -2.9474143521    -3.8772883508    -0.1455134639
   73      C      -3.9305882328    -1.9423255313    -1.6347656276
   74      C      -4.6714611858    -3.9224783911    -0.4698811187
   75      S      -4.2934609334    -0.7357545320    -2.8995232435
   76      C      -4.9591804987    -2.8613702980    -1.3264984262
   77      C      -5.7195938147    -4.8540584903    -0.0193464240
   78      C      -6.0211049336    -1.2265300206    -2.7618728590
   79      C      -6.1345337889    -2.4526241068    -2.0796997237
   80      N      -5.2596795319    -5.7270063673     0.8548954514
   81      S      -7.4602534672    -4.6346092480    -0.0272206913
   82      C      -6.2809596026    -6.4849266990     1.4080860046
   83      C      -7.5600438478    -5.9814377953     1.0573989397
   84      C       6.2970179611     0.4552531159    -4.2354680658
   85      H       5.8340684973    -1.6366505485    -2.3697987883
   86      H       3.6995514134    -2.0146820225    -1.3349031302
   87      H       1.9385603975     1.1368373091    -3.7558852748
   88      H       1.6539382366    -2.9671699229    -1.7195010120
   89      H      -6.7258081562    -0.7452657511    -3.4273892531
   90      H      -7.0487098848    -3.0348068881    -2.0682859252
   91      H      -6.0838718603    -7.2449950299     2.1529044752
   92      H      -8.5306707503    -6.4205924471     1.2475031425
   93      H       6.9063310740    -0.4342352980    -4.4394628992
   94      C       7.0959405902     1.5350667901    -3.3955287456
   95      H       6.0586976421     0.8747417492    -5.2208262301
   96      H       6.4019452124     2.3828142499    -3.3227231143
   97      H       7.9845398023     1.6899444225    -4.0186999574
   98      C       7.4450749609     1.0092458680    -2.0652608969
   99      H       6.5240801411     0.9821715950    -1.4710349082
  100      C       8.4567561891     1.9431137222    -1.2497059180
  101      H       7.8742765906     0.0112550126    -2.2217575851
  102      H       7.9043391922     2.5810919020    -0.5499828989
  103      H       8.9569314240     2.7075263016    -1.8576468221
  104      C       9.4657798349     1.0577671981    -0.4746970055
  105      H       8.9217988420     0.2576462500     0.0429168928
  106      C      10.3398981927     1.7449226294     0.5655498449
  107      H      10.2246322946     0.5528804508    -1.0851503753
  108      H       9.7004038186     2.2750360077     1.2827002836
  109      H      11.0173808708     2.4883490310     0.1276167376
  110      H      10.9205656459     1.0221543251     1.1513358870
 ----------------------------------------------------------------

   10   -5663.4825152514      5.96E-06 Convergence criterion met
 Total energy in the final basis set = -5663.4825152514

                    Orbital Energies (a.u.)
 --------------------------------------------------------------

 Alpha MOs
 -- Occupied --
-88.987 -88.986 -88.932 -88.931 -88.925 -88.920 -88.911 -88.908
-14.389 -14.382 -14.377 -14.377 -14.349 -14.348 -14.345 -14.341
-14.330 -14.318 -10.274 -10.268 -10.264 -10.258 -10.254 -10.253
-10.252 -10.247 -10.242 -10.241 -10.240 -10.239 -10.239 -10.235
-10.233 -10.233 -10.233 -10.233 -10.228 -10.228 -10.227 -10.226
-10.225 -10.224 -10.224 -10.223 -10.222 -10.218 -10.212 -10.211
-10.210 -10.209 -10.208 -10.204 -10.203 -10.198 -10.196 -10.193
-10.191 -10.190 -10.182 -10.179 -10.177 -10.176 -10.175 -10.173
-10.170 -10.167 -10.166 -10.161  -8.042  -8.042  -7.994  -7.992
 -7.984  -7.978  -7.970  -7.968  -6.008  -6.007  -6.002  -6.002
 -6.000  -6.000  -5.958  -5.956  -5.955  -5.952  -5.951  -5.949
 -5.948  -5.944  -5.943  -5.940  -5.939  -5.935  -5.935  -5.932
 -5.931  -5.929  -5.926  -5.923  -1.051  -1.041  -0.971  -0.965
 -0.965  -0.961  -0.939  -0.938  -0.921  -0.911  -0.909  -0.899
 -0.841  -0.834  -0.833  -0.828  -0.814  -0.809  -0.808  -0.807
 -0.805  -0.804  -0.797  -0.791  -0.781  -0.780  -0.766  -0.764
 -0.750  -0.745  -0.737  -0.734  -0.728  -0.719  -0.707  -0.706
 -0.690  -0.687  -0.676  -0.671  -0.656  -0.654  -0.645  -0.644
 -0.638  -0.629  -0.627  -0.620  -0.617  -0.608  -0.602  -0.599
 -0.591  -0.590  -0.585  -0.579  -0.577  -0.574  -0.564  -0.558
 -0.553  -0.544  -0.543  -0.536  -0.526  -0.521  -0.516  -0.515
 -0.505  -0.504  -0.499  -0.497  -0.495  -0.485  -0.479  -0.476
 -0.473  -0.469  -0.467  -0.466  -0.460  -0.455  -0.449  -0.445
 -0.443  -0.441  -0.440  -0.435  -0.435  -0.433  -0.429  -0.428
 -0.427  -0.426  -0.424  -0.420  -0.418  -0.416  -0.412  -0.411
 -0.410  -0.409  -0.403  -0.402  -0.401  -0.400  -0.396  -0.395
 -0.394  -0.392  -0.389  -0.389  -0.386  -0.384  -0.384  -0.383
 -0.381  -0.374  -0.372  -0.372  -0.363  -0.359  -0.357  -0.356
 -0.352  -0.350  -0.348  -0.344  -0.343  -0.342  -0.341  -0.339
 -0.335  -0.334  -0.333  -0.330  -0.330  -0.327  -0.320  -0.319
 -0.315  -0.313  -0.311  -0.311  -0.306  -0.302  -0.298  -0.297
 -0.296  -0.293  -0.293  -0.288  -0.288  -0.284  -0.283  -0.279
 -0.272  -0.271  -0.265  -0.262  -0.258  -0.252  -0.248  -0.246
 -0.242  -0.238  -0.236  -0.224  -0.196  -0.190

          Ground-State Mulliken Net Atomic Charges

     Atom                 Charge (a.u.)
  ----------------------------------------
      1 C                     0.240393
      2 C                    -0.095947
      3 N                    -0.476694
      4 C                    -0.047362
      5 C                     0.083674
      6 C                     0.039283
      7 C                    -0.060801
      8 C                     0.059929
      9 C                     0.266813
     10 N                    -0.510107
     11 N                    -0.562961
     12 C                     0.189833
     13 C                     0.337362
     14 S                     0.605696
     15 N                    -0.564049
     16 C                    -0.213429
     17 S                     0.330005
     18 C                    -0.120171
     19 C                    -0.270624
     20 S                     0.286258
     21 C                     0.191121
     22 C                     0.073266
     23 C                    -0.311330
     24 C                    -0.072546
     25 N                    -0.441692
     26 S                     0.288094
     27 C                     0.126058
     28 C                    -0.297328
     29 C                    -0.226657
     30 H                     0.089181
     31 H                     0.105106
     32 H                     0.097767
     33 H                     0.119314
     34 H                     0.135094
     35 H                     0.124916
     36 H                     0.113304
     37 H                     0.126763
     38 H                     0.105782
     39 C                    -0.189548
     40 H                     0.123091
     41 H                     0.093519
     42 H                     0.093673
     43 C                    -0.163604
     44 H                     0.094130
     45 C                    -0.187422
     46 H                     0.107222
     47 H                     0.093370
     48 H                     0.108252
     49 C                    -0.185404
     50 H                     0.100558
     51 C                    -0.322372
     52 H                     0.086423
     53 H                     0.105203
     54 H                     0.096034
     55 H                     0.104378
     56 C                     0.256648
     57 C                    -0.097051
     58 N                    -0.472379
     59 C                    -0.088863
     60 C                     0.098669
     61 C                     0.016646
     62 C                     0.049737
     63 C                     0.067853
     64 C                     0.193223
     65 N                    -0.500127
     66 N                    -0.533629
     67 C                     0.221351
     68 C                     0.265222
     69 S                     0.628391
     70 N                    -0.566386
     71 C                    -0.238913
     72 S                     0.329719
     73 C                    -0.098730
     74 C                    -0.188972
     75 S                     0.259907
     76 C                     0.126926
     77 C                     0.052331
     78 C                    -0.286960
     79 C                    -0.104953
     80 N                    -0.423540
     81 S                     0.287754
     82 C                     0.115279
     83 C                    -0.324242
     84 C                    -0.244361
     85 H                     0.104149
     86 H                     0.096664
     87 H                     0.117903
     88 H                     0.111016
     89 H                     0.133906
     90 H                     0.105464
     91 H                     0.120590
     92 H                     0.137133
     93 H                     0.092490
     94 C                    -0.175052
     95 H                     0.111914
     96 H                     0.114068
     97 H                     0.095186
     98 C                    -0.178983
     99 H                     0.119984
    100 C                    -0.180480
    101 H                     0.088783
    102 H                     0.093849
    103 H                     0.091578
    104 C                    -0.179129
    105 H                     0.092849
    106 C                    -0.324743
    107 H                     0.094246
    108 H                     0.093038
    109 H                     0.103171
    110 H                     0.099039
  ----------------------------------------
  Sum of atomic charges =     0.000000

                    Cartesian Multipole Moments
 -----------------------------------------------------------------
    Charge (ESU x 10^10)
                 0.0000
    Dipole Moment (Debye)
         X      -1.8533      Y      -2.1488      Z       3.0075
       Tot       4.1348
    Quadrupole Moments (Debye-Ang)
        XX    -394.3553     XY      -8.2367     YY    -423.3433
        XZ      -3.4581     YZ       2.0275     ZZ    -447.3418

 Total job time:  118.59s(wall), 1305.45s(cpu)
        *  Thank you very much for using Q-Chem.  Have a nice day.  *
