 Q-Chem 4.4, Q-Chem, Inc., Pleasanton, CA (2016)
 Q-Chem 4.4.2 for Intel X86 Linux

User input:
--------------------------------------------------------------
$comment
SP
$end

$rem
MEM_STATIC 5000
MEM_TOTAL 20000
JOBTYPE SP
EXCHANGE B3LYP
BASIS 6-31g(d,p)
$end

$molecule
0 1
C          -8.279000    -15.364000     -6.257000
C          -7.573000    -14.737000     -5.218000
N          -9.618000    -15.737000     -6.101000
C          -8.198000    -14.393000     -3.978000
C         -10.179000    -15.354000     -4.880000
C          -9.548000    -14.703000     -3.794000
C         -10.243000    -14.298000     -2.543000
C          -9.680000    -14.324000     -1.264000
C         -11.621000    -13.991000     -2.548000
N         -10.384000    -14.140000     -0.128000
N         -12.310000    -13.764000     -3.659000
C         -12.354000    -13.678000     -1.409000
C         -11.707000    -13.806000     -0.168000
S         -13.766000    -13.265000     -3.220000
N         -13.614000    -13.233000     -1.613000
C         -12.466000    -13.804000      1.074000
S         -13.948000    -14.737000      1.326000
C         -12.006000    -13.493000      2.305000
C         -14.059000    -14.142000      3.026000
S         -10.397000    -12.747000      2.750000
C         -12.842000    -13.632000      3.376000
C         -15.045000    -14.619000      3.998000
C         -11.022000    -12.488000      4.376000
C         -12.284000    -12.969000      4.573000
N         -14.807000    -14.451000      5.306000
S         -16.553000    -15.202000      3.472000
C         -15.994000    -14.762000      5.982000
C         -16.945000    -15.287000      5.133000
C          -7.548000    -15.755000     -7.584000
H          -6.522000    -14.501000     -5.356000
H          -7.548000    -14.043000     -3.183000
H         -11.185000    -15.743000     -4.726000
H          -8.609000    -14.497000     -1.162000
H         -10.371000    -12.092000      5.144000
H         -12.755000    -12.827000      5.539000
H         -16.071000    -14.611000      7.050000
H         -17.961000    -15.541000      5.404000
H          -6.708000    -16.394000     -7.286000
C          -7.128000    -14.619000     -8.534000
H          -8.148000    -16.540000     -8.061000
H          -7.451000    -14.977000     -9.519000
H          -6.046000    -14.594000     -8.711000
C          -7.838000    -13.266000     -8.413000
H          -7.907000    -12.851000     -9.426000
C          -6.908000    -12.253000     -7.686000
H          -8.837000    -13.243000     -7.960000
H          -5.856000    -12.424000     -7.945000
H          -6.876000    -12.423000     -6.603000
C          -7.180000    -10.813000     -8.137000
H          -6.886000    -10.739000     -9.191000
C          -6.374000     -9.784000     -7.333000
H          -8.228000    -10.488000     -8.145000
H          -6.454000    -10.106000     -6.288000
H          -6.731000     -8.747000     -7.309000
H          -5.313000     -9.850000     -7.606000
C         -13.931000    -15.991000    -14.848000
C         -13.254000    -16.821000    -13.951000
N         -14.752000    -14.968000    -14.469000
C         -13.377000    -16.439000    -12.633000
C         -14.915000    -14.675000    -13.222000
C         -14.285000    -15.448000    -12.177000
C         -14.487000    -15.030000    -10.753000
C         -14.394000    -16.027000     -9.744000
C         -14.818000    -13.744000    -10.285000
N         -14.726000    -15.817000     -8.475000
N         -14.843000    -12.585000    -11.017000
C         -15.141000    -13.495000     -8.959000
C         -15.145000    -14.612000     -8.096000
S         -14.930000    -11.412000     -9.981000
N         -15.327000    -12.236000     -8.623000
C         -15.740000    -14.597000     -6.698000
S         -15.107000    -15.727000     -5.414000
C         -16.777000    -13.847000     -6.192000
C         -16.244000    -15.130000     -4.218000
S         -17.986000    -12.833000     -7.027000
C         -17.070000    -14.207000     -4.857000
C         -16.424000    -15.469000     -2.796000
C         -18.749000    -12.556000     -5.419000
C         -18.282000    -13.496000     -4.481000
N         -15.487000    -16.289000     -2.363000
S         -17.280000    -14.573000     -1.554000
C         -15.555000    -16.465000     -0.989000
C         -16.464000    -15.558000     -0.386000
C         -13.837000    -16.250000    -16.326000
H         -12.565000    -17.625000    -14.190000
H         -12.745000    -16.929000    -11.898000
H         -15.540000    -13.802000    -13.040000
H         -14.144000    -17.029000    -10.089000
H         -19.648000    -11.954000     -5.396000
H         -18.757000    -13.650000     -3.519000
H         -14.854000    -17.100000     -0.463000
H         -16.804000    -15.530000      0.641000
H         -13.762000    -17.330000    -16.505000
C         -12.653000    -15.456000    -17.017000
H         -14.786000    -15.946000    -16.785000
H         -12.886000    -14.402000    -16.816000
H         -12.745000    -15.781000    -18.060000
C         -11.356000    -15.841000    -16.436000
H         -11.298000    -15.393000    -15.437000
C         -10.096000    -15.268000    -17.239000
H         -11.335000    -16.938000    -16.407000
H          -9.727000    -14.352000    -16.763000
H         -10.333000    -14.886000    -18.240000
C          -8.974000    -16.337000    -17.270000
H          -8.839000    -16.749000    -16.262000
C          -7.601000    -15.892000    -17.755000
H          -9.156000    -17.201000    -17.921000
H          -7.266000    -15.035000    -17.157000
H          -7.604000    -15.571000    -18.804000
H          -6.846000    -16.675000    -17.615000
$end

--------------------------------------------------------------

             Standard Nuclear Orientation (Angstroms)
    I     Atom           X                Y                Z
 ----------------------------------------------------------------
    1      C       1.6772711100    -4.5007407754    -1.4375594374
    2      C       0.7136675561    -5.3937673960    -0.9425264630
    3      N       1.3614847169    -3.1621285284    -1.6920829257
    4      C      -0.6134120888    -4.9709141789    -0.6160057550
    5      C       0.0599356695    -2.8039078283    -1.3316678770
    6      C      -0.9613332135    -3.6313878451    -0.8085572861
    7      C      -2.3115037934    -3.1470278936    -0.4155104152
    8      C      -3.5012371691    -3.8639984721    -0.5703447916
    9      C      -2.5049326435    -1.8177671108     0.0190112197
   10      N      -4.7284268857    -3.3337422026    -0.3892324278
   11      N      -1.5077387717    -1.0182882822     0.3753944191
   12      C      -3.7450001941    -1.2722772269     0.3308641602
   13      C      -4.8811265249    -2.0569726127     0.0690548558
   14      S      -2.1600993220     0.3116117668     0.9815706080
   15      N      -3.7321302641    -0.0477978782     0.9033374692
   16      C      -6.2120792412    -1.4677247801     0.0681281157
   17      S      -6.6157953956     0.0560557269    -0.7352542548
   18      C      -7.3838169075    -2.1108581521     0.2607217482
   19      C      -8.3413517291    -0.1125170829    -0.2348698545
   20      S      -7.6443797197    -3.8305471536     0.8248128393
   21      C      -8.5491756625    -1.4094961973     0.1370755573
   22      C      -9.4129234943     0.7835833786    -0.6744684382
   23      C      -9.3495988875    -3.4486672469     1.0438501112
   24      C      -9.6906374433    -2.1804071547     0.6723355865
   25      N     -10.6838414227     0.3639978482    -0.6077780946
   26      S      -9.0663144710     2.3976025245    -1.0812034645
   27      C     -11.4969989442     1.4796711719    -0.8459248559
   28      C     -10.7589727188     2.5797600120    -1.2279573606
   29      C       3.1068293897    -5.0122756404    -1.8155359007
   30      H       0.9795858558    -6.4367489203    -0.7982420286
   31      H      -1.3299889358    -5.7494794712    -0.3764672235
   32      H      -0.2086541573    -1.7919665235    -1.6331762527
   33      H      -3.4510978517    -4.9163161521    -0.8487106465
   34      H     -10.0414660161    -4.2293874255     1.3306198430
   35      H     -10.7164582323    -1.8539836306     0.8000085738
   36      H     -12.5716006400     1.4033768120    -0.7523066630
   37      H     -11.1510368927     3.5729557635    -1.4013381051
   38      H       2.9538958378    -5.8149043992    -2.5470571951
   39      C       4.0502079648    -5.4191561364    -0.6692893626
   40      H       3.5356346107    -4.2800354648    -2.5110245115
   41      H       4.9989143426    -4.9380222964    -0.9360934795
   42      H       4.3687454370    -6.4664656182    -0.7352797282
   43      C       3.7723117649    -4.8704695331     0.7346574717
   44      H       4.7464893130    -4.7141967066     1.2139401737
   45      C       3.1294221040    -5.9833351979     1.6109113709
   46      H       3.1893891086    -3.9453012307     0.8241213691
   47      H       3.5342985111    -6.9707825033     1.3578325018
   48      H       2.0695453248    -6.1367630950     1.3744074739
   49      C       3.4721900441    -5.8021402913     3.0943747325
   50      H       4.5513834198    -5.9643976476     3.2031966422
   51      C       2.7357678262    -6.8041598298     3.9935588969
   52      H       3.3249563546    -4.7998868008     3.5160418778
   53      H       1.7056639800    -6.8269021413     3.6187551438
   54      H       2.6158189892    -6.5594690193     5.0561654487
   55      H       3.1507926654    -7.8092656119     3.8448217143
   56      C       9.4564136655     2.2411607155    -1.0189672863
   57      C       8.6976763060     1.5417176205    -1.9607395391
   58      N       8.9237300158     2.8994894798     0.0520426891
   59      C       7.3586395736     1.4554587037    -1.6481423082
   60      C       7.6538013904     2.8707701022     0.2841708515
   61      C       6.7396100057     2.1929638214    -0.6053721536
   62      C       5.2834059733     2.1674179400    -0.2559136812
   63      C       4.3436226571     2.0465991378    -1.3156066252
   64      C       4.7157465609     2.3044001472     1.0252497223
   65      N       3.0332307347     2.1901524035    -1.1514406433
   66      N       5.3828180595     2.3062663889     2.2230569410
   67      C       3.3483053099     2.4278312007     1.2239333908
   68      C       2.5457142192     2.4335352788     0.0627749155
   69      S       4.2907435284     2.1410084232     3.3351976799
   70      N       2.9319440280     2.4414145509     2.4725453303
   71      C       1.0816230506     2.8396515577     0.0501014059
   72      S      -0.0520604038     2.1641722614    -1.2087609954
   73      C       0.4071456355     3.7222857869     0.8624695700
   74      C      -1.4157910409     3.0723309024    -0.5802065967
   75      S       1.0248559878     4.9201133371     2.0332578004
   76      C      -0.9367061325     3.8763024270     0.4525728755
   77      C      -2.8316602097     3.1015816481    -0.9850076476
   78      C      -0.6818146601     5.4386415273     2.2841877021
   79      C      -1.5040359776     4.9522030578     1.2503295298
   80      N      -3.0968140150     2.2041584220    -1.9135457527
   81      S      -4.2173929615     3.6964861274    -0.0883753924
   82      C      -4.4578360342     2.1126518507    -2.1639885819
   83      C      -5.2185900925     2.8407398885    -1.2133676943
   84      C      10.9442132940     2.3641750016    -1.1970704891
   85      H       9.0638953572     0.9735969435    -2.8100807560
   86      H       6.7383557765     0.7869569945    -2.2381444064
   87      H       7.3493270225     3.3761131103     1.1994859903
   88      H       4.7654157578     1.9451429694    -2.3142688434
   89      H      -0.8527990853     6.2620133438     2.9653317236
   90      H      -2.5125824481     5.3128995147     1.0844467915
   91      H      -4.8552245249     1.4174994219    -2.8921008591
   92      H      -6.2819700568     3.0415724088    -1.2149007755
   93      H      11.1819567623     2.4219282941    -2.2667473565
   94      C      11.7492215484     1.2047385072    -0.4777362651
   95      H      11.2576447309     3.3287456677    -0.7786661818
   96      H      11.4698168863     1.3026641578     0.5795950934
   97      H      12.7846476752     1.4620860733    -0.7299325502
   98      C      11.3652784462    -0.1106679905    -1.0165204892
   99      H      10.3631146336    -0.3412131934    -0.6362763546
  100      C      12.3016484664    -1.3084544879    -0.5172643508
  101      H      11.3906989792    -0.0246180232    -2.1104309973
  102      H      11.8368569449    -1.8258551762     0.3301188974
  103      H      13.2430563327    -0.9846483584    -0.0557507326
  104      C      12.5321805010    -2.3037759925    -1.6829384405
  105      H      11.5716257872    -2.5248252029    -2.1651260475
  106      C      13.1748284175    -3.6409647856    -1.3404347366
  107      H      13.1927499991    -1.9536503350    -2.4857341568
  108      H      12.5874844692    -4.1345344347    -0.5557729702
  109      H      14.1978551619    -3.5357203129    -0.9586090155
  110      H      13.1736916790    -4.3249526911    -2.1976822230
 ----------------------------------------------------------------

    9   -5663.4641662174      8.67E-06 Convergence criterion met
 Total energy in the final basis set = -5663.4641662174

                    Orbital Energies (a.u.)
 --------------------------------------------------------------

 Alpha MOs
 -- Occupied --
-88.991 -88.981 -88.933 -88.932 -88.924 -88.918 -88.912 -88.898
-14.382 -14.381 -14.377 -14.368 -14.348 -14.348 -14.345 -14.344
-14.337 -14.324 -10.270 -10.268 -10.262 -10.256 -10.256 -10.251
-10.244 -10.244 -10.243 -10.242 -10.237 -10.237 -10.237 -10.236
-10.234 -10.234 -10.234 -10.234 -10.233 -10.232 -10.229 -10.227
-10.226 -10.226 -10.223 -10.222 -10.222 -10.218 -10.218 -10.216
-10.213 -10.213 -10.212 -10.211 -10.206 -10.199 -10.199 -10.194
-10.189 -10.184 -10.182 -10.181 -10.180 -10.179 -10.179 -10.179
-10.175 -10.173 -10.170 -10.169  -8.047  -8.037  -7.995  -7.994
 -7.981  -7.978  -7.972  -7.958  -6.012  -6.007  -6.005  -6.001
 -5.996  -5.995  -5.959  -5.958  -5.956  -5.954  -5.952  -5.951
 -5.946  -5.942  -5.942  -5.939  -5.938  -5.936  -5.934  -5.933
 -5.927  -5.922  -5.918  -5.913  -1.055  -1.043  -0.968  -0.967
 -0.965  -0.951  -0.945  -0.917  -0.913  -0.910  -0.903  -0.903
 -0.837  -0.835  -0.832  -0.829  -0.819  -0.813  -0.809  -0.809
 -0.806  -0.804  -0.795  -0.792  -0.783  -0.777  -0.768  -0.765
 -0.748  -0.746  -0.738  -0.733  -0.724  -0.722  -0.710  -0.707
 -0.692  -0.690  -0.675  -0.670  -0.657  -0.654  -0.649  -0.641
 -0.634  -0.632  -0.625  -0.622  -0.612  -0.610  -0.602  -0.595
 -0.594  -0.593  -0.580  -0.579  -0.577  -0.576  -0.569  -0.567
 -0.548  -0.547  -0.539  -0.536  -0.525  -0.524  -0.518  -0.509
 -0.509  -0.502  -0.502  -0.498  -0.485  -0.483  -0.479  -0.475
 -0.472  -0.471  -0.467  -0.466  -0.464  -0.463  -0.450  -0.446
 -0.445  -0.442  -0.439  -0.438  -0.436  -0.434  -0.433  -0.432
 -0.428  -0.425  -0.424  -0.418  -0.417  -0.414  -0.414  -0.412
 -0.412  -0.410  -0.406  -0.401  -0.400  -0.396  -0.396  -0.394
 -0.394  -0.390  -0.389  -0.388  -0.387  -0.387  -0.386  -0.383
 -0.381  -0.378  -0.375  -0.373  -0.366  -0.360  -0.360  -0.355
 -0.351  -0.349  -0.348  -0.346  -0.343  -0.340  -0.338  -0.335
 -0.334  -0.334  -0.332  -0.331  -0.330  -0.324  -0.323  -0.322
 -0.318  -0.314  -0.313  -0.306  -0.305  -0.301  -0.300  -0.297
 -0.293  -0.292  -0.289  -0.288  -0.287  -0.287  -0.283  -0.281
 -0.274  -0.271  -0.269  -0.262  -0.257  -0.252  -0.248  -0.246
 -0.244  -0.241  -0.230  -0.229  -0.194  -0.193

          Ground-State Mulliken Net Atomic Charges

     Atom                 Charge (a.u.)
  ----------------------------------------
      1 C                     0.248276
      2 C                    -0.104408
      3 N                    -0.486714
      4 C                    -0.095055
      5 C                     0.083784
      6 C                     0.061971
      7 C                     0.069947
      8 C                     0.057905
      9 C                     0.196324
     10 N                    -0.501327
     11 N                    -0.531289
     12 C                     0.182573
     13 C                     0.247206
     14 S                     0.637196
     15 N                    -0.549191
     16 C                    -0.201508
     17 S                     0.306356
     18 C                    -0.100839
     19 C                    -0.269069
     20 S                     0.243826
     21 C                     0.168677
     22 C                     0.072120
     23 C                    -0.290053
     24 C                    -0.051858
     25 N                    -0.437627
     26 S                     0.291611
     27 C                     0.115956
     28 C                    -0.319404
     29 C                    -0.238204
     30 H                     0.089992
     31 H                     0.101371
     32 H                     0.121648
     33 H                     0.106744
     34 H                     0.129254
     35 H                     0.120140
     36 H                     0.120426
     37 H                     0.124112
     38 H                     0.106775
     39 C                    -0.186126
     40 H                     0.120844
     41 H                     0.100915
     42 H                     0.098255
     43 C                    -0.182022
     44 H                     0.093217
     45 C                    -0.170898
     46 H                     0.117760
     47 H                     0.086963
     48 H                     0.091109
     49 C                    -0.181385
     50 H                     0.092429
     51 C                    -0.323150
     52 H                     0.092508
     53 H                     0.100952
     54 H                     0.099960
     55 H                     0.100438
     56 C                     0.255496
     57 C                    -0.095491
     58 N                    -0.471031
     59 C                    -0.092116
     60 C                     0.096977
     61 C                     0.018598
     62 C                     0.044808
     63 C                     0.067325
     64 C                     0.200437
     65 N                    -0.494840
     66 N                    -0.526173
     67 C                     0.226693
     68 C                     0.270564
     69 S                     0.612118
     70 N                    -0.556505
     71 C                    -0.239310
     72 S                     0.339366
     73 C                    -0.098066
     74 C                    -0.211146
     75 S                     0.257068
     76 C                     0.132645
     77 C                     0.049176
     78 C                    -0.286459
     79 C                    -0.103072
     80 N                    -0.425962
     81 S                     0.291752
     82 C                     0.111925
     83 C                    -0.309490
     84 C                    -0.244483
     85 H                     0.102866
     86 H                     0.095601
     87 H                     0.119242
     88 H                     0.112582
     89 H                     0.134541
     90 H                     0.107287
     91 H                     0.127789
     92 H                     0.141731
     93 H                     0.094054
     94 C                    -0.174825
     95 H                     0.113364
     96 H                     0.113059
     97 H                     0.097854
     98 C                    -0.174302
     99 H                     0.105823
    100 C                    -0.180062
    101 H                     0.090890
    102 H                     0.093538
    103 H                     0.092567
    104 C                    -0.175324
    105 H                     0.093087
    106 C                    -0.322909
    107 H                     0.094117
    108 H                     0.096710
    109 H                     0.101360
    110 H                     0.099140
  ----------------------------------------
  Sum of atomic charges =     0.000000

                    Cartesian Multipole Moments
 -----------------------------------------------------------------
    Charge (ESU x 10^10)
                 0.0000
    Dipole Moment (Debye)
         X      -0.6295      Y       0.4876      Z       0.4874
       Tot       0.9335
    Quadrupole Moments (Debye-Ang)
        XX    -404.3869     XY     -37.2542     YY    -420.1143
        XZ     -10.1538     YZ       5.0275     ZZ    -444.7644

 Total job time:  93.58s(wall), 1007.09s(cpu)
        *  Thank you very much for using Q-Chem.  Have a nice day.  *
