 Q-Chem 4.4, Q-Chem, Inc., Pleasanton, CA (2016)
 Q-Chem 4.4.2 for Intel X86 Linux

User input:
--------------------------------------------------------------
$comment
SP
$end

$rem
MEM_STATIC 5000
MEM_TOTAL 20000
JOBTYPE SP
EXCHANGE B3LYP
BASIS 6-31g(d,p)
$end

$molecule
0 1
C         -16.162000    -19.596000    -14.059000
C         -16.323000    -18.375000    -13.435000
N         -16.616000    -20.712000    -13.493000
C         -16.891000    -18.259000    -12.188000
C         -17.283000    -20.636000    -12.317000
C         -17.492000    -19.442000    -11.607000
C         -18.369000    -19.392000    -10.387000
C         -18.194000    -18.491000     -9.357000
C         -19.602000    -20.134000    -10.300000
N         -19.004000    -18.333000     -8.286000
N         -20.006000    -21.026000    -11.276000
C         -20.439000    -20.039000     -9.231000
C         -20.106000    -19.127000     -8.164000
S         -21.384000    -21.702000    -10.670000
N         -21.579000    -20.858000     -9.273000
C         -21.047000    -18.877000     -7.010000
S         -22.273000    -19.993000     -6.436000
C         -21.074000    -17.751000     -6.211000
C         -22.721000    -18.929000     -5.112000
S         -20.085000    -16.246000     -6.315000
C         -21.942000    -17.815000     -5.095000
C         -23.771000    -19.211000     -4.042000
C         -20.932000    -15.734000     -4.897000
C         -21.913000    -16.591000     -4.394000
N         -24.090000    -18.306000     -3.090000
S         -24.944000    -20.541000     -4.309000
C         -25.158000    -18.708000     -2.386000
C         -25.703000    -19.829000     -2.924000
C         -15.416000    -19.686000    -15.384000
H         -15.971000    -17.468000    -13.917000
H         -16.906000    -17.300000    -11.678000
H         -17.722000    -21.516000    -11.851000
H         -17.286000    -17.891000     -9.395000
H         -20.632000    -14.720000     -4.666000
H         -22.643000    -16.301000     -3.648000
H         -25.498000    -18.131000     -1.536000
H         -26.616000    -20.328000     -2.628000
H         -15.867000    -18.890000    -15.989000
C         -15.683000    -21.032000    -16.176000
H         -14.335000    -19.505000    -15.356000
H         -16.719000    -21.173000    -16.506000
H         -15.524000    -21.885000    -15.505000
C         -14.804000    -21.073000    -17.468000
H         -14.959000    -20.231000    -18.153000
C         -14.997000    -22.389000    -18.364000
H         -13.757000    -20.917000    -17.180000
H         -14.900000    -23.263000    -17.708000
H         -14.189000    -22.497000    -19.098000
C         -16.316000    -22.385000    -19.181000
H         -17.220000    -22.551000    -18.582000
C         -16.181000    -23.573000    -20.198000
H         -16.443000    -21.415000    -19.677000
H         -15.288000    -23.501000    -20.831000
H         -17.021000    -23.570000    -20.904000
H         -16.154000    -24.597000    -19.806000
C         -13.931000    -15.991000    -14.848000
C         -13.254000    -16.821000    -13.951000
N         -14.752000    -14.968000    -14.469000
C         -13.377000    -16.439000    -12.633000
C         -14.915000    -14.675000    -13.222000
C         -14.285000    -15.448000    -12.177000
C         -14.487000    -15.030000    -10.753000
C         -14.394000    -16.027000     -9.744000
C         -14.818000    -13.744000    -10.285000
N         -14.726000    -15.817000     -8.475000
N         -14.843000    -12.585000    -11.017000
C         -15.141000    -13.495000     -8.959000
C         -15.145000    -14.612000     -8.096000
S         -14.930000    -11.412000     -9.981000
N         -15.327000    -12.236000     -8.623000
C         -15.740000    -14.597000     -6.698000
S         -15.107000    -15.727000     -5.414000
C         -16.777000    -13.847000     -6.192000
C         -16.244000    -15.130000     -4.218000
S         -17.986000    -12.833000     -7.027000
C         -17.070000    -14.207000     -4.857000
C         -16.424000    -15.469000     -2.796000
C         -18.749000    -12.556000     -5.419000
C         -18.282000    -13.496000     -4.481000
N         -15.487000    -16.289000     -2.363000
S         -17.280000    -14.573000     -1.554000
C         -15.555000    -16.465000     -0.989000
C         -16.464000    -15.558000     -0.386000
C         -13.837000    -16.250000    -16.326000
H         -12.565000    -17.625000    -14.190000
H         -12.745000    -16.929000    -11.898000
H         -15.540000    -13.802000    -13.040000
H         -14.144000    -17.029000    -10.089000
H         -19.648000    -11.954000     -5.396000
H         -18.757000    -13.650000     -3.519000
H         -14.854000    -17.100000     -0.463000
H         -16.804000    -15.530000      0.641000
H         -13.762000    -17.330000    -16.505000
C         -12.653000    -15.456000    -17.017000
H         -14.786000    -15.946000    -16.785000
H         -12.886000    -14.402000    -16.816000
H         -12.745000    -15.781000    -18.060000
C         -11.356000    -15.841000    -16.436000
H         -11.298000    -15.393000    -15.437000
C         -10.096000    -15.268000    -17.239000
H         -11.335000    -16.938000    -16.407000
H          -9.727000    -14.352000    -16.763000
H         -10.333000    -14.886000    -18.240000
C          -8.974000    -16.337000    -17.270000
H          -8.839000    -16.749000    -16.262000
C          -7.601000    -15.892000    -17.755000
H          -9.156000    -17.201000    -17.921000
H          -7.266000    -15.035000    -17.157000
H          -7.604000    -15.571000    -18.804000
H          -6.846000    -16.675000    -17.615000
$end

--------------------------------------------------------------

             Standard Nuclear Orientation (Angstroms)
    I     Atom           X                Y                Z
 ----------------------------------------------------------------
    1      C      -4.6429027896     2.5628717503     0.3982661326
    2      C      -3.9654219610     1.5491910104    -0.2495062691
    3      N      -3.9806301256     3.4856527100     1.0923829952
    4      C      -2.6009733340     1.4046765854    -0.1573947874
    5      C      -2.6272235713     3.4512802302     1.1197733480
    6      C      -1.8528203012     2.4589634168     0.4960555294
    7      C      -0.3539593137     2.5532831793     0.4286127938
    8      C       0.4786323976     1.4547141133     0.3714896841
    9      C       0.3241879683     3.8030243981     0.1905263602
   10      N       1.8210754695     1.4757346802     0.2117720135
   11      N      -0.3427686394     5.0121275439     0.1220101859
   12      C       1.6757871621     3.8875760388     0.0549327045
   13      C       2.4582725209     2.6766200731     0.1041700114
   14      S       0.8566024321     6.1349240659    -0.0326927648
   15      N       2.1916815736     5.1807837369    -0.1283479703
   16      C       3.9442832919     2.6796379894    -0.1631497985
   17      S       5.0150357877     4.0522440446     0.0546797448
   18      C       4.6964271681     1.6036259284    -0.5914996952
   19      C       6.4306427022     3.1047861778    -0.3744550290
   20      S       4.1693300316    -0.0680733998    -1.0175888464
   21      C       6.0961800655     1.8104512306    -0.6213513415
   22      C       7.8748461500     3.5955866192    -0.3922125101
   23      C       5.8447444654    -0.3986424842    -1.2895953823
   24      C       6.7406005252     0.6590831511    -1.1208428997
   25      N       8.8981663873     2.8079065231    -0.7915441495
   26      S       8.1902521910     5.3605200979    -0.3516311711
   27      C      10.0336526337     3.5135879663    -0.8941535293
   28      C       9.8018654033     4.8392519307    -0.7152688372
   29      C      -6.1651415172     2.6080938869     0.3668780042
   30      H      -4.5135874694     0.8160626975    -0.8333850683
   31      H      -2.1098904890     0.5369743766    -0.5885983543
   32      H      -2.0460675029     4.2202165095     1.6250174698
   33      H       0.0041674153     0.4861754644     0.5222340578
   34      H       5.9368738189    -1.4046189612    -1.6782861462
   35      H       7.7710370449     0.6363824065    -1.4543114215
   36      H      10.9643540526     3.0153030669    -1.1319265893
   37      H      10.5039837989     5.6544168443    -0.8280603364
   38      H      -6.4059894756     2.4669486574    -0.6938350980
   39      C      -6.7694819445     4.0185967866     0.7612423254
   40      H      -6.6945444920     1.8306670881     0.9303015241
   41      H      -6.5189216212     4.8343633943     0.0728954898
   42      H      -6.3233293390     4.3527569671     1.7059199564
   43      C      -8.3303078134     3.9389327501     0.7938344775
   44      H      -8.7910328555     3.6150355153    -0.1469295827
   45      C      -9.0602912301     5.3162341344     1.1707775875
   46      H      -8.6216372903     3.1186668397     1.4615020386
   47      H      -8.5957305630     5.7071150655     2.0845699514
   48      H     -10.1118743639     5.1534515586     1.4371584159
   49      C      -9.0703204794     6.3419992966     0.0067452657
   50      H      -8.0977357351     6.8081000620    -0.1942572006
   51      C     -10.0676347171     7.4693575700     0.4520380172
   52      H      -9.3780178865     5.8468279771    -0.9223255982
   53      H     -11.0682356916     7.0906057850     0.6942502695
   54      H     -10.2323041901     8.1804432209    -0.3672825317
   55      H      -9.7992995152     8.0960572528     1.3112310846
   56      C      -6.2939324020    -1.1914559448    -0.9340370522
   57      C      -5.9234604310    -1.2487869066     0.4118090309
   58      N      -5.4919394866    -1.5937021600    -1.9632194199
   59      C      -4.7165570519    -1.8750790160     0.6338888075
   60      C      -4.3292534369    -2.1078002318    -1.7367435439
   61      C      -3.8052759324    -2.2265542560    -0.3959232516
   62      C      -2.4650848295    -2.8666685774    -0.2024149491
   63      C      -1.7037342106    -2.4920937073     0.9381015575
   64      C      -1.8288568366    -3.7804552864    -1.0641508667
   65      N      -0.4385633614    -2.8520303683     1.1237714867
   66      N      -2.3812520363    -4.4027178230    -2.1538200270
   67      C      -0.5178037714    -4.1926681259    -0.8748721434
   68      C       0.1634807344    -3.6258393482     0.2237772816
   69      S      -1.3934728019    -5.5529414032    -2.5514025965
   70      N      -0.0709119078    -5.1298853186    -1.6838743660
   71      C       1.6655949358    -3.7263495545     0.4292149225
   72      S       2.3737002572    -3.6549146112     2.1084197648
   73      C       2.6744275386    -3.8377857586    -0.5001632309
   74      C       4.0150430709    -3.8095521997     1.5070255645
   75      S       2.6429085356    -3.6256834662    -2.2724840737
   76      C       3.9467408826    -3.8152433244     0.1149665061
   77      C       5.3037933650    -3.8961664468     2.2148572195
   78      C       4.4247063702    -3.8893538788    -2.2571090868
   79      C       4.9338265187    -3.7542732432    -0.9517038254
   80      N       5.1439400684    -3.9679629506     3.5214367944
   81      S       6.8532744638    -4.4533228418     1.6092161742
   82      C       6.3417434173    -4.2269867241     4.1707824822
   83      C       7.3746126026    -4.5611440931     3.2575141214
   84      C      -7.6159250732    -0.5899795062    -1.3225759448
   85      H      -6.5263494855    -0.9767294217     1.2724875499
   86      H      -4.4435788009    -2.1094050638     1.6587415666
   87      H      -3.8047646799    -2.4510704160    -2.6272238213
   88      H      -2.1785975167    -1.7816319234     1.6128443930
   89      H       4.9424993324    -3.8197360612    -3.2048315186
   90      H       5.9932712107    -3.6622106664    -0.7422129510
   91      H       6.3933166627    -4.3279026500     5.2470994319
   92      H       8.4284366053    -4.7045645560     3.4575104768
   93      H      -7.8621698925     0.2293144247    -0.6354173432
   94      C      -8.7808543259    -1.6606715385    -1.4021460896
   95      H      -7.4980928096    -0.1173613079    -2.3056555939
   96      H      -8.4349647430    -2.3748496383    -2.1610374113
   97      H      -9.6385776369    -1.0371504163    -1.6804806581
   98      C      -8.9798385244    -2.3148692249    -0.0981423795
   99      H      -8.1357138264    -2.9966133392     0.0591708648
  100      C     -10.2909670291    -3.2298371750    -0.0309583457
  101      H      -9.0215291702    -1.5163860266     0.6537734882
  102      H     -10.0308333059    -4.2797454285    -0.2093290421
  103      H     -11.0016837876    -3.0629089926    -0.8501717923
  104      C     -10.9552246211    -3.0785846831     1.3613385103
  105      H     -10.1869887754    -3.1655203705     2.1399840468
  106      C     -12.0605266768    -4.0637108539     1.7166029096
  107      H     -11.4592077884    -2.1222886024     1.5482068413
  108      H     -11.6816833117    -5.0878190127     1.6072494287
  109      H     -12.9369951955    -3.9732622868     1.0630946904
  110      H     -12.3735972698    -3.9647405743     2.7629803212
 ----------------------------------------------------------------

   10   -5663.4949156687      6.14E-06 Convergence criterion met
 Total energy in the final basis set = -5663.4949156687

                    Orbital Energies (a.u.)
 --------------------------------------------------------------

 Alpha MOs
 -- Occupied --
-88.994 -88.988 -88.932 -88.926 -88.923 -88.921 -88.913 -88.901
-14.391 -14.385 -14.385 -14.384 -14.352 -14.348 -14.343 -14.343
-14.330 -14.324 -10.274 -10.269 -10.267 -10.266 -10.260 -10.255
-10.254 -10.254 -10.243 -10.242 -10.242 -10.239 -10.238 -10.237
-10.235 -10.235 -10.234 -10.232 -10.232 -10.231 -10.229 -10.225
-10.225 -10.224 -10.224 -10.223 -10.222 -10.219 -10.217 -10.215
-10.214 -10.214 -10.211 -10.209 -10.205 -10.199 -10.189 -10.189
-10.188 -10.185 -10.184 -10.184 -10.181 -10.181 -10.180 -10.177
-10.177 -10.175 -10.171 -10.170  -8.051  -8.043  -7.993  -7.987
 -7.980  -7.980  -7.973  -7.960  -6.015  -6.010  -6.009  -6.008
 -6.003  -6.001  -5.957  -5.953  -5.950  -5.950  -5.948  -5.945
 -5.944  -5.944  -5.941  -5.941  -5.937  -5.937  -5.937  -5.934
 -5.928  -5.925  -5.921  -5.917  -1.058  -1.024  -0.969  -0.966
 -0.966  -0.952  -0.948  -0.936  -0.917  -0.906  -0.903  -0.890
 -0.840  -0.838  -0.834  -0.825  -0.817  -0.813  -0.808  -0.804
 -0.802  -0.798  -0.792  -0.788  -0.785  -0.777  -0.770  -0.761
 -0.751  -0.741  -0.739  -0.736  -0.723  -0.716  -0.713  -0.701
 -0.693  -0.688  -0.677  -0.666  -0.661  -0.653  -0.651  -0.635
 -0.634  -0.630  -0.628  -0.619  -0.614  -0.605  -0.603  -0.596
 -0.594  -0.586  -0.582  -0.581  -0.579  -0.576  -0.573  -0.565
 -0.551  -0.546  -0.540  -0.532  -0.526  -0.519  -0.518  -0.514
 -0.508  -0.505  -0.504  -0.495  -0.489  -0.487  -0.479  -0.478
 -0.474  -0.472  -0.468  -0.463  -0.463  -0.455  -0.453  -0.447
 -0.444  -0.440  -0.440  -0.437  -0.435  -0.432  -0.429  -0.429
 -0.424  -0.423  -0.418  -0.416  -0.416  -0.414  -0.412  -0.410
 -0.406  -0.406  -0.404  -0.404  -0.403  -0.399  -0.398  -0.397
 -0.393  -0.391  -0.390  -0.389  -0.388  -0.387  -0.383  -0.381
 -0.378  -0.376  -0.372  -0.369  -0.369  -0.362  -0.359  -0.358
 -0.352  -0.351  -0.349  -0.348  -0.345  -0.343  -0.340  -0.338
 -0.337  -0.334  -0.333  -0.331  -0.330  -0.328  -0.327  -0.322
 -0.319  -0.316  -0.310  -0.309  -0.304  -0.303  -0.297  -0.296
 -0.296  -0.296  -0.295  -0.293  -0.291  -0.282  -0.281  -0.279
 -0.278  -0.273  -0.272  -0.265  -0.252  -0.250  -0.247  -0.245
 -0.243  -0.240  -0.234  -0.227  -0.194  -0.189

          Ground-State Mulliken Net Atomic Charges

     Atom                 Charge (a.u.)
  ----------------------------------------
      1 C                     0.293760
      2 C                    -0.110814
      3 N                    -0.512012
      4 C                    -0.074384
      5 C                     0.100871
      6 C                     0.017059
      7 C                     0.050098
      8 C                     0.045538
      9 C                     0.223950
     10 N                    -0.524195
     11 N                    -0.550688
     12 C                     0.196116
     13 C                     0.289403
     14 S                     0.613895
     15 N                    -0.551097
     16 C                    -0.230444
     17 S                     0.323399
     18 C                    -0.121807
     19 C                    -0.257340
     20 S                     0.304806
     21 C                     0.165210
     22 C                     0.064784
     23 C                    -0.308235
     24 C                    -0.064639
     25 N                    -0.433701
     26 S                     0.270244
     27 C                     0.148961
     28 C                    -0.318778
     29 C                    -0.248136
     30 H                     0.092188
     31 H                     0.100627
     32 H                     0.113302
     33 H                     0.115973
     34 H                     0.118012
     35 H                     0.121899
     36 H                     0.118758
     37 H                     0.120451
     38 H                     0.116876
     39 C                    -0.169996
     40 H                     0.112533
     41 H                     0.100918
     42 H                     0.120896
     43 C                    -0.196127
     44 H                     0.084211
     45 C                    -0.173810
     46 H                     0.077703
     47 H                     0.095175
     48 H                     0.087822
     49 C                    -0.169260
     50 H                     0.102357
     51 C                    -0.329531
     52 H                     0.096401
     53 H                     0.100838
     54 H                     0.093173
     55 H                     0.106929
     56 C                     0.247853
     57 C                    -0.095062
     58 N                    -0.465001
     59 C                    -0.086617
     60 C                     0.085839
     61 C                     0.018220
     62 C                     0.041221
     63 C                     0.057506
     64 C                     0.199389
     65 N                    -0.497824
     66 N                    -0.528491
     67 C                     0.225603
     68 C                     0.268338
     69 S                     0.614208
     70 N                    -0.552148
     71 C                    -0.235253
     72 S                     0.347024
     73 C                    -0.096718
     74 C                    -0.181936
     75 S                     0.259614
     76 C                     0.130950
     77 C                     0.055919
     78 C                    -0.289649
     79 C                    -0.114756
     80 N                    -0.421620
     81 S                     0.291621
     82 C                     0.117482
     83 C                    -0.323153
     84 C                    -0.248180
     85 H                     0.106926
     86 H                     0.096677
     87 H                     0.122095
     88 H                     0.116039
     89 H                     0.135256
     90 H                     0.111474
     91 H                     0.122754
     92 H                     0.139076
     93 H                     0.098199
     94 C                    -0.175661
     95 H                     0.113378
     96 H                     0.113403
     97 H                     0.099589
     98 C                    -0.174905
     99 H                     0.104957
    100 C                    -0.180615
    101 H                     0.091228
    102 H                     0.094069
    103 H                     0.093256
    104 C                    -0.175225
    105 H                     0.093178
    106 C                    -0.322999
    107 H                     0.094753
    108 H                     0.097014
    109 H                     0.101590
    110 H                     0.099972
  ----------------------------------------
  Sum of atomic charges =     0.000000

                    Cartesian Multipole Moments
 -----------------------------------------------------------------
    Charge (ESU x 10^10)
                 0.0000
    Dipole Moment (Debye)
         X       1.8230      Y      -1.6068      Z      -0.7470
       Tot       2.5423
    Quadrupole Moments (Debye-Ang)
        XX    -384.9123     XY       6.6033     YY    -430.4516
        XZ      -6.0960     YZ       1.0815     ZZ    -444.8172

 Total job time:  102.98s(wall), 1135.67s(cpu)
        *  Thank you very much for using Q-Chem.  Have a nice day.  *
