 Q-Chem 4.4, Q-Chem, Inc., Pleasanton, CA (2016)
 Q-Chem 4.4.2 for Intel X86 Linux

User input:
--------------------------------------------------------------
$comment
SP
$end

$rem
MEM_STATIC 5000
MEM_TOTAL 20000
JOBTYPE SP
EXCHANGE B3LYP
BASIS 6-31g(d,p)
$end

$molecule
0 1
C         -13.687000     -6.158000     -9.296000
C         -12.573000     -6.486000     -8.512000
N         -14.205000     -7.077000    -10.209000
C         -11.944000     -7.685000     -8.658000
C         -13.634000     -8.254000    -10.301000
C         -12.510000     -8.641000     -9.555000
C         -11.882000     -9.959000     -9.721000
C         -11.321000    -10.441000    -10.940000
C         -11.902000    -10.897000     -8.650000
N         -10.864000    -11.688000    -11.117000
N         -12.384000    -10.631000     -7.446000
C         -11.330000    -12.151000     -8.859000
C         -10.819000    -12.565000    -10.126000
S         -12.044000    -12.015000     -6.573000
N         -11.372000    -12.907000     -7.760000
C         -10.537000    -13.958000    -10.422000
S         -10.837000    -15.297000     -9.236000
C         -10.032000    -14.464000    -11.558000
C         -10.242000    -16.454000    -10.418000
S          -9.241000    -13.561000    -12.864000
C          -9.821000    -15.800000    -11.532000
C          -9.945000    -17.856000    -10.053000
C          -8.606000    -15.109000    -13.446000
C          -9.005000    -16.191000    -12.622000
N          -9.101000    -18.530000    -10.856000
S         -10.474000    -18.495000     -8.547000
C          -8.947000    -19.760000    -10.222000
C          -9.677000    -19.956000     -9.128000
C         -14.504000     -4.865000     -9.100000
H         -12.175000     -5.705000     -7.872000
H         -11.112000     -8.035000     -8.053000
H         -13.989000     -8.983000    -11.028000
H         -11.582000     -9.921000    -11.861000
H          -7.985000    -15.229000    -14.324000
H          -8.707000    -17.204000    -12.866000
H          -8.405000    -20.520000    -10.769000
H          -9.612000    -20.797000     -8.450000
H         -13.751000     -4.100000     -9.323000
C         -15.092000     -4.691000     -7.639000
H         -15.244000     -4.911000     -9.909000
H         -15.536000     -3.688000     -7.621000
H         -14.237000     -4.575000     -6.961000
C         -16.095000     -5.801000     -7.113000
H         -16.467000     -5.408000     -6.159000
C         -15.378000     -7.167000     -6.959000
H         -16.916000     -5.958000     -7.824000
H         -14.323000     -7.197000     -6.657000
H         -15.392000     -7.708000     -7.913000
C         -16.046000     -8.021000     -5.835000
H         -15.412000     -8.911000     -5.744000
C         -17.460000     -8.434000     -6.191000
H         -15.936000     -7.479000     -4.887000
H         -17.608000     -8.489000     -7.277000
H         -18.235000     -7.833000     -5.700000
H         -17.719000     -9.419000     -5.784000
C         -17.628000     -8.730000    -11.128000
C         -17.809000     -9.602000    -10.084000
N         -17.724000     -9.102000    -12.378000
C         -18.050000    -10.999000    -10.369000
C         -17.969000    -10.418000    -12.703000
C         -18.206000    -11.445000    -11.715000
C         -18.538000    -12.855000    -12.077000
C         -18.139000    -13.254000    -13.328000
C         -19.012000    -13.894000    -11.188000
N         -18.351000    -14.486000    -13.771000
N         -19.270000    -13.739000     -9.881000
C         -19.238000    -15.187000    -11.683000
C         -18.894000    -15.453000    -13.038000
S         -20.004000    -15.148000     -9.424000
N         -19.812000    -16.054000    -10.783000
C         -19.391000    -16.682000    -13.689000
S         -20.448000    -17.853000    -12.977000
C         -19.058000    -17.086000    -14.981000
C         -20.686000    -18.792000    -14.520000
S         -17.973000    -16.363000    -16.144000
C         -19.779000    -18.143000    -15.378000
C         -21.516000    -19.877000    -14.760000
C         -18.462000    -17.724000    -17.214000
C         -19.339000    -18.581000    -16.584000
N         -22.168000    -20.339000    -13.730000
S         -22.230000    -20.263000    -16.273000
C         -23.195000    -21.182000    -14.113000
C         -23.400000    -21.217000    -15.466000
C         -17.416000     -7.229000    -10.819000
H         -17.881000     -9.201000     -9.077000
H         -18.209000    -11.628000     -9.498000
H         -18.185000    -10.546000    -13.763000
H         -17.507000    -12.653000    -13.979000
H         -17.946000    -17.948000    -18.138000
H         -19.770000    -19.443000    -17.081000
H         -23.730000    -21.712000    -13.337000
H         -24.085000    -21.874000    -15.984000
H         -16.701000     -7.183000     -9.989000
C         -18.673000     -6.487000    -10.381000
H         -17.001000     -6.768000    -11.723000
H         -18.403000     -5.547000     -9.884000
H         -19.139000     -7.099000     -9.599000
C         -19.686000     -6.206000    -11.429000
H         -19.240000     -5.756000    -12.325000
C         -20.782000     -5.165000    -11.131000
H         -20.294000     -7.048000    -11.782000
H         -21.488000     -5.011000    -11.956000
H         -20.346000     -4.219000    -10.787000
C         -21.731000     -5.598000     -9.963000
H         -22.076000     -6.632000    -10.079000
C         -22.776000     -4.621000     -9.555000
H         -21.001000     -5.605000     -9.144000
H         -22.363000     -3.636000     -9.305000
H         -23.252000     -4.935000     -8.618000
H         -23.463000     -4.526000    -10.405000
$end

--------------------------------------------------------------

             Standard Nuclear Orientation (Angstroms)
    I     Atom           X                Y                Z
 ----------------------------------------------------------------
    1      C       7.2132961886    -1.2016815645     1.2446883021
    2      C       7.7065624329     0.0052601986     0.7316425023
    3      N       5.8758663274    -1.3146618573     1.6254386398
    4      C       6.9075793506     1.1042151002     0.6395438675
    5      C       5.0948126964    -0.2718525530     1.4759796816
    6      C       5.5277172168     0.9678226123     0.9805403202
    7      C       4.6223577092     2.1195577396     0.8669869907
    8      C       3.9372942326     2.7222355847     1.9626481828
    9      C       4.2918963586     2.6414481286    -0.4158655798
   10      N       3.0187969338     3.6894317904     1.8358364651
   11      N       4.8243345968     2.2076485137    -1.5476886299
   12      C       3.3992259856     3.7099896234    -0.4847109082
   13      C       2.7303908351     4.2324076571     0.6631326959
   14      S       4.1859344392     3.2355051156    -2.7005724249
   15      N       3.2211859056     4.1302240286    -1.7388264430
   16      C       1.5740725526     5.1026144953     0.5479932662
   17      S       0.8532037878     5.5764348550    -1.0474250145
   18      C       0.8820800665     5.6751307212     1.5454543283
   19      C      -0.3569696377     6.5276442097    -0.1986146447
   20      S       1.3869437411     5.8251842878     3.2393618220
   21      C      -0.1208216644     6.4868362786     1.1387416457
   22      C      -1.2389478691     7.4779237140    -0.9100366454
   23      C       0.1219897377     7.0510021302     3.4278160252
   24      C      -0.5777654669     7.2834676253     2.2173601412
   25      N      -1.7973754869     8.4585104244    -0.1765318403
   26      S      -1.3413802249     7.4539448292    -2.6261749340
   27      C      -2.4818267338     9.2282692470    -1.1133188202
   28      C      -2.4712476051     8.7816766959    -2.3657545173
   29      C       8.0368297225    -2.5050754664     1.2713501699
   30      H       8.7699502929     0.0512703209     0.5193824545
   31      H       7.1979251351     2.0565094007     0.2041315450
   32      H       4.0545797977    -0.3125824213     1.7957477136
   33      H       3.8776161568     2.1626515524     2.8954215948
   34      H      -0.1003008268     7.5697684641     4.3510675596
   35      H      -1.3943433241     7.9952674576     2.1849471516
   36      H      -3.1219547666    10.0077536432    -0.7218942711
   37      H      -2.8529315826     9.2957486531    -3.2382436944
   38      H       8.8656042139    -2.2213058292     1.9305698869
   39      C       8.5596304483    -2.9647516805    -0.1519973559
   40      H       7.3723700636    -3.2109499540     1.7855792720
   41      H       9.2166477770    -3.8216825258     0.0415659574
   42      H       9.2717780339    -2.2028680812    -0.4933830576
   43      C       7.4765766766    -3.2785303832    -1.2670410561
   44      H       8.0518537791    -3.6986126731    -2.1010291406
   45      C       6.7001519980    -1.9957888104    -1.6613756548
   46      H       6.7302987336    -3.9945082677    -0.9000861532
   47      H       7.2137169875    -1.0255533053    -1.6565729166
   48      H       5.8526485462    -1.8459956758    -0.9814543975
   49      C       6.2075865394    -2.0778317048    -3.1410932740
   50      H       5.7630002581    -1.0962649882    -3.3440879029
   51      C       5.1677603414    -3.1620148794    -3.3411165773
   52      H       7.0909093714    -2.1442542722    -3.7890877316
   53      H       4.6115800260    -3.3694493296    -2.4181001064
   54      H       5.5630356238    -4.0774407570    -3.7979096528
   55      H       4.4282523099    -2.8912858943    -4.1045225558
   56      C       2.7988342661    -3.6397105823     0.9774254295
   57      C       2.4483616968    -3.2927497688    -0.3031479468
   58      N       1.9344267124    -3.6689831151     1.9582631837
   59      C       1.0890392669    -2.8794714235    -0.5721433757
   60      C       0.6233079609    -3.3008303572     1.7510503312
   61      C       0.1004106880    -2.9360541498     0.4546866629
   62      C      -1.3372633686    -2.6040187807     0.2261832259
   63      C      -2.0308670302    -2.1855604723     1.3339781548
   64      C      -2.0039090902    -2.4514067325    -1.0492818048
   65      N      -3.3094192218    -1.8387989585     1.2701209225
   66      N      -1.4320524104    -2.6266694191    -2.2497404374
   67      C      -3.3596825552    -2.0934073183    -1.0900829204
   68      C      -4.0090502957    -1.7952611961     0.1405865833
   69      S      -2.6841444955    -2.5708871771    -3.3277199139
   70      N      -3.9196779580    -2.1079749857    -2.3460120315
   71      C      -5.4832855328    -1.7202063468     0.1880021426
   72      S      -6.5598588337    -2.0353470095    -1.1299926565
   73      C      -6.2238860696    -1.3613311712     1.3132081030
   74      C      -8.0672419718    -1.9525475340    -0.1101130941
   75      S      -5.6921784147    -0.8551879779     2.8986509552
   76      C      -7.5384976043    -1.5394373521     1.1267310236
   77      C      -9.3818857621    -2.1985298725    -0.4774404601
   78      C      -7.4464610351    -0.7512077135     3.2833879984
   79      C      -8.2293031779    -1.0624556920     2.1921680960
   80      N      -9.5857971445    -2.4584272036    -1.7385199681
   81      S     -10.6089670811    -2.7895728363     0.5679784279
   82      C     -10.8385206299    -3.0041587031    -1.9504822277
   83      C     -11.5119893898    -3.2963661433    -0.7950975985
   84      C       4.2421754045    -4.1247639715     1.2511325132
   85      H       3.1695187373    -3.4477709344    -1.1006032504
   86      H       0.8743407735    -2.6430194133    -1.6101982894
   87      H      -0.0084821105    -3.5315064992     2.6079457876
   88      H      -1.5625464471    -1.9722005488     2.2929251682
   89      H      -7.8142997560    -0.2805698605     4.1852763987
   90      H      -9.3123625028    -1.0861043999     2.2394675406
   91      H     -11.1585244210    -3.1535261639    -2.9725330754
   92      H     -12.5348380746    -3.6410373568    -0.7304421844
   93      H       4.9056329027    -3.4388788939     0.7111076913
   94      C       4.5427251273    -5.5348332274     0.7573394818
   95      H       4.4052662777    -4.0608295453     2.3333874538
   96      H       5.6268874706    -5.6891559836     0.6918757507
   97      H       4.1849000761    -5.5846822849    -0.2783729804
   98      C       3.9401729288    -6.6560651607     1.5210172933
   99      H       4.1096874428    -6.5589804288     2.6008651457
  100      C       4.4905179514    -8.0774444263     1.2962900378
  101      H       2.8644750301    -6.8310198459     1.3965107117
  102      H       3.9967620366    -8.8483137737     1.9002292283
  103      H       5.5805984202    -8.1031245371     1.4163446228
  104      C       4.2519696918    -8.5989264353    -0.1609214232
  105      H       3.2203898840    -8.4305314431    -0.4912594723
  106      C       4.8156343779    -9.9351546438    -0.4922736477
  107      H       4.8732100133    -7.8761525317    -0.7043994331
  108      H       5.8894986852   -10.0081785622    -0.2806679842
  109      H       4.7630986054   -10.1182209906    -1.5724901562
  110      H       4.2704581185   -10.6641447023     0.1199765795
 ----------------------------------------------------------------

    9   -5663.4837565443      7.45E-06 Convergence criterion met
 Total energy in the final basis set = -5663.4837565443

                    Orbital Energies (a.u.)
 --------------------------------------------------------------

 Alpha MOs
 -- Occupied --
-88.987 -88.986 -88.930 -88.926 -88.923 -88.920 -88.911 -88.908
-14.393 -14.388 -14.384 -14.382 -14.347 -14.345 -14.343 -14.336
-14.329 -14.320 -10.271 -10.262 -10.261 -10.260 -10.259 -10.254
-10.253 -10.251 -10.239 -10.238 -10.237 -10.237 -10.236 -10.234
-10.232 -10.229 -10.228 -10.227 -10.225 -10.224 -10.223 -10.223
-10.222 -10.222 -10.222 -10.221 -10.220 -10.218 -10.213 -10.210
-10.208 -10.206 -10.199 -10.197 -10.194 -10.192 -10.192 -10.192
-10.191 -10.189 -10.186 -10.174 -10.173 -10.171 -10.170 -10.168
-10.168 -10.165 -10.165 -10.163  -8.043  -8.042  -7.992  -7.989
 -7.981  -7.978  -7.970  -7.967  -6.008  -6.007  -6.002  -6.002
 -6.000  -5.999  -5.956  -5.953  -5.953  -5.949  -5.949  -5.946
 -5.946  -5.942  -5.942  -5.938  -5.938  -5.935  -5.934  -5.932
 -5.931  -5.928  -5.926  -5.923  -1.041  -1.033  -0.977  -0.968
 -0.963  -0.963  -0.937  -0.930  -0.920  -0.918  -0.909  -0.903
 -0.843  -0.838  -0.831  -0.826  -0.812  -0.812  -0.809  -0.807
 -0.805  -0.803  -0.797  -0.793  -0.783  -0.776  -0.768  -0.766
 -0.752  -0.749  -0.742  -0.737  -0.726  -0.719  -0.708  -0.708
 -0.693  -0.690  -0.677  -0.674  -0.658  -0.648  -0.645  -0.642
 -0.637  -0.632  -0.626  -0.622  -0.617  -0.608  -0.602  -0.601
 -0.595  -0.587  -0.584  -0.581  -0.579  -0.572  -0.558  -0.555
 -0.549  -0.547  -0.541  -0.540  -0.524  -0.523  -0.520  -0.513
 -0.504  -0.500  -0.496  -0.495  -0.492  -0.483  -0.475  -0.475
 -0.472  -0.467  -0.466  -0.464  -0.459  -0.458  -0.453  -0.445
 -0.445  -0.441  -0.436  -0.436  -0.436  -0.433  -0.433  -0.432
 -0.430  -0.425  -0.425  -0.425  -0.416  -0.415  -0.414  -0.411
 -0.411  -0.409  -0.406  -0.401  -0.400  -0.398  -0.397  -0.394
 -0.394  -0.393  -0.391  -0.389  -0.386  -0.386  -0.384  -0.382
 -0.380  -0.378  -0.376  -0.375  -0.362  -0.357  -0.355  -0.355
 -0.352  -0.351  -0.350  -0.348  -0.346  -0.343  -0.340  -0.340
 -0.336  -0.333  -0.332  -0.332  -0.328  -0.324  -0.321  -0.317
 -0.312  -0.310  -0.308  -0.306  -0.304  -0.303  -0.297  -0.295
 -0.294  -0.292  -0.291  -0.290  -0.285  -0.284  -0.279  -0.277
 -0.271  -0.269  -0.261  -0.260  -0.257  -0.255  -0.250  -0.245
 -0.241  -0.239  -0.234  -0.228  -0.193  -0.190

          Ground-State Mulliken Net Atomic Charges

     Atom                 Charge (a.u.)
  ----------------------------------------
      1 C                     0.243417
      2 C                    -0.099867
      3 N                    -0.477711
      4 C                    -0.047277
      5 C                     0.090042
      6 C                     0.031484
      7 C                    -0.045967
      8 C                     0.055961
      9 C                     0.280274
     10 N                    -0.512890
     11 N                    -0.568390
     12 C                     0.191349
     13 C                     0.336304
     14 S                     0.583271
     15 N                    -0.562057
     16 C                    -0.214088
     17 S                     0.319438
     18 C                    -0.123451
     19 C                    -0.255087
     20 S                     0.283508
     21 C                     0.191445
     22 C                     0.079824
     23 C                    -0.308731
     24 C                    -0.068401
     25 N                    -0.440714
     26 S                     0.277419
     27 C                     0.126388
     28 C                    -0.295791
     29 C                    -0.232841
     30 H                     0.087938
     31 H                     0.103890
     32 H                     0.105981
     33 H                     0.118076
     34 H                     0.128497
     35 H                     0.125825
     36 H                     0.113146
     37 H                     0.124390
     38 H                     0.107261
     39 C                    -0.189701
     40 H                     0.127372
     41 H                     0.094406
     42 H                     0.095033
     43 C                    -0.172431
     44 H                     0.095104
     45 C                    -0.189833
     46 H                     0.110836
     47 H                     0.096751
     48 H                     0.109871
     49 C                    -0.185265
     50 H                     0.095341
     51 C                    -0.329705
     52 H                     0.090984
     53 H                     0.112531
     54 H                     0.105215
     55 H                     0.098632
     56 C                     0.292405
     57 C                    -0.110756
     58 N                    -0.490645
     59 C                    -0.104375
     60 C                     0.045569
     61 C                     0.036336
     62 C                     0.058374
     63 C                     0.057079
     64 C                     0.245878
     65 N                    -0.525396
     66 N                    -0.567871
     67 C                     0.182519
     68 C                     0.322694
     69 S                     0.602398
     70 N                    -0.554942
     71 C                    -0.230248
     72 S                     0.355779
     73 C                    -0.124390
     74 C                    -0.190529
     75 S                     0.283113
     76 C                     0.168443
     77 C                     0.040822
     78 C                    -0.307163
     79 C                    -0.090717
     80 N                    -0.427632
     81 S                     0.281894
     82 C                     0.117356
     83 C                    -0.312165
     84 C                    -0.226164
     85 H                     0.083298
     86 H                     0.123920
     87 H                     0.107817
     88 H                     0.127389
     89 H                     0.122686
     90 H                     0.097349
     91 H                     0.117162
     92 H                     0.137935
     93 H                     0.123036
     94 C                    -0.179250
     95 H                     0.111892
     96 H                     0.091626
     97 H                     0.092524
     98 C                    -0.161346
     99 H                     0.093939
    100 C                    -0.184791
    101 H                     0.099125
    102 H                     0.084870
    103 H                     0.082150
    104 C                    -0.178427
    105 H                     0.087302
    106 C                    -0.308510
    107 H                     0.087388
    108 H                     0.098600
    109 H                     0.099649
    110 H                     0.097993
  ----------------------------------------
  Sum of atomic charges =     0.000000

                    Cartesian Multipole Moments
 -----------------------------------------------------------------
    Charge (ESU x 10^10)
                 0.0000
    Dipole Moment (Debye)
         X      -0.8852      Y       2.1456      Z      -3.0589
       Tot       3.8398
    Quadrupole Moments (Debye-Ang)
        XX    -373.1014     XY       3.0791     YY    -435.4455
        XZ     -11.8797     YZ      -1.3748     ZZ    -433.5147

 Total job time:  91.51s(wall), 1010.18s(cpu)
        *  Thank you very much for using Q-Chem.  Have a nice day.  *
