 Q-Chem 4.4, Q-Chem, Inc., Pleasanton, CA (2016)
 Q-Chem 4.4.2 for Intel X86 Linux

User input:
--------------------------------------------------------------
$comment
SP
$end

$rem
MEM_STATIC 5000
MEM_TOTAL 20000
JOBTYPE SP
EXCHANGE B3LYP
BASIS 6-31g(d,p)
$end

$molecule
0 1
C         -16.162000    -19.596000    -14.059000
C         -16.323000    -18.375000    -13.435000
N         -16.616000    -20.712000    -13.493000
C         -16.891000    -18.259000    -12.188000
C         -17.283000    -20.636000    -12.317000
C         -17.492000    -19.442000    -11.607000
C         -18.369000    -19.392000    -10.387000
C         -18.194000    -18.491000     -9.357000
C         -19.602000    -20.134000    -10.300000
N         -19.004000    -18.333000     -8.286000
N         -20.006000    -21.026000    -11.276000
C         -20.439000    -20.039000     -9.231000
C         -20.106000    -19.127000     -8.164000
S         -21.384000    -21.702000    -10.670000
N         -21.579000    -20.858000     -9.273000
C         -21.047000    -18.877000     -7.010000
S         -22.273000    -19.993000     -6.436000
C         -21.074000    -17.751000     -6.211000
C         -22.721000    -18.929000     -5.112000
S         -20.085000    -16.246000     -6.315000
C         -21.942000    -17.815000     -5.095000
C         -23.771000    -19.211000     -4.042000
C         -20.932000    -15.734000     -4.897000
C         -21.913000    -16.591000     -4.394000
N         -24.090000    -18.306000     -3.090000
S         -24.944000    -20.541000     -4.309000
C         -25.158000    -18.708000     -2.386000
C         -25.703000    -19.829000     -2.924000
C         -15.416000    -19.686000    -15.384000
H         -15.971000    -17.468000    -13.917000
H         -16.906000    -17.300000    -11.678000
H         -17.722000    -21.516000    -11.851000
H         -17.286000    -17.891000     -9.395000
H         -20.632000    -14.720000     -4.666000
H         -22.643000    -16.301000     -3.648000
H         -25.498000    -18.131000     -1.536000
H         -26.616000    -20.328000     -2.628000
H         -15.867000    -18.890000    -15.989000
C         -15.683000    -21.032000    -16.176000
H         -14.335000    -19.505000    -15.356000
H         -16.719000    -21.173000    -16.506000
H         -15.524000    -21.885000    -15.505000
C         -14.804000    -21.073000    -17.468000
H         -14.959000    -20.231000    -18.153000
C         -14.997000    -22.389000    -18.364000
H         -13.757000    -20.917000    -17.180000
H         -14.900000    -23.263000    -17.708000
H         -14.189000    -22.497000    -19.098000
C         -16.316000    -22.385000    -19.181000
H         -17.220000    -22.551000    -18.582000
C         -16.181000    -23.573000    -20.198000
H         -16.443000    -21.415000    -19.677000
H         -15.288000    -23.501000    -20.831000
H         -17.021000    -23.570000    -20.904000
H         -16.154000    -24.597000    -19.806000
C         -17.628000     -8.730000    -11.128000
C         -17.809000     -9.602000    -10.084000
N         -17.724000     -9.102000    -12.378000
C         -18.050000    -10.999000    -10.369000
C         -17.969000    -10.418000    -12.703000
C         -18.206000    -11.445000    -11.715000
C         -18.538000    -12.855000    -12.077000
C         -18.139000    -13.254000    -13.328000
C         -19.012000    -13.894000    -11.188000
N         -18.351000    -14.486000    -13.771000
N         -19.270000    -13.739000     -9.881000
C         -19.238000    -15.187000    -11.683000
C         -18.894000    -15.453000    -13.038000
S         -20.004000    -15.148000     -9.424000
N         -19.812000    -16.054000    -10.783000
C         -19.391000    -16.682000    -13.689000
S         -20.448000    -17.853000    -12.977000
C         -19.058000    -17.086000    -14.981000
C         -20.686000    -18.792000    -14.520000
S         -17.973000    -16.363000    -16.144000
C         -19.779000    -18.143000    -15.378000
C         -21.516000    -19.877000    -14.760000
C         -18.462000    -17.724000    -17.214000
C         -19.339000    -18.581000    -16.584000
N         -22.168000    -20.339000    -13.730000
S         -22.230000    -20.263000    -16.273000
C         -23.195000    -21.182000    -14.113000
C         -23.400000    -21.217000    -15.466000
C         -17.416000     -7.229000    -10.819000
H         -17.881000     -9.201000     -9.077000
H         -18.209000    -11.628000     -9.498000
H         -18.185000    -10.546000    -13.763000
H         -17.507000    -12.653000    -13.979000
H         -17.946000    -17.948000    -18.138000
H         -19.770000    -19.443000    -17.081000
H         -23.730000    -21.712000    -13.337000
H         -24.085000    -21.874000    -15.984000
H         -16.701000     -7.183000     -9.989000
C         -18.673000     -6.487000    -10.381000
H         -17.001000     -6.768000    -11.723000
H         -18.403000     -5.547000     -9.884000
H         -19.139000     -7.099000     -9.599000
C         -19.686000     -6.206000    -11.429000
H         -19.240000     -5.756000    -12.325000
C         -20.782000     -5.165000    -11.131000
H         -20.294000     -7.048000    -11.782000
H         -21.488000     -5.011000    -11.956000
H         -20.346000     -4.219000    -10.787000
C         -21.731000     -5.598000     -9.963000
H         -22.076000     -6.632000    -10.079000
C         -22.776000     -4.621000     -9.555000
H         -21.001000     -5.605000     -9.144000
H         -22.363000     -3.636000     -9.305000
H         -23.252000     -4.935000     -8.618000
H         -23.463000     -4.526000    -10.405000
$end

--------------------------------------------------------------

             Standard Nuclear Orientation (Angstroms)
    I     Atom           X                Y                Z
 ----------------------------------------------------------------
    1      C      -4.4870834177     1.8982774944    -2.2729284379
    2      C      -3.1211250578     2.0987839723    -2.2825675034
    3      N      -4.9915716884     0.6671087325    -2.2323937070
    4      C      -2.2277096891     1.0539563865    -2.3176858012
    5      C      -4.1517540276    -0.3920749683    -2.1519127502
    6      C      -2.7508880391    -0.2875208386    -2.1596533092
    7      C      -1.8687512632    -1.4798505174    -1.9142686196
    8      C      -0.5980453047    -1.6099699413    -2.4355183702
    9      C      -2.1929041438    -2.4818715428    -0.9297378814
   10      N       0.2761775895    -2.6073841972    -2.1728319920
   11      N      -3.3838645109    -2.4795839380    -0.2275525989
   12      C      -1.3658112420    -3.5255062632    -0.6484926107
   13      C      -0.0948433657    -3.6096450162    -1.3257542497
   14      S      -3.3387485657    -3.8682614442     0.6627481004
   15      N      -1.8413586432    -4.4427905840     0.3025957889
   16      C       0.9243412260    -4.6665929115    -0.9738722882
   17      S       0.5672120303    -6.2239796785    -0.2492943452
   18      C       2.2860102667    -4.5882807896    -1.1900449856
   19      C       2.2489328355    -6.7251384663    -0.3294878791
   20      S       3.2637043493    -3.2346471495    -1.8725054234
   21      C       3.0162611771    -5.7697047998    -0.9181131631
   22      C       2.8107346519    -8.0758296476     0.1028731413
   23      C       4.6246412986    -4.2865822750    -1.6948537642
   24      C       4.3923523349    -5.5426516643    -1.1308054270
   25      N       4.1326925739    -8.3539932916     0.0565888053
   26      S       1.8022307249    -9.1441084658     1.1313760318
   27      C       4.3968637751    -9.5244094980     0.6550731244
   28      C       3.2904535613   -10.0207207011     1.2655169207
   29      C      -5.4358259323     3.0868463431    -2.3591417364
   30      H      -2.7202215955     3.1077875680    -2.2906395421
   31      H      -1.1644084972     1.2437458821    -2.4333427191
   32      H      -4.5235986306    -1.4103629825    -2.0565287291
   33      H      -0.3014328073    -0.8594105742    -3.1666747577
   34      H       5.5188193243    -3.7381978286    -1.9618315859
   35      H       5.1776904068    -6.2022437615    -0.7819524808
   36      H       5.4003159631    -9.9292188179     0.6395128864
   37      H       3.2202084529   -10.8962203139     1.8969850931
   38      H      -5.0446494912     3.7846272073    -1.6087252805
   39      C      -6.9173203706     2.7543679852    -1.9064814101
   40      H      -5.4737737271     3.6207119191    -3.3160395950
   41      H      -7.0234690530     2.4744583917    -0.8517491803
   42      H      -7.2638511827     1.8560159982    -2.4318489992
   43      C      -7.8326299187     4.0033086339    -2.1208215307
   44      H      -7.5035421480     4.9067986851    -1.5939240391
   45      C      -9.3614381595     3.7919585586    -1.6849344943
   46      H      -7.7397571892     4.3259602189    -3.1652159058
   47      H      -9.7218491036     2.8662586559    -2.1505573476
   48      H     -10.0071583250     4.5807054537    -2.0901601145
   49      C      -9.5689533279     3.8204390913    -0.1476016370
   50      H      -9.2025038359     2.9282931404     0.3752399949
   51      C     -11.1222033471     3.9042833669     0.0627374119
   52      H      -9.0361633845     4.6767698420     0.2835335175
   53      H     -11.5816647924     4.7614153354    -0.4447485177
   54      H     -11.3573898538     4.0531309755     1.1241405852
   55      H     -11.7381171344     3.0482713340    -0.2386968367
   56      C       6.2150546235     5.5108437750    -1.1668184901
   57      C       6.1237658965     4.1982889416    -1.5566225146
   58      N       5.2355852562     6.1340680558    -0.5648789132
   59      C       4.8784639259     3.4909734278    -1.3570159864
   60      C       4.0343411813     5.5000070715    -0.3357821197
   61      C       3.7967257852     4.1139482710    -0.6665719703
   62      C       2.5148676553     3.4154192679    -0.3530995365
   63      C       1.4213489512     4.2293054299    -0.1943256123
   64      C       2.2562820315     1.9935482653    -0.4301341196
   65      N       0.2163117972     3.7403918320     0.0661853303
   66      N       3.1573023262     1.0578507237    -0.7640061597
   67      C       0.9754874668     1.5000928502    -0.1402771955
   68      C      -0.0580615213     2.4410678696     0.1270419058
   69      S       2.4066953283    -0.3823752141    -0.4554216772
   70      N       0.8808149318     0.1283790151    -0.1157157264
   71      C      -1.3237296558     1.9816485636     0.7338936790
   72      S      -1.6798389216     0.3657133349     1.2412136247
   73      C      -2.4319090911     2.7940378597     0.9691190410
   74      C      -3.2552970176     0.8080790427     2.0421245862
   75      S      -2.6948727476     4.4794841572     0.5914367759
   76      C      -3.3754057368     2.1625779824     1.6802951817
   77      C      -4.1138705967     0.0048805014     2.7779564368
   78      C      -4.3022122879     4.2414328556     1.3635333891
   79      C      -4.4830377873     2.9393378663     1.7786584037
   80      N      -3.7937700222    -1.2564655543     2.8553499119
   81      S      -5.1367197722     0.5481207081     4.0454857824
   82      C      -4.4995410216    -1.9011487227     3.8545185206
   83      C      -5.2432986828    -1.0560552274     4.6332999570
   84      C       7.5633023441     6.2493665784    -1.3407096996
   85      H       7.0225116486     3.6927613271    -1.8982830247
   86      H       4.8835442341     2.4495332434    -1.6651385804
   87      H       3.3804581640     6.0809535286     0.3135084267
   88      H       1.4285369593     5.2964451656    -0.4078370101
   89      H      -5.0936054915     4.9753426966     1.2908619201
   90      H      -5.3779957025     2.6112642347     2.2956032966
   91      H      -4.3975910768    -2.9747794343     3.9334127782
   92      H      -5.9369327589    -1.3563724748     5.4065265210
   93      H       7.9303497923     5.9898221589    -2.3407866292
   94      C       8.6407032900     5.8485318192    -0.3402119747
   95      H       7.3564210394     7.3232001686    -1.2629694510
   96      H       9.6286244481     6.1548274609    -0.7058672294
   97      H       8.6668219278     4.7519462940    -0.3337310403
   98      C       8.4722226042     6.3264624611     1.0550050550
   99      H       8.2551501177     7.4011921804     1.1004755536
  100      C       9.6839831534     6.2636517128     2.0044218135
  101      H       7.7064047398     5.8352862738     1.6677904592
  102      H       9.4800040263     6.6390174485     3.0145060081
  103      H      10.5608427103     6.7498316264     1.5593438325
  104      C      10.1593838304     4.7987858992     2.2881053425
  105      H       9.3213738515     4.1393688917     2.5421633780
  106      C      11.3711288004     4.6428909617     3.1368626082
  107      H      10.4746129074     4.5225650151     1.2741809606
  108      H      12.2314860448     5.2080937716     2.7578834588
  109      H      11.7267099565     3.6055064733     3.1137009008
  110      H      11.1019370172     5.0096082012     4.1351352413
 ----------------------------------------------------------------

   10   -5663.4929752151      3.71E-06 Convergence criterion met
 Total energy in the final basis set = -5663.4929752151

                    Orbital Energies (a.u.)
 --------------------------------------------------------------

 Alpha MOs
 -- Occupied --
-88.987 -88.987 -88.930 -88.929 -88.925 -88.922 -88.916 -88.908
-14.393 -14.389 -14.385 -14.381 -14.352 -14.347 -14.346 -14.341
-14.326 -14.322 -10.277 -10.270 -10.265 -10.264 -10.260 -10.256
-10.253 -10.252 -10.242 -10.242 -10.240 -10.239 -10.238 -10.234
-10.233 -10.233 -10.232 -10.230 -10.228 -10.227 -10.226 -10.225
-10.224 -10.224 -10.223 -10.222 -10.222 -10.220 -10.218 -10.213
-10.211 -10.209 -10.204 -10.198 -10.196 -10.196 -10.195 -10.188
-10.185 -10.183 -10.183 -10.181 -10.177 -10.176 -10.173 -10.173
-10.172 -10.171 -10.168 -10.167  -8.042  -8.041  -7.992  -7.990
 -7.984  -7.980  -7.975  -7.968  -6.007  -6.006  -6.001  -6.001
 -5.999  -5.999  -5.956  -5.953  -5.952  -5.951  -5.949  -5.949
 -5.947  -5.945  -5.945  -5.941  -5.941  -5.939  -5.937  -5.936
 -5.932  -5.931  -5.929  -5.924  -1.034  -1.022  -0.981  -0.969
 -0.967  -0.950  -0.936  -0.935  -0.923  -0.911  -0.904  -0.889
 -0.847  -0.844  -0.830  -0.825  -0.815  -0.812  -0.810  -0.807
 -0.802  -0.796  -0.791  -0.790  -0.782  -0.778  -0.773  -0.762
 -0.756  -0.747  -0.744  -0.738  -0.722  -0.721  -0.713  -0.702
 -0.698  -0.690  -0.680  -0.667  -0.652  -0.651  -0.649  -0.637
 -0.635  -0.628  -0.627  -0.619  -0.612  -0.607  -0.606  -0.599
 -0.595  -0.589  -0.586  -0.584  -0.579  -0.577  -0.564  -0.553
 -0.552  -0.550  -0.543  -0.534  -0.526  -0.524  -0.520  -0.509
 -0.508  -0.504  -0.499  -0.498  -0.488  -0.480  -0.478  -0.473
 -0.472  -0.468  -0.463  -0.463  -0.461  -0.456  -0.455  -0.446
 -0.444  -0.441  -0.440  -0.439  -0.438  -0.437  -0.436  -0.429
 -0.427  -0.424  -0.419  -0.417  -0.415  -0.414  -0.413  -0.411
 -0.409  -0.408  -0.406  -0.403  -0.403  -0.400  -0.399  -0.397
 -0.395  -0.392  -0.390  -0.388  -0.388  -0.387  -0.383  -0.383
 -0.380  -0.379  -0.373  -0.370  -0.362  -0.360  -0.359  -0.356
 -0.355  -0.354  -0.349  -0.348  -0.345  -0.344  -0.342  -0.340
 -0.338  -0.337  -0.332  -0.330  -0.329  -0.326  -0.319  -0.314
 -0.312  -0.310  -0.310  -0.307  -0.303  -0.299  -0.298  -0.296
 -0.296  -0.295  -0.294  -0.289  -0.284  -0.282  -0.282  -0.277
 -0.275  -0.273  -0.266  -0.264  -0.261  -0.252  -0.246  -0.245
 -0.243  -0.241  -0.233  -0.228  -0.194  -0.193

          Ground-State Mulliken Net Atomic Charges

     Atom                 Charge (a.u.)
  ----------------------------------------
      1 C                     0.301119
      2 C                    -0.113619
      3 N                    -0.510689
      4 C                    -0.068337
      5 C                     0.101940
      6 C                     0.017889
      7 C                     0.056739
      8 C                     0.063857
      9 C                     0.238611
     10 N                    -0.540659
     11 N                    -0.540707
     12 C                     0.196416
     13 C                     0.287261
     14 S                     0.622704
     15 N                    -0.557671
     16 C                    -0.229094
     17 S                     0.328132
     18 C                    -0.120849
     19 C                    -0.257904
     20 S                     0.280453
     21 C                     0.168830
     22 C                     0.065522
     23 C                    -0.308759
     24 C                    -0.061879
     25 N                    -0.434187
     26 S                     0.271022
     27 C                     0.149318
     28 C                    -0.317993
     29 C                    -0.251323
     30 H                     0.094741
     31 H                     0.095364
     32 H                     0.112586
     33 H                     0.104668
     34 H                     0.128697
     35 H                     0.126735
     36 H                     0.120592
     37 H                     0.121591
     38 H                     0.119171
     39 C                    -0.168873
     40 H                     0.116302
     41 H                     0.096366
     42 H                     0.120125
     43 C                    -0.194371
     44 H                     0.080586
     45 C                    -0.174400
     46 H                     0.082129
     47 H                     0.095547
     48 H                     0.088342
     49 C                    -0.168650
     50 H                     0.100047
     51 C                    -0.328895
     52 H                     0.092838
     53 H                     0.101823
     54 H                     0.091523
     55 H                     0.107284
     56 C                     0.290462
     57 C                    -0.113431
     58 N                    -0.487096
     59 C                    -0.100477
     60 C                     0.046445
     61 C                     0.037925
     62 C                     0.055813
     63 C                     0.054597
     64 C                     0.241323
     65 N                    -0.528228
     66 N                    -0.574813
     67 C                     0.181045
     68 C                     0.309450
     69 S                     0.643602
     70 N                    -0.570078
     71 C                    -0.226529
     72 S                     0.361710
     73 C                    -0.120911
     74 C                    -0.188228
     75 S                     0.270735
     76 C                     0.168872
     77 C                     0.053490
     78 C                    -0.310862
     79 C                    -0.085935
     80 N                    -0.433685
     81 S                     0.285924
     82 C                     0.117684
     83 C                    -0.313099
     84 C                    -0.227441
     85 H                     0.090407
     86 H                     0.126216
     87 H                     0.109177
     88 H                     0.125845
     89 H                     0.124498
     90 H                     0.100051
     91 H                     0.115162
     92 H                     0.139564
     93 H                     0.097445
     94 C                    -0.172744
     95 H                     0.112653
     96 H                     0.093247
     97 H                     0.096425
     98 C                    -0.161076
     99 H                     0.094851
    100 C                    -0.185695
    101 H                     0.100768
    102 H                     0.086602
    103 H                     0.083855
    104 C                    -0.178234
    105 H                     0.087673
    106 C                    -0.308737
    107 H                     0.086818
    108 H                     0.099570
    109 H                     0.100743
    110 H                     0.098644
  ----------------------------------------
  Sum of atomic charges =     0.000000

                    Cartesian Multipole Moments
 -----------------------------------------------------------------
    Charge (ESU x 10^10)
                 0.0000
    Dipole Moment (Debye)
         X      -0.4849      Y      -2.0403      Z       2.4784
       Tot       3.2466
    Quadrupole Moments (Debye-Ang)
        XX    -421.3474     XY     -11.6088     YY    -427.5738
        XZ     -22.2993     YZ     -22.0346     ZZ    -440.0421

 Total job time:  110.83s(wall), 1185.11s(cpu)
        *  Thank you very much for using Q-Chem.  Have a nice day.  *
