 Q-Chem 4.4, Q-Chem, Inc., Pleasanton, CA (2016)
 Q-Chem 4.4.2 for Intel X86 Linux

User input:
--------------------------------------------------------------
$comment
SP
$end

$rem
MEM_STATIC 5000
MEM_TOTAL 20000
JOBTYPE SP
EXCHANGE B3LYP
BASIS 6-31g(d,p)
$end

$molecule
0 1
C           3.880000     -4.066000     -8.879000
C           3.679000     -3.447000     -7.676000
N           3.242000     -3.724000     -9.966000
C           2.864000     -2.297000     -7.740000
C           2.448000     -2.594000    -10.033000
C           2.238000     -1.817000     -8.881000
C           1.373000     -0.564000     -8.985000
C           1.812000      0.541000     -8.264000
C           0.063000     -0.515000     -9.395000
N           1.216000      1.730000     -8.208000
N          -0.688000     -1.474000    -10.035000
C          -0.566000      0.733000     -9.417000
C          -0.034000      1.824000     -8.771000
S          -1.984000     -0.780000    -10.606000
N          -1.691000      0.786000    -10.085000
C          -0.734000      3.129000     -8.670000
S          -2.277000      3.600000     -9.430000
C          -0.194000      4.245000     -8.110000
C          -2.134000      5.282000     -8.849000
S           1.432000      4.453000     -7.432000
C          -0.930000      5.402000     -8.237000
C          -3.027000      6.407000     -9.218000
C           1.001000      6.175000     -7.223000
C          -0.247000      6.542000     -7.724000
N          -3.974000      6.105000    -10.128000
S          -2.914000      8.119000     -8.901000
C          -4.483000      7.237000    -10.747000
C          -4.087000      8.417000    -10.164000
C           4.815000     -5.309000     -9.017000
H           4.256000     -3.733000     -6.801000
H           2.760000     -1.703000     -6.836000
H           1.999000     -2.387000    -11.003000
H           2.821000      0.473000     -7.858000
H           1.787000      6.807000     -6.833000
H          -0.641000      7.551000     -7.761000
H          -5.082000      7.080000    -11.635000
H          -4.379000      9.387000    -10.544000
H           5.146000     -5.343000    -10.062000
C           4.147000     -6.690000     -8.888000
H           5.688000     -5.142000     -8.375000
H           3.117000     -6.490000     -9.208000
H           4.240000     -7.046000     -7.855000
C           4.757000     -7.793000     -9.747000
H           4.636000     -7.520000    -10.803000
C           4.044000     -9.166000     -9.458000
H           5.842000     -7.897000     -9.616000
H           3.058000     -9.048000     -9.924000
H           4.027000     -9.497000     -8.412000
C           4.621000    -10.324000    -10.350000
H           4.547000    -10.108000    -11.423000
C           3.843000    -11.604000    -10.025000
H           5.684000    -10.553000    -10.211000
H           3.694000    -12.271000    -10.884000
H           2.792000    -11.390000     -9.796000
H           4.268000    -12.141000     -9.168000
C         -12.754000     22.362000    -13.246000
C         -12.860000     21.267000    -14.042000
N         -11.805000     22.513000    -12.307000
C         -11.918000     20.184000    -13.798000
C         -11.014000     21.435000    -12.019000
C         -11.046000     20.207000    -12.712000
C         -10.031000     19.124000    -12.488000
C          -8.867000     19.373000    -11.682000
C         -10.177000     17.813000    -13.012000
N          -7.979000     18.425000    -11.340000
N         -11.232000     17.366000    -13.678000
C          -9.211000     16.913000    -12.728000
C          -8.104000     17.206000    -11.886000
S         -10.837000     15.831000    -14.049000
N          -9.382000     15.688000    -13.328000
C          -7.028000     16.201000    -11.618000
S          -6.854000     14.678000    -12.614000
C          -5.809000     16.419000    -10.991000
C          -5.179000     14.329000    -12.017000
S          -5.359000     17.694000     -9.886000
C          -4.849000     15.374000    -11.302000
C          -4.519000     13.080000    -12.164000
C          -3.729000     16.868000     -9.940000
C          -3.679000     15.615000    -10.540000
N          -4.938000     12.352000    -13.214000
S          -3.290000     12.381000    -11.150000
C          -4.209000     11.177000    -13.312000
C          -3.348000     11.017000    -12.241000
C         -13.618000     23.575000    -13.439000
H         -13.727000     21.227000    -14.695000
H         -11.998000     19.397000    -14.543000
H         -10.439000     21.584000    -11.106000
H          -8.733000     20.299000    -11.126000
H          -2.990000     17.293000     -9.273000
H          -2.754000     15.051000    -10.569000
H          -4.260000     10.649000    -14.255000
H          -2.643000     10.202000    -12.147000
H         -13.141000     24.521000    -13.153000
C         -14.831000     23.466000    -12.494000
H         -13.891000     23.610000    -14.501000
H         -15.114000     24.485000    -12.202000
H         -14.573000     22.945000    -11.564000
C         -15.993000     22.781000    -13.260000
H         -16.149000     23.265000    -14.232000
C         -17.188000     22.825000    -12.261000
H         -15.728000     21.734000    -13.453000
H         -17.379000     23.856000    -11.936000
H         -16.851000     22.429000    -11.296000
C         -18.538000     22.048000    -12.560000
H         -18.872000     22.352000    -13.560000
C         -19.656000     22.339000    -11.589000
H         -18.357000     20.969000    -12.636000
H         -19.344000     22.054000    -10.577000
H         -20.575000     21.773000    -11.782000
H         -20.001000     23.381000    -11.610000
$end

--------------------------------------------------------------

             Standard Nuclear Orientation (Angstroms)
    I     Atom           X                Y                Z
 ----------------------------------------------------------------
    1      C     -15.6380154122     0.2179548771     0.1925800768
    2      C     -15.1579931985     0.7604414436    -0.9676173200
    3      N     -14.8853174330    -0.4475284048     1.0269389645
    4      C     -13.7549726844     0.6993582297    -1.1040844508
    5      C     -13.5096995434    -0.5034344962     0.8989743963
    6      C     -12.8846566862     0.0989420465    -0.2061938838
    7      C     -11.3635657266     0.0398617809    -0.3150139873
    8      C     -10.7406686527     1.1932059838    -0.7791081428
    9      C     -10.5975921598    -1.0994232197    -0.3587767825
   10      N      -9.4320098066     1.3634700719    -0.9537367911
   11      N     -10.9461363229    -2.3976562741    -0.0648551895
   12      C      -9.2122508023    -0.9487015992    -0.4671341368
   13      C      -8.6397949875     0.2474168737    -0.8307492339
   14      S      -9.6200761797    -3.2375284164     0.0883514727
   15      N      -8.5061408857    -2.0202241247    -0.2065458349
   16      C      -7.1847662367     0.4103777941    -1.0748006071
   17      S      -5.8975713649    -0.8012212889    -0.8393286899
   18      C      -6.5845797054     1.5990416331    -1.3532075133
   19      C      -4.6154626566     0.3770708225    -1.2329769596
   20      S      -7.3280826084     3.2072372480    -1.4411523685
   21      C      -5.2084614573     1.5844369726    -1.4037967532
   22      C      -3.1558505217     0.1456795143    -1.1095853952
   23      C      -5.6708513665     3.8358643593    -1.6716704064
   24      C      -4.6556417548     2.8841623463    -1.5891675425
   25      N      -2.8126525437    -1.0471405677    -0.5846964547
   26      S      -1.8002264868     1.2333639810    -1.2626473987
   27      C      -1.5136902807    -1.0492061510    -0.0985290220
   28      C      -0.7879739994     0.0663067203    -0.4421449599
   29      C     -17.1567121571     0.2619473861     0.5530559517
   30      H     -15.8055940530     1.3407119690    -1.6189615076
   31      H     -13.3091009581     1.2119055331    -1.9522363626
   32      H     -12.9832316095    -1.0536262221     1.6770942966
   33      H     -11.3674715024     2.0830566953    -0.8322579210
   34      H      -5.5869244776     4.9118333067    -1.7392507417
   35      H      -3.5921356164     3.0906532665    -1.6208249820
   36      H      -1.2291272935    -1.8835954658     0.5298119506
   37      H       0.2323666694     0.2256930904    -0.1195540350
   38      H     -17.2266491769     0.1789980457     1.6443717723
   39      C     -18.0011167667    -0.9515491357     0.1235992637
   40      H     -17.5433015622     1.2414381544     0.2475588706
   41      H     -17.2621183820    -1.7617850735     0.0971585291
   42      H     -18.4787348638    -0.7416184174    -0.8409130726
   43      C     -19.1447509165    -1.3168760003     1.0644644047
   44      H     -18.7203294898    -1.5997504950     2.0361405199
   45      C     -19.9789969416    -2.5117101781     0.4699697814
   46      H     -19.8072055660    -0.4718491227     1.2931244437
   47      H     -19.3141743071    -3.3758792996     0.5903798888
   48      H     -20.3804332158    -2.3716338858    -0.5415605198
   49      C     -21.1482578212    -2.9423631694     1.4275312658
   50      H     -20.7942809585    -3.2232965567     2.4271500995
   51      C     -21.8745982511    -4.1285317790     0.7835261341
   52      H     -21.9064699934    -2.1778862930     1.6334934160
   53      H     -22.2578687883    -4.8655502661     1.5010764424
   54      H     -21.1807671554    -4.7762210499     0.2340399933
   55      H     -22.6548176719    -3.8059957354     0.0830469010
   56      C      15.8849027613    -0.4339253685     0.4763246266
   57      C      15.1085030178    -1.3419611433     1.1217326139
   58      N      15.4089437130     0.6902560615    -0.0847476476
   59      C      13.6747829125    -1.0888558235     1.1348991122
   60      C      14.0516868085     0.8402592111    -0.1626048903
   61      C      13.1116278005    -0.0468245448     0.4018669615
   62      C      11.6428363095     0.2577921975     0.4579935723
   63      C      11.1559112592     1.5619608910     0.0994116231
   64      C      10.6700809942    -0.7102060160     0.8204015677
   65      N       9.8524211947     1.8738964499     0.0109703490
   66      N      10.9156107203    -1.9882795967     1.0706675785
   67      C       9.3743803112    -0.3294874758     0.8153882687
   68      C       8.9496619307     0.9639456134     0.4068455647
   69      S       9.4556152677    -2.5978929278     1.4536504305
   70      N       8.4968599929    -1.2958922575     1.2465331271
   71      C       7.5102569375     1.3715679630     0.4466235178
   72      S       6.2513445718     0.3977636396     1.3458819874
   73      C       6.9908592365     2.6469635242     0.2728242351
   74      C       5.0199452448     1.7268804471     1.3152354632
   75      S       7.7049152772     4.0184634310    -0.5385092206
   76      C       5.6487214123     2.7605779346     0.8169784658
   77      C       3.6386982825     1.5472766078     1.5929210590
   78      C       6.1722999292     4.8577380326    -0.0011077521
   79      C       5.1573590840     4.0515235995     0.5013087769
   80      N       3.3661221165     0.5047773627     2.3972484536
   81      S       2.2881036123     2.4701407852     1.0000857136
   82      C       2.0061347472     0.4339743510     2.6562683157
   83      C       1.2951848061     1.3665042504     1.9221701151
   84      C      17.3825319574    -0.5410733259     0.4491197341
   85      H      15.6011466602    -2.2534525309     1.4475910062
   86      H      13.1400977633    -1.7986097414     1.7603231022
   87      H      13.7695877868     1.6592782197    -0.8229252712
   88      H      11.8041470519     2.3282956838    -0.3214082223
   89      H       6.0704913305     5.8744960054    -0.3581416917
   90      H       4.2065782809     4.4782893583     0.7987122931
   91      H       1.7008096100    -0.1787821313     3.4940869440
   92      H       0.2293314787     1.5258488229     2.0151861972
   93      H      17.9047081023     0.4227084715     0.3971801478
   94      C      17.7970713813    -1.2625107881    -0.8485551305
   95      H      17.6838844388    -1.0710999067     1.3611814127
   96      H      18.7713183128    -0.8599625390    -1.1527126944
   97      H      17.1072951160    -1.0408865812    -1.6719605075
   98      C      17.9080062305    -2.7815424444    -0.5545121296
   99      H      18.5191149910    -2.9550207690     0.3398185440
  100      C      18.4364606413    -3.3914879544    -1.8874278848
  101      H      16.9070188595    -3.1820568318    -0.3512991659
  102      H      19.3694986266    -2.8995036104    -2.1914978166
  103      H      17.8078132248    -3.0307480580    -2.7097898202
  104      C      18.5082899781    -4.9614610683    -2.1010981167
  105      H      19.0616428032    -5.3790938427    -1.2505950204
  106      C      19.2102249285    -5.3895220414    -3.3666008344
  107      H      17.5088860392    -5.4086398749    -2.0378455929
  108      H      18.6828280782    -4.9755662985    -4.2344753674
  109      H      19.2263639880    -6.4744319434    -3.5243222197
  110      H      20.2745594897    -5.1219164556    -3.3950471423
 ----------------------------------------------------------------

    9   -5663.4817898018      9.96E-06 Convergence criterion met
 Total energy in the final basis set = -5663.4817898018

                    Orbital Energies (a.u.)
 --------------------------------------------------------------

 Alpha MOs
 -- Occupied --
-88.994 -88.992 -88.943 -88.936 -88.922 -88.918 -88.911 -88.911
-14.395 -14.387 -14.381 -14.381 -14.354 -14.354 -14.348 -14.342
-14.327 -14.322 -10.277 -10.275 -10.267 -10.264 -10.256 -10.255
-10.254 -10.247 -10.245 -10.244 -10.244 -10.240 -10.239 -10.238
-10.237 -10.237 -10.233 -10.233 -10.232 -10.232 -10.231 -10.231
-10.229 -10.229 -10.226 -10.223 -10.222 -10.219 -10.219 -10.216
-10.213 -10.212 -10.209 -10.208 -10.206 -10.205 -10.199 -10.197
-10.184 -10.181 -10.181 -10.179 -10.179 -10.179 -10.178 -10.177
-10.176 -10.176 -10.171 -10.167  -8.050  -8.047  -8.004  -7.996
 -7.980  -7.977  -7.970  -7.969  -6.015  -6.012  -6.010  -6.008
 -6.007  -6.005  -5.968  -5.965  -5.961  -5.960  -5.957  -5.953
 -5.944  -5.941  -5.940  -5.938  -5.936  -5.934  -5.934  -5.933
 -5.931  -5.930  -5.926  -5.925  -1.052  -1.045  -0.970  -0.964
 -0.963  -0.962  -0.939  -0.936  -0.916  -0.916  -0.908  -0.907
 -0.841  -0.838  -0.837  -0.835  -0.816  -0.814  -0.810  -0.807
 -0.804  -0.802  -0.798  -0.797  -0.782  -0.781  -0.768  -0.767
 -0.756  -0.753  -0.747  -0.744  -0.721  -0.713  -0.709  -0.709
 -0.697  -0.696  -0.681  -0.680  -0.656  -0.652  -0.650  -0.649
 -0.636  -0.635  -0.631  -0.630  -0.617  -0.610  -0.604  -0.598
 -0.596  -0.591  -0.582  -0.581  -0.580  -0.575  -0.574  -0.570
 -0.555  -0.547  -0.542  -0.541  -0.530  -0.528  -0.525  -0.517
 -0.508  -0.506  -0.503  -0.499  -0.488  -0.486  -0.483  -0.481
 -0.477  -0.474  -0.473  -0.471  -0.466  -0.460  -0.453  -0.452
 -0.446  -0.445  -0.438  -0.435  -0.435  -0.433  -0.432  -0.432
 -0.431  -0.429  -0.425  -0.420  -0.418  -0.417  -0.415  -0.414
 -0.412  -0.407  -0.406  -0.405  -0.402  -0.401  -0.399  -0.399
 -0.398  -0.397  -0.394  -0.393  -0.392  -0.387  -0.387  -0.387
 -0.381  -0.378  -0.374  -0.372  -0.368  -0.366  -0.360  -0.359
 -0.358  -0.355  -0.354  -0.352  -0.350  -0.347  -0.346  -0.336
 -0.336  -0.332  -0.332  -0.331  -0.328  -0.326  -0.321  -0.320
 -0.313  -0.313  -0.310  -0.309  -0.308  -0.308  -0.305  -0.301
 -0.300  -0.299  -0.298  -0.293  -0.287  -0.285  -0.282  -0.278
 -0.277  -0.275  -0.267  -0.267  -0.261  -0.255  -0.254  -0.249
 -0.241  -0.239  -0.238  -0.232  -0.201  -0.198

          Ground-State Mulliken Net Atomic Charges

     Atom                 Charge (a.u.)
  ----------------------------------------
      1 C                     0.270986
      2 C                    -0.102919
      3 N                    -0.484261
      4 C                    -0.100610
      5 C                     0.064876
      6 C                     0.056516
      7 C                    -0.007639
      8 C                     0.067198
      9 C                     0.250627
     10 N                    -0.525990
     11 N                    -0.525715
     12 C                     0.235490
     13 C                     0.308854
     14 S                     0.610903
     15 N                    -0.592361
     16 C                    -0.235490
     17 S                     0.357434
     18 C                    -0.109289
     19 C                    -0.235522
     20 S                     0.293245
     21 C                     0.162245
     22 C                     0.039257
     23 C                    -0.316836
     24 C                    -0.071892
     25 N                    -0.419494
     26 S                     0.275161
     27 C                     0.117920
     28 C                    -0.327401
     29 C                    -0.225326
     30 H                     0.095809
     31 H                     0.090085
     32 H                     0.115700
     33 H                     0.110214
     34 H                     0.125335
     35 H                     0.108243
     36 H                     0.122883
     37 H                     0.148376
     38 H                     0.114127
     39 C                    -0.164270
     40 H                     0.087516
     41 H                     0.111626
     42 H                     0.088932
     43 C                    -0.189030
     44 H                     0.097534
     45 C                    -0.171802
     46 H                     0.090304
     47 H                     0.104738
     48 H                     0.097217
     49 C                    -0.182287
     50 H                     0.094190
     51 C                    -0.325951
     52 H                     0.091337
     53 H                     0.096881
     54 H                     0.098746
     55 H                     0.104230
     56 C                     0.286039
     57 C                    -0.120782
     58 N                    -0.484885
     59 C                    -0.095349
     60 C                     0.050348
     61 C                     0.065607
     62 C                     0.030395
     63 C                     0.054493
     64 C                     0.272936
     65 N                    -0.527235
     66 N                    -0.564399
     67 C                     0.185571
     68 C                     0.317407
     69 S                     0.610774
     70 N                    -0.543224
     71 C                    -0.246540
     72 S                     0.324907
     73 C                    -0.095967
     74 C                    -0.202167
     75 S                     0.284754
     76 C                     0.148157
     77 C                     0.037727
     78 C                    -0.288655
     79 C                    -0.101235
     80 N                    -0.418480
     81 S                     0.287392
     82 C                     0.122991
     83 C                    -0.333152
     84 C                    -0.231760
     85 H                     0.094418
     86 H                     0.123596
     87 H                     0.103254
     88 H                     0.115357
     89 H                     0.119357
     90 H                     0.115324
     91 H                     0.128730
     92 H                     0.141501
     93 H                     0.113796
     94 C                    -0.180581
     95 H                     0.093169
     96 H                     0.095611
     97 H                     0.114799
     98 C                    -0.176797
     99 H                     0.094252
    100 C                    -0.177279
    101 H                     0.096276
    102 H                     0.089969
    103 H                     0.091173
    104 C                    -0.181232
    105 H                     0.089495
    106 C                    -0.316740
    107 H                     0.092298
    108 H                     0.100921
    109 H                     0.099336
    110 H                     0.103680
  ----------------------------------------
  Sum of atomic charges =     0.000000

                    Cartesian Multipole Moments
 -----------------------------------------------------------------
    Charge (ESU x 10^10)
                 0.0000
    Dipole Moment (Debye)
         X       0.3608      Y       1.0270      Z       0.3487
       Tot       1.1430
    Quadrupole Moments (Debye-Ang)
        XX    -447.8094     XY     -35.3135     YY    -424.8122
        XZ      17.9751     YZ     -10.4729     ZZ    -449.5705

 Total job time:  84.22s(wall), 903.26s(cpu)
        *  Thank you very much for using Q-Chem.  Have a nice day.  *
