 Q-Chem 4.4, Q-Chem, Inc., Pleasanton, CA (2016)
 Q-Chem 4.4.2 for Intel X86 Linux

User input:
--------------------------------------------------------------
$comment
SP
$end

$rem
MEM_STATIC 5000
MEM_TOTAL 20000
JOBTYPE SP
EXCHANGE B3LYP
BASIS 6-31g(d,p)
$end

$molecule
0 1
C          -4.033000     22.667000      8.898000
C          -4.198000     22.263000      7.599000
N          -3.455000     23.831000      9.221000
C          -3.715000     23.064000      6.559000
C          -2.882000     24.523000      8.279000
C          -3.037000     24.300000      6.906000
C          -2.465000     25.191000      5.872000
C          -3.050000     25.357000      4.546000
C          -1.212000     25.816000      5.980000
N          -2.497000     25.974000      3.512000
N          -0.373000     25.811000      7.063000
C          -0.711000     26.607000      4.941000
C          -1.360000     26.614000      3.638000
S           0.955000     26.662000      6.653000
N           0.455000     27.200000      5.210000
C          -0.991000     27.456000      2.506000
S          -0.458000     29.159000      2.723000
C          -0.686000     27.030000      1.255000
C          -0.000000     29.246000      0.997000
S          -0.768000     25.345000      0.727000
C          -0.157000     27.983000      0.432000
C           0.711000     30.312000      0.313000
C          -0.310000     26.030000     -0.866000
C           0.045000     27.391000     -0.809000
N           1.237000     31.265000      1.006000
S           0.932000     30.368000     -1.458000
C           2.011000     32.071000      0.238000
C           1.919000     31.831000     -1.086000
C          -4.709000     21.917000     10.048000
H          -4.800000     21.386000      7.380000
H          -3.951000     22.890000      5.513000
H          -2.302000     25.391000      8.592000
H          -4.050000     25.008000      4.296000
H          -0.151000     25.407000     -1.736000
H           0.314000     28.002000     -1.663000
H           2.718000     32.799000      0.613000
H           2.504000     32.242000     -1.898000
H          -4.691000     22.598000     10.908000
C          -4.052000     20.559000     10.349000
H          -5.782000     21.913000      9.820000
H          -2.965000     20.704000     10.368000
H          -4.269000     19.900000      9.500000
C          -4.457000     19.874000     11.681000
H          -5.529000     19.641000     11.658000
C          -3.907000     20.589000     12.971000
H          -3.980000     18.891000     11.776000
H          -4.384000     21.563000     13.135000
H          -2.836000     20.747000     12.792000
C          -4.061000     19.729000     14.298000
H          -5.088000     19.627000     14.669000
C          -3.256000     20.267000     15.447000
H          -3.788000     18.687000     14.092000
H          -3.714000     21.200000     15.797000
H          -2.183000     20.389000     15.257000
H          -3.276000     19.556000     16.282000
C          -9.746000     13.024000      2.694000
C          -8.703000     12.841000      1.840000
N          -9.812000     14.091000      3.489000
C          -7.651000     13.738000      1.680000
C          -8.835000     15.020000      3.396000
C          -7.712000     14.909000      2.512000
C          -6.607000     15.930000      2.545000
C          -5.812000     16.146000      1.382000
C          -6.110000     16.589000      3.746000
N          -4.798000     16.947000      1.409000
N          -6.698000     16.623000      4.957000
C          -5.096000     17.519000      3.612000
C          -4.339000     17.670000      2.475000
S          -5.800000     17.568000      5.930000
N          -4.737000     18.104000      4.799000
C          -3.162000     18.554000      2.405000
S          -2.867000     20.020000      3.409000
C          -1.965000     18.141000      1.844000
C          -1.186000     20.035000      2.843000
S          -1.563000     16.794000      0.829000
C          -0.907000     18.996000      2.059000
C          -0.283000     21.076000      3.117000
C           0.069000     17.485000      0.632000
C           0.261000     18.620000      1.321000
N           1.006000     20.882000      3.092000
S          -0.759000     22.605000      3.805000
C           1.689000     21.966000      3.613000
C           0.880000     23.064000      4.009000
C         -10.835000     11.975000      2.801000
H          -8.726000     11.966000      1.196000
H          -6.944000     13.605000      0.867000
H          -8.894000     15.932000      3.988000
H          -6.031000     15.602000      0.464000
H           0.734000     17.023000     -0.085000
H           1.105000     19.301000      1.325000
H           2.765000     21.969000      3.725000
H           1.209000     23.855000      4.670000
H         -11.618000     12.141000      2.050000
C         -11.453000     11.776000      4.222000
H         -10.301000     11.053000      2.540000
H         -12.163000     12.592000      4.404000
H         -10.744000     11.732000      5.057000
C         -12.380000     10.525000      4.246000
H         -13.004000     10.607000      3.347000
C         -13.313000     10.212000      5.421000
H         -11.774000      9.619000      4.121000
H         -12.782000      9.691000      6.227000
H         -13.984000      9.451000      5.004000
C         -14.017000     11.442000      5.989000
H         -14.423000     11.166000      6.970000
C         -15.116000     11.992000      4.982000
H         -13.414000     12.302000      6.308000
H         -15.694000     11.145000      4.593000
H         -14.633000     12.527000      4.154000
H         -15.783000     12.758000      5.396000
$end

--------------------------------------------------------------

             Standard Nuclear Orientation (Angstroms)
    I     Atom           X                Y                Z
 ----------------------------------------------------------------
    1      C      -0.1053700964     4.9412180203     0.7904720686
    2      C       0.1341187762     3.5928841997     0.8403016599
    3      N      -1.3343177349     5.4582439482     0.9156954352
    4      C      -0.9369441481     2.7052034925     0.9863741569
    5      C      -2.3526548370     4.6473528520     0.9171707561
    6      C      -2.2771922141     3.2576935093     1.0656136866
    7      C      -3.4706736208     2.3909788962     1.1865637224
    8      C      -3.4667819482     1.1187130039     1.9002732951
    9      C      -4.6657507206     2.5971884713     0.4783502399
   10      N      -4.4255826244     0.2042885306     1.8867401573
   11      N      -4.9772667438     3.6564315362    -0.3326965508
   12      C      -5.7385385336     1.7086127477     0.6038990017
   13      C      -5.5656646264     0.4316992883     1.2811475746
   14      S      -6.4719811567     3.3915284103    -0.9256047712
   15      N      -6.8362227920     2.0683994109    -0.0663314258
   16      C      -6.6196056563    -0.5385610399     1.5538235743
   17      S      -8.2791722129    -0.0314408198     2.0229236984
   18      C      -6.6176189222    -1.8469551970     1.1966082572
   19      C      -8.8489995309    -1.7190662915     1.8692158747
   20      S      -5.2682325903    -2.6604828417     0.3953203573
   21      C      -7.8080899689    -2.4947723263     1.3654000041
   22      C     -10.2138576486    -2.2116366739     1.9345590979
   23      C      -6.3083741194    -4.1127229622     0.5557642156
   24      C      -7.6114659100    -3.8215476612     1.0015934759
   25      N     -11.1891156477    -1.3667703084     1.9489347567
   26      S     -10.6324280482    -3.9472286286     1.9651758824
   27      C     -12.3883294334    -1.9879194987     1.8281209347
   28      C     -12.3272154453    -3.3327684039     1.9098919718
   29      C       1.0471709165     5.9475405295     0.8211350912
   30      H       1.1563968644     3.2285556642     0.8816081804
   31      H      -0.8102966846     1.6466668523     1.1950571733
   32      H      -3.3420563521     5.1028253958     0.8794559883
   33      H      -2.6585923884     0.8190163619     2.5645868944
   34      H      -6.0101466064    -5.0793052356     0.1722423004
   35      H      -8.3815365197    -4.5576886170     1.2018077342
   36      H     -13.3253695863    -1.4967907785     1.6018327731
   37      H     -13.1041334449    -4.0648226498     1.7338663970
   38      H       0.6013379472     6.9130953783     1.0906194089
   39      C       1.8335508087     6.0018860096    -0.4998748383
   40      H       1.6170493722     5.7302953481     1.7329311632
   41      H       1.1111107156     6.0378688961    -1.3243386300
   42      H       2.3739813519     5.0524770078    -0.5933006128
   43      C       2.8073552464     7.1967518527    -0.6772854756
   44      H       3.5928290275     7.1413514535     0.0868897236
   45      C       2.0974349836     8.5876861888    -0.8751235233
   46      H       3.3584793325     7.1150900563    -1.6219740976
   47      H       1.5901530947     8.9227889661     0.0378234707
   48      H       1.3454015697     8.4311059979    -1.6586887013
   49      C       3.0735959082     9.7452094156    -1.3562626182
   50      H       3.7823251625    10.1002877193    -0.5983732843
   51      C       2.3462792474    10.9645159604    -1.8481691385
   52      H       3.7444024706     9.3583881085    -2.1328685880
   53      H       1.8881250052    11.4754545118    -0.9927221869
   54      H       1.6210214563    10.7908033788    -2.6519962813
   55      H       3.0565148520    11.6626424035    -2.3078764969
   56      C      10.0946533173    -2.8090028080     0.8855166538
   57      C       9.5420371459    -3.6895353286     0.0080590496
   58      N       9.3708625165    -1.8394155941     1.4430984965
   59      C       8.1989229397    -3.6982106857    -0.3564707396
   60      C       8.0528651248    -1.7759788119     1.1514177636
   61      C       7.3925020402    -2.6740678593     0.2501616072
   62      C       5.9455917970    -2.4714518144    -0.1103276248
   63      C       5.1615274838    -3.5847112499    -0.5312154744
   64      C       5.2985058602    -1.1775346427    -0.2856819610
   65      N       3.9444665236    -3.4257492924    -0.9362089501
   66      N       5.7693759228     0.0251126633     0.0955552902
   67      C       3.9532699216    -1.1545659391    -0.6032740076
   68      C       3.2472288955    -2.2532957319    -1.0309630442
   69      S       4.6325282599     1.1415174706    -0.2321270215
   70      N       3.4417321905     0.1136652312    -0.7032432441
   71      C       1.8576746209    -2.1765522763    -1.5156633227
   72      S       0.6355840256    -0.9341749231    -1.0604819424
   73      C       1.4484946142    -2.8099020506    -2.6773598345
   74      C      -0.3943882322    -1.5012861303    -2.3885948995
   75      S       2.1827982321    -4.0474880946    -3.6445294062
   76      C       0.1892016794    -2.4567296745    -3.1087118684
   77      C      -1.7109942308    -1.0563921373    -2.5954377851
   78      C       0.6793065812    -4.1328627320    -4.5994838693
   79      C      -0.2589871427    -3.2576782959    -4.2077351101
   80      N      -2.2751095400    -1.1244291768    -3.7688630614
   81      S      -2.5989075956    -0.1084402169    -1.4332166300
   82      C      -3.4693318892    -0.4271997039    -3.7951317298
   83      C      -3.8600904836     0.1604441935    -2.5627018653
   84      C      11.5752542752    -2.8787824234     1.2028849079
   85      H      10.1797395817    -4.4762580298    -0.3860132723
   86      H       7.7986760178    -4.5271551749    -0.9319361472
   87      H       7.4233344249    -1.0333869698     1.6392060927
   88      H       5.5993071517    -4.5819599501    -0.5527791513
   89      H       0.5850757568    -4.9244297582    -5.3304422777
   90      H      -1.2862928584    -3.1410601905    -4.5350823020
   91      H      -4.0564059085    -0.3243655563    -4.6979596391
   92      H      -4.5974473716     0.9469703894    -2.4703743885
   93      H      11.7706205702    -3.5834346243     2.0213855412
   94      C      12.2829928439    -1.5098363673     1.4595146292
   95      H      11.9945417201    -3.3007327386     0.2811924592
   96      H      12.0374713042    -1.1828784537     2.4773052247
   97      H      12.0409773726    -0.7006238212     0.7606258205
   98      C      13.8267052753    -1.6978141323     1.5402753193
   99      H      13.9812001666    -2.5640344473     2.1960913716
  100      C      14.7687896194    -0.5886576154     2.0212450790
  101      H      14.2118891237    -1.9835969768     0.5535339303
  102      H      15.0121050231     0.1100172918     1.2114988296
  103      H      15.7068137729    -1.1271692715     2.2039111232
  104      C      14.2357190944     0.1906131216     3.2211254621
  105      H      14.8261579594     1.1113164874     3.3051508089
  106      C      14.2573130367    -0.6966980813     4.5389124444
  107      H      13.2408714155     0.6504259336     3.1593170982
  108      H      15.2177195149    -1.2233480410     4.5943490436
  109      H      13.4336482595    -1.4220959337     4.5171801980
  110      H      14.0613670734    -0.1503619625     5.4695912423
 ----------------------------------------------------------------

    9   -5663.4937004890      9.19E-06 Convergence criterion met
 Total energy in the final basis set = -5663.4937004890

                    Orbital Energies (a.u.)
 --------------------------------------------------------------

 Alpha MOs
 -- Occupied --
-88.995 -88.993 -88.929 -88.924 -88.924 -88.921 -88.915 -88.908
-14.385 -14.383 -14.382 -14.380 -14.350 -14.344 -14.342 -14.336
-14.328 -14.326 -10.268 -10.264 -10.264 -10.262 -10.260 -10.259
-10.259 -10.248 -10.245 -10.244 -10.240 -10.239 -10.237 -10.236
-10.236 -10.236 -10.235 -10.232 -10.231 -10.229 -10.228 -10.227
-10.225 -10.225 -10.225 -10.224 -10.224 -10.221 -10.220 -10.219
-10.219 -10.217 -10.204 -10.203 -10.201 -10.200 -10.194 -10.194
-10.189 -10.188 -10.184 -10.183 -10.183 -10.179 -10.178 -10.178
-10.177 -10.173 -10.172 -10.170  -8.050  -8.049  -7.987  -7.986
 -7.982  -7.982  -7.974  -7.969  -6.015  -6.014  -6.010  -6.008
 -6.008  -6.007  -5.952  -5.949  -5.948  -5.946  -5.946  -5.946
 -5.944  -5.943  -5.943  -5.943  -5.939  -5.939  -5.939  -5.936
 -5.933  -5.930  -5.930  -5.925  -1.043  -1.037  -0.975  -0.975
 -0.973  -0.962  -0.952  -0.941  -0.920  -0.917  -0.903  -0.897
 -0.849  -0.841  -0.838  -0.826  -0.817  -0.811  -0.810  -0.806
 -0.802  -0.801  -0.799  -0.794  -0.786  -0.785  -0.768  -0.767
 -0.754  -0.747  -0.746  -0.739  -0.731  -0.724  -0.715  -0.710
 -0.696  -0.693  -0.680  -0.679  -0.658  -0.657  -0.647  -0.646
 -0.636  -0.636  -0.628  -0.627  -0.616  -0.615  -0.601  -0.601
 -0.597  -0.596  -0.591  -0.586  -0.583  -0.580  -0.569  -0.556
 -0.546  -0.545  -0.542  -0.539  -0.531  -0.525  -0.516  -0.511
 -0.509  -0.508  -0.503  -0.500  -0.489  -0.485  -0.481  -0.480
 -0.474  -0.472  -0.471  -0.467  -0.464  -0.462  -0.455  -0.453
 -0.447  -0.444  -0.444  -0.440  -0.439  -0.438  -0.436  -0.433
 -0.433  -0.428  -0.427  -0.425  -0.420  -0.418  -0.414  -0.414
 -0.413  -0.412  -0.408  -0.406  -0.405  -0.404  -0.403  -0.403
 -0.401  -0.396  -0.395  -0.394  -0.390  -0.389  -0.387  -0.381
 -0.378  -0.374  -0.371  -0.370  -0.368  -0.366  -0.358  -0.354
 -0.351  -0.351  -0.349  -0.349  -0.348  -0.347  -0.346  -0.344
 -0.338  -0.337  -0.336  -0.332  -0.331  -0.330  -0.323  -0.313
 -0.312  -0.311  -0.309  -0.307  -0.305  -0.305  -0.303  -0.299
 -0.298  -0.297  -0.292  -0.290  -0.289  -0.287  -0.282  -0.278
 -0.275  -0.273  -0.270  -0.261  -0.256  -0.252  -0.249  -0.248
 -0.245  -0.245  -0.233  -0.233  -0.197  -0.195

          Ground-State Mulliken Net Atomic Charges

     Atom                 Charge (a.u.)
  ----------------------------------------
      1 C                     0.260237
      2 C                    -0.102428
      3 N                    -0.470212
      4 C                    -0.073035
      5 C                     0.093669
      6 C                     0.028887
      7 C                     0.027224
      8 C                     0.037222
      9 C                     0.227796
     10 N                    -0.444134
     11 N                    -0.568321
     12 C                     0.179626
     13 C                     0.223594
     14 S                     0.613093
     15 N                    -0.540068
     16 C                    -0.184606
     17 S                     0.336232
     18 C                    -0.119512
     19 C                    -0.211032
     20 S                     0.279994
     21 C                     0.184843
     22 C                     0.074288
     23 C                    -0.293041
     24 C                    -0.104028
     25 N                    -0.435684
     26 S                     0.235289
     27 C                     0.136301
     28 C                    -0.305314
     29 C                    -0.233356
     30 H                     0.092913
     31 H                     0.108309
     32 H                     0.112197
     33 H                     0.114647
     34 H                     0.126454
     35 H                     0.105531
     36 H                     0.117726
     37 H                     0.125576
     38 H                     0.121956
     39 C                    -0.180458
     40 H                     0.102471
     41 H                     0.105691
     42 H                     0.088211
     43 C                    -0.184812
     44 H                     0.090284
     45 C                    -0.168292
     46 H                     0.092209
     47 H                     0.098038
     48 H                     0.097414
     49 C                    -0.182468
     50 H                     0.094857
     51 C                    -0.314979
     52 H                     0.088531
     53 H                     0.104929
     54 H                     0.101791
     55 H                     0.097527
     56 C                     0.299312
     57 C                    -0.122581
     58 N                    -0.497375
     59 C                    -0.063015
     60 C                     0.090677
     61 C                     0.008953
     62 C                    -0.008719
     63 C                     0.084042
     64 C                     0.245292
     65 N                    -0.500801
     66 N                    -0.541088
     67 C                     0.162055
     68 C                     0.276444
     69 S                     0.609793
     70 N                    -0.550582
     71 C                    -0.205795
     72 S                     0.322382
     73 C                    -0.116401
     74 C                    -0.233753
     75 S                     0.257430
     76 C                     0.172611
     77 C                     0.041509
     78 C                    -0.326989
     79 C                    -0.000545
     80 N                    -0.431961
     81 S                     0.281065
     82 C                     0.100013
     83 C                    -0.314204
     84 C                    -0.236417
     85 H                     0.081383
     86 H                     0.104349
     87 H                     0.120070
     88 H                     0.110855
     89 H                     0.131411
     90 H                     0.126837
     91 H                     0.115937
     92 H                     0.139473
     93 H                     0.118949
     94 C                    -0.165213
     95 H                     0.102799
     96 H                     0.115783
     97 H                     0.098862
     98 C                    -0.181582
     99 H                     0.087107
    100 C                    -0.179704
    101 H                     0.081337
    102 H                     0.087403
    103 H                     0.096225
    104 C                    -0.178255
    105 H                     0.086222
    106 C                    -0.324905
    107 H                     0.103224
    108 H                     0.102878
    109 H                     0.107285
    110 H                     0.100142
  ----------------------------------------
  Sum of atomic charges =     0.000000

                    Cartesian Multipole Moments
 -----------------------------------------------------------------
    Charge (ESU x 10^10)
                 0.0000
    Dipole Moment (Debye)
         X      -0.0447      Y      -2.1700      Z      -2.4153
       Tot       3.2472
    Quadrupole Moments (Debye-Ang)
        XX    -408.4533     XY       7.7062     YY    -427.9690
        XZ       8.7882     YZ       2.6681     ZZ    -449.6998

 Total job time:  88.65s(wall), 965.06s(cpu)
        *  Thank you very much for using Q-Chem.  Have a nice day.  *
