 Q-Chem 4.4, Q-Chem, Inc., Pleasanton, CA (2016)
 Q-Chem 4.4.2 for Intel X86 Linux

User input:
--------------------------------------------------------------
$comment
SP
$end

$rem
MEM_STATIC 5000
MEM_TOTAL 20000
JOBTYPE SP
EXCHANGE B3LYP
BASIS 6-31g(d,p)
$end

$molecule
0 1
C          11.543000     11.175000      1.142000
C          10.419000     11.428000      0.352000
N          11.504000     11.482000      2.480000
C           9.239000     11.872000      0.926000
C          10.393000     11.826000      3.032000
C           9.203000     12.102000      2.347000
C           7.943000     12.547000      3.004000
C           7.068000     13.538000      2.438000
C           7.370000     11.847000      4.088000
N           5.884000     13.910000      2.885000
N           8.023000     10.961000      4.804000
C           6.150000     12.283000      4.644000
C           5.456000     13.333000      4.048000
S           6.952000     10.483000      5.979000
N           5.775000     11.545000      5.731000
C           4.235000     13.886000      4.567000
S           2.808000     14.371000      3.642000
C           3.995000     14.096000      5.869000
C           1.970000     14.942000      5.097000
S           5.048000     14.047000      7.237000
C           2.798000     14.769000      6.181000
C           0.557000     15.448000      5.185000
C           3.780000     14.614000      8.254000
C           2.631000     14.930000      7.545000
N          -0.243000     15.164000      4.169000
S          -0.063000     16.580000      6.370000
C          -1.431000     15.792000      4.293000
C          -1.557000     16.618000      5.425000
C          12.796000     10.612000      0.562000
H          10.441000     11.223000     -0.714000
H           8.386000     12.056000      0.279000
H          10.430000     11.950000      4.114000
H           7.450000     14.006000      1.532000
H           3.909000     14.550000      9.326000
H           1.734000     15.334000      8.001000
H          -2.195000     15.828000      3.528000
H          -2.394000     17.272000      5.636000
H          12.750000     10.476000     -0.526000
C          13.031000      9.126000      0.869000
H          13.666000     11.224000      0.828000
H          12.321000      8.518000      0.295000
H          12.765000      8.929000      1.915000
C          14.422000      8.635000      0.499000
H          14.522000      8.883000     -0.565000
C          14.401000      7.076000      0.595000
H          15.127000      9.230000      1.092000
H          13.687000      6.801000     -0.191000
H          14.068000      6.725000      1.579000
C          15.755000      6.484000      0.222000
H          16.249000      6.986000     -0.619000
C          15.739000      5.053000      0.000000
H          16.438000      6.791000      1.024000
H          15.416000      4.514000      0.899000
H          16.760000      4.748000     -0.259000
H          15.170000      4.756000     -0.890000
C          -9.746000     13.024000      2.694000
C          -8.703000     12.841000      1.840000
N          -9.812000     14.091000      3.489000
C          -7.651000     13.738000      1.680000
C          -8.835000     15.020000      3.396000
C          -7.712000     14.909000      2.512000
C          -6.607000     15.930000      2.545000
C          -5.812000     16.146000      1.382000
C          -6.110000     16.589000      3.746000
N          -4.798000     16.947000      1.409000
N          -6.698000     16.623000      4.957000
C          -5.096000     17.519000      3.612000
C          -4.339000     17.670000      2.475000
S          -5.800000     17.568000      5.930000
N          -4.737000     18.104000      4.799000
C          -3.162000     18.554000      2.405000
S          -2.867000     20.020000      3.409000
C          -1.965000     18.141000      1.844000
C          -1.186000     20.035000      2.843000
S          -1.563000     16.794000      0.829000
C          -0.907000     18.996000      2.059000
C          -0.283000     21.076000      3.117000
C           0.069000     17.485000      0.632000
C           0.261000     18.620000      1.321000
N           1.006000     20.882000      3.092000
S          -0.759000     22.605000      3.805000
C           1.689000     21.966000      3.613000
C           0.880000     23.064000      4.009000
C         -10.835000     11.975000      2.801000
H          -8.726000     11.966000      1.196000
H          -6.944000     13.605000      0.867000
H          -8.894000     15.932000      3.988000
H          -6.031000     15.602000      0.464000
H           0.734000     17.023000     -0.085000
H           1.105000     19.301000      1.325000
H           2.765000     21.969000      3.725000
H           1.209000     23.855000      4.670000
H         -11.618000     12.141000      2.050000
C         -11.453000     11.776000      4.222000
H         -10.301000     11.053000      2.540000
H         -12.163000     12.592000      4.404000
H         -10.744000     11.732000      5.057000
C         -12.380000     10.525000      4.246000
H         -13.004000     10.607000      3.347000
C         -13.313000     10.212000      5.421000
H         -11.774000      9.619000      4.121000
H         -12.782000      9.691000      6.227000
H         -13.984000      9.451000      5.004000
C         -14.017000     11.442000      5.989000
H         -14.423000     11.166000      6.970000
C         -15.116000     11.992000      4.982000
H         -13.414000     12.302000      6.308000
H         -15.694000     11.145000      4.593000
H         -14.633000     12.527000      4.154000
H         -15.783000     12.758000      5.396000
$end

--------------------------------------------------------------

             Standard Nuclear Orientation (Angstroms)
    I     Atom           X                Y                Z
 ----------------------------------------------------------------
    1      C     -11.5582853740     0.7255804104    -1.4841272712
    2      C     -10.4709909529     0.7861720682    -2.3591155527
    3      N     -11.3427209124     0.3882582290    -0.1704455332
    4      C      -9.1778190245     0.6250150867    -1.8892785693
    5      C     -10.1422309101     0.3078082076     0.2874982936
    6      C      -8.9774188205     0.3584624943    -0.4884836258
    7      C      -7.6002264737     0.2129344287     0.0587245814
    8      C      -6.5574182366    -0.5108164027    -0.6171435378
    9      C      -7.1321289814     0.9916961611     1.1393724898
   10      N      -5.2876549327    -0.5965477350    -0.2701560874
   11      N      -7.9231924260     1.6627782373     1.9443125333
   12      C      -5.8036060407     0.8487903354     1.5890798622
   13      C      -4.9238426170     0.0244969597     0.8920083098
   14      S      -6.9126229286     2.3455984055     3.0706587983
   15      N      -5.5359708886     1.6155602067     2.6878397950
   16      C      -3.5688331122    -0.2301174893     1.2983723391
   17      S      -2.1426800405    -0.3147323900     0.2562078921
   18      C      -3.1851994051    -0.4227284302     2.5682661158
   19      C      -1.0813633931    -0.7156255591     1.6193665919
   20      S      -4.1096908460    -0.6848609852     4.0032699831
   21      C      -1.8402878514    -0.7918083654     2.7633940594
   22      C       0.4146180892    -0.8615416930     1.5862473133
   23      C      -2.6673539378    -0.9599229919     4.9019396309
   24      C      -1.5343435893    -0.9572050467     4.1025535146
   25      N       1.0408734628    -0.3521173895     0.5368650731
   26      S       1.3803248312    -1.8494182018     2.6640040075
   27      C       2.3516401154    -0.6728609517     0.5477439441
   28      C       2.7613050229    -1.4838582654     1.6220036989
   29      C     -12.9513796176     0.9842713698    -1.9486113033
   30      H     -10.6243580471     1.0188043785    -3.4085085880
   31      H      -8.3582834784     0.6805056701    -2.6001627257
   32      H     -10.0643304800     0.1385312161     1.3611583064
   33      H      -6.8833258379    -1.0244922504    -1.5203076198
   34      H      -2.7247949931    -0.9693572319     5.9820009811
   35      H      -0.5336684807    -1.1448362883     4.4756551685
   36      H       3.0400923189    -0.4915335010    -0.2667319114
   37      H       3.7456635432    -1.9193163318     1.7412537547
   38      H     -13.0239507648     1.1676066984    -3.0281841753
   39      C     -13.5153470636     2.3544386904    -1.5458058497
   40      H     -13.6237240813     0.1677149924    -1.6598404520
   41      H     -13.0205603478     3.1391849386    -2.1311257894
   42      H     -13.2250690339     2.5719180610    -0.5103724193
   43      C     -15.0082049312     2.5016800699    -1.7959205499
   44      H     -15.1269723066     2.2762878341    -2.8630159771
   45      C     -15.3586158925     4.0133181538    -1.6161972582
   46      H     -15.4998414132     1.7300512476    -1.1912871650
   47      H     -14.7955725283     4.4843597473    -2.4312549171
   48      H     -15.0456886075     4.3987314106    -0.6385065424
   49      C     -16.8404221222     4.2675962048    -1.8662011987
   50      H     -17.2613708375     3.6910407533    -2.6990919421
   51      C     -17.1891934249     5.6658031814    -2.0099955965
   52      H     -17.3644887936     3.7725899132    -1.0389981431
   53      H     -16.9381041679     6.2340003084    -1.1060281137
   54      H     -18.2705489871     5.7197569505    -2.1840821813
   55      H     -16.7797453817     6.1263508504    -2.9179152761
   56      C       9.5977814107     4.1120278638    -1.4412571500
   57      C       8.4787666887     4.0644410626    -2.2133941510
   58      N       9.9818380107     3.0653284157    -0.7120172764
   59      C       7.6666283007     2.9428617915    -2.3526930289
   60      C       9.2551675325     1.9287149268    -0.7912561118
   61      C       8.0739338781     1.7928292781    -1.5919608915
   62      C       7.2555307546     0.5309644770    -1.5422763755
   63      C       6.4492477546     0.1693370129    -2.6604817686
   64      C       7.0275449453    -0.2740263712    -0.3490860282
   65      N       5.6650219515    -0.8568396406    -2.6107086281
   66      N       7.6979938905    -0.2072240338     0.8168713723
   67      C       6.2621678888    -1.4191880360    -0.4667921157
   68      C       5.4788762237    -1.7094761977    -1.5580326715
   69      S       7.1339705973    -1.3793905723     1.7936320036
   70      N       6.1486053518    -2.1180513528     0.7074176673
   71      C       4.5496568179    -2.8525339530    -1.5987176053
   72      S       4.6975330715    -4.3822089468    -0.6593433311
   73      C       3.2485685063    -2.7260649091    -2.0561821246
   74      C       3.0318148337    -4.7891236629    -1.1133754511
   75      S       2.4546673975    -1.4826330760    -2.9671356393
   76      C       2.4494165624    -3.8223276457    -1.8191627524
   77      C       2.4322300277    -6.0296154229    -0.8379770962
   78      C       1.0288117108    -2.5459315472    -3.0938081366
   79      C       1.1716706425    -3.7180099174    -2.4569144092
   80      N       1.1367074289    -6.1577413717    -0.7673588450
   81      S       3.3165705988    -7.4190231530    -0.2676711136
   82      C       0.7793902470    -7.3949337506    -0.2627149616
   83      C       1.8586586096    -8.2741820832     0.0183600661
   84      C      10.4047378795     5.3918936752    -1.3488679608
   85      H       8.2390155561     4.9414635225    -2.8085756354
   86      H       6.8878401858     2.9279476135    -3.1088501814
   87      H       9.5791736992     1.0379439546    -0.2553120112
   88      H       6.4581523526     0.7841000363    -3.5597081768
   89      H       0.2182585362    -2.2354079993    -3.7390497017
   90      H       0.5209611558    -4.5853019999    -2.4346746367
   91      H      -0.2517808768    -7.6665701901    -0.0804273915
   92      H       1.7834297099    -9.1457164508     0.6552363954
   93      H      11.1441775547     5.4514580709    -2.1577728065
   94      C      11.0639106615     5.6839762825     0.0371136386
   95      H       9.6445303932     6.1632914169    -1.5231983993
   96      H      11.9625054463     5.0614523013     0.1269540834
   97      H      10.4321150034     5.5213291617     0.9181483488
   98      C      11.6587953211     7.1227361599     0.0685501942
   99      H      12.2126628797     7.2300462309    -0.8727341816
  100      C      12.5759319182     7.6118057379     1.1949401845
  101      H      10.8433491764     7.8558950598     0.0335843193
  102      H      11.9983347127     7.9560187439     2.0615063244
  103      H      13.0080243790     8.5293413867     0.7769982765
  104      C      13.5989663571     6.5725144227     1.6470619589
  105      H      14.0004482916     6.9033449377     2.6128447640
  106      C      14.7173546036     6.3473248624     0.5412376546
  107      H      13.2490739187     5.5794389320     1.9574590455
  108      H      15.0408149501     7.3242539162     0.1620318687
  109      H      14.3160521924     5.7410293435    -0.2812343015
  110      H      15.5801648436     5.7540642988     0.8677975932
 ----------------------------------------------------------------

   10   -5663.5012870104      4.38E-06 Convergence criterion met
 Total energy in the final basis set = -5663.5012870104

                    Orbital Energies (a.u.)
 --------------------------------------------------------------

 Alpha MOs
 -- Occupied --
-88.996 -88.988 -88.928 -88.925 -88.924 -88.919 -88.906 -88.903
-14.386 -14.386 -14.383 -14.375 -14.349 -14.344 -14.344 -14.335
-14.328 -14.323 -10.266 -10.264 -10.263 -10.261 -10.256 -10.253
-10.251 -10.249 -10.244 -10.241 -10.237 -10.236 -10.235 -10.235
-10.232 -10.231 -10.230 -10.228 -10.227 -10.227 -10.225 -10.223
-10.222 -10.222 -10.222 -10.221 -10.221 -10.218 -10.218 -10.218
-10.214 -10.212 -10.200 -10.198 -10.196 -10.195 -10.194 -10.191
-10.189 -10.184 -10.178 -10.178 -10.178 -10.177 -10.176 -10.174
-10.173 -10.172 -10.169 -10.167  -8.051  -8.044  -7.987  -7.986
 -7.985  -7.977  -7.967  -7.965  -6.016  -6.011  -6.009  -6.009
 -6.003  -6.002  -5.951  -5.950  -5.949  -5.947  -5.946  -5.946
 -5.943  -5.943  -5.942  -5.942  -5.938  -5.934  -5.931  -5.929
 -5.928  -5.926  -5.923  -5.921  -1.040  -1.040  -0.975  -0.963
 -0.962  -0.959  -0.944  -0.941  -0.920  -0.918  -0.907  -0.900
 -0.847  -0.846  -0.828  -0.826  -0.819  -0.815  -0.812  -0.811
 -0.802  -0.799  -0.798  -0.795  -0.790  -0.786  -0.769  -0.767
 -0.750  -0.747  -0.740  -0.739  -0.729  -0.721  -0.715  -0.710
 -0.694  -0.693  -0.680  -0.672  -0.658  -0.656  -0.648  -0.640
 -0.637  -0.632  -0.628  -0.621  -0.616  -0.608  -0.601  -0.596
 -0.596  -0.592  -0.590  -0.583  -0.576  -0.574  -0.572  -0.555
 -0.546  -0.546  -0.540  -0.535  -0.525  -0.523  -0.512  -0.511
 -0.509  -0.507  -0.500  -0.497  -0.490  -0.485  -0.481  -0.479
 -0.476  -0.472  -0.469  -0.468  -0.467  -0.465  -0.453  -0.446
 -0.445  -0.444  -0.443  -0.439  -0.437  -0.435  -0.434  -0.433
 -0.433  -0.429  -0.427  -0.427  -0.418  -0.415  -0.415  -0.414
 -0.413  -0.410  -0.409  -0.408  -0.405  -0.404  -0.402  -0.400
 -0.399  -0.395  -0.394  -0.389  -0.387  -0.385  -0.384  -0.381
 -0.375  -0.371  -0.369  -0.368  -0.366  -0.365  -0.356  -0.355
 -0.354  -0.350  -0.349  -0.348  -0.348  -0.346  -0.342  -0.339
 -0.339  -0.336  -0.335  -0.332  -0.330  -0.325  -0.321  -0.314
 -0.312  -0.312  -0.311  -0.306  -0.304  -0.301  -0.298  -0.297
 -0.296  -0.294  -0.292  -0.288  -0.287  -0.285  -0.282  -0.280
 -0.275  -0.271  -0.263  -0.262  -0.252  -0.249  -0.245  -0.245
 -0.245  -0.241  -0.233  -0.228  -0.196  -0.190

          Ground-State Mulliken Net Atomic Charges

     Atom                 Charge (a.u.)
  ----------------------------------------
      1 C                     0.275362
      2 C                    -0.120414
      3 N                    -0.479115
      4 C                    -0.069234
      5 C                     0.105059
      6 C                     0.016066
      7 C                    -0.004624
      8 C                     0.072169
      9 C                     0.250347
     10 N                    -0.494482
     11 N                    -0.546987
     12 C                     0.213034
     13 C                     0.233327
     14 S                     0.608402
     15 N                    -0.526383
     16 C                    -0.205542
     17 S                     0.337733
     18 C                    -0.106204
     19 C                    -0.221552
     20 S                     0.265706
     21 C                     0.136618
     22 C                     0.043686
     23 C                    -0.305388
     24 C                    -0.072009
     25 N                    -0.421793
     26 S                     0.268702
     27 C                     0.135785
     28 C                    -0.325092
     29 C                    -0.225060
     30 H                     0.087148
     31 H                     0.100988
     32 H                     0.105993
     33 H                     0.101988
     34 H                     0.132361
     35 H                     0.105742
     36 H                     0.111729
     37 H                     0.148918
     38 H                     0.097689
     39 C                    -0.186905
     40 H                     0.114761
     41 H                     0.086785
     42 H                     0.108036
     43 C                    -0.176112
     44 H                     0.089860
     45 C                    -0.166726
     46 H                     0.098017
     47 H                     0.090784
     48 H                     0.098021
     49 C                    -0.171503
     50 H                     0.087178
     51 C                    -0.307394
     52 H                     0.091296
     53 H                     0.100807
     54 H                     0.095587
     55 H                     0.099958
     56 C                     0.299402
     57 C                    -0.122011
     58 N                    -0.497684
     59 C                    -0.061786
     60 C                     0.090964
     61 C                     0.008466
     62 C                    -0.008222
     63 C                     0.084902
     64 C                     0.246759
     65 N                    -0.498105
     66 N                    -0.537624
     67 C                     0.166748
     68 C                     0.261720
     69 S                     0.617839
     70 N                    -0.564479
     71 C                    -0.202667
     72 S                     0.319499
     73 C                    -0.126216
     74 C                    -0.230102
     75 S                     0.263098
     76 C                     0.178175
     77 C                     0.051590
     78 C                    -0.317792
     79 C                     0.001122
     80 N                    -0.427516
     81 S                     0.264526
     82 C                     0.099838
     83 C                    -0.307809
     84 C                    -0.236570
     85 H                     0.082191
     86 H                     0.105348
     87 H                     0.120077
     88 H                     0.112587
     89 H                     0.134829
     90 H                     0.127817
     91 H                     0.117568
     92 H                     0.140861
     93 H                     0.119114
     94 C                    -0.164757
     95 H                     0.103243
     96 H                     0.115553
     97 H                     0.098964
     98 C                    -0.181778
     99 H                     0.087082
    100 C                    -0.179718
    101 H                     0.081555
    102 H                     0.087520
    103 H                     0.096109
    104 C                    -0.177330
    105 H                     0.085955
    106 C                    -0.325223
    107 H                     0.103014
    108 H                     0.102916
    109 H                     0.107291
    110 H                     0.100026
  ----------------------------------------
  Sum of atomic charges =     0.000000

                    Cartesian Multipole Moments
 -----------------------------------------------------------------
    Charge (ESU x 10^10)
                 0.0000
    Dipole Moment (Debye)
         X      -0.0723      Y      -0.3591      Z       0.1099
       Tot       0.3824
    Quadrupole Moments (Debye-Ang)
        XX    -446.1402     XY      -7.5966     YY    -415.6188
        XZ      16.6708     YZ     -18.9485     ZZ    -420.8026

 Total job time:  97.60s(wall), 1056.40s(cpu)
        *  Thank you very much for using Q-Chem.  Have a nice day.  *
