 Q-Chem 4.4, Q-Chem, Inc., Pleasanton, CA (2016)
 Q-Chem 4.4.2 for Intel X86 Linux

User input:
--------------------------------------------------------------
$comment
SP
$end

$rem
MEM_STATIC 5000
MEM_TOTAL 20000
JOBTYPE SP
EXCHANGE B3LYP
BASIS 6-31g(d,p)
$end

$molecule
0 1
C           2.241000     18.856000     10.678000
C           3.570000     19.191000     10.754000
N           1.723000     18.268000      9.609000
C           4.441000     19.018000      9.700000
C           2.505000     17.939000      8.607000
C           3.864000     18.345000      8.551000
C           4.750000     17.919000      7.451000
C           6.040000     17.460000      7.664000
C           4.439000     18.010000      6.089000
N           6.887000     16.921000      6.703000
N           3.253000     18.485000      5.672000
C           5.322000     17.608000      5.082000
C           6.562000     17.011000      5.440000
S           3.266000     18.360000      4.063000
N           4.750000     17.717000      3.848000
C           7.647000     16.519000      4.571000
S           9.015000     15.631000      5.263000
C           8.063000     16.959000      3.348000
C           9.886000     15.554000      3.688000
S           7.378000     18.203000      2.383000
C           9.327000     16.449000      2.860000
C          11.151000     15.000000      3.552000
C           8.644000     17.926000      1.206000
C           9.539000     16.923000      1.579000
N          11.801000     15.030000      2.432000
S          11.976000     14.379000      5.006000
C          13.047000     14.472000      2.591000
C          13.272000     13.979000      3.863000
C           1.254000     19.160000     11.854000
H           3.910000     19.669000     11.668000
H           5.500000     19.220000      9.829000
H           2.083000     17.512000      7.698000
H           6.369000     17.350000      8.697000
H           8.520000     18.305000      0.200000
H          10.426000     16.656000      1.016000
H          13.751000     14.457000      1.769000
H          14.127000     13.456000      4.271000
H           1.659000     19.968000     12.477000
C           0.857000     17.983000     12.724000
H           0.352000     19.361000     11.262000
H           1.715000     17.685000     13.340000
H           0.718000     17.184000     11.986000
C          -0.316000     18.265000     13.653000
H          -0.247000     19.199000     14.225000
C          -0.708000     17.063000     14.593000
H          -1.151000     18.505000     12.984000
H          -0.564000     16.094000     14.099000
H          -1.747000     17.059000     14.945000
C           0.115000     17.079000     15.901000
H           1.175000     17.251000     15.676000
C          -0.029000     15.768000     16.792000
H          -0.248000     17.939000     16.477000
H          -1.009000     15.801000     17.285000
H           0.642000     15.822000     17.657000
H           0.118000     14.822000     16.256000
C          -9.746000     13.024000      2.694000
C          -8.703000     12.841000      1.840000
N          -9.812000     14.091000      3.489000
C          -7.651000     13.738000      1.680000
C          -8.835000     15.020000      3.396000
C          -7.712000     14.909000      2.512000
C          -6.607000     15.930000      2.545000
C          -5.812000     16.146000      1.382000
C          -6.110000     16.589000      3.746000
N          -4.798000     16.947000      1.409000
N          -6.698000     16.623000      4.957000
C          -5.096000     17.519000      3.612000
C          -4.339000     17.670000      2.475000
S          -5.800000     17.568000      5.930000
N          -4.737000     18.104000      4.799000
C          -3.162000     18.554000      2.405000
S          -2.867000     20.020000      3.409000
C          -1.965000     18.141000      1.844000
C          -1.186000     20.035000      2.843000
S          -1.563000     16.794000      0.829000
C          -0.907000     18.996000      2.059000
C          -0.283000     21.076000      3.117000
C           0.069000     17.485000      0.632000
C           0.261000     18.620000      1.321000
N           1.006000     20.882000      3.092000
S          -0.759000     22.605000      3.805000
C           1.689000     21.966000      3.613000
C           0.880000     23.064000      4.009000
C         -10.835000     11.975000      2.801000
H          -8.726000     11.966000      1.196000
H          -6.944000     13.605000      0.867000
H          -8.894000     15.932000      3.988000
H          -6.031000     15.602000      0.464000
H           0.734000     17.023000     -0.085000
H           1.105000     19.301000      1.325000
H           2.765000     21.969000      3.725000
H           1.209000     23.855000      4.670000
H         -11.618000     12.141000      2.050000
C         -11.453000     11.776000      4.222000
H         -10.301000     11.053000      2.540000
H         -12.163000     12.592000      4.404000
H         -10.744000     11.732000      5.057000
C         -12.380000     10.525000      4.246000
H         -13.004000     10.607000      3.347000
C         -13.313000     10.212000      5.421000
H         -11.774000      9.619000      4.121000
H         -12.782000      9.691000      6.227000
H         -13.984000      9.451000      5.004000
C         -14.017000     11.442000      5.989000
H         -14.423000     11.166000      6.970000
C         -15.116000     11.992000      4.982000
H         -13.414000     12.302000      6.308000
H         -15.694000     11.145000      4.593000
H         -14.633000     12.527000      4.154000
H         -15.783000     12.758000      5.396000
$end

--------------------------------------------------------------

             Standard Nuclear Orientation (Angstroms)
    I     Atom           X                Y                Z
 ----------------------------------------------------------------
    1      C      -2.5272811879    -5.6244701532    -1.1588757056
    2      C      -3.8928921556    -5.6492799976    -1.2957448281
    3      N      -1.8809143994    -4.5453703175    -0.7410449752
    4      C      -4.6802403220    -4.5369050003    -1.0903410060
    5      C      -2.5600584383    -3.4780078231    -0.3899471541
    6      C      -3.9595558182    -3.3750940955    -0.6036498644
    7      C      -4.7229167044    -2.1968298860    -0.1503887808
    8      C      -5.9410989235    -2.2998832330     0.5019624197
    9      C      -4.3661750624    -0.8658049385    -0.3976821084
   10      N      -6.6559073052    -1.2536340441     1.0728061919
   11      N      -3.2437321442    -0.5549242459    -1.0681931749
   12      C      -5.1343241961     0.2178852681     0.0392440234
   13      C      -6.2897311538    -0.0218865605     0.8327912698
   14      S      -3.1645395883     1.0570060668    -1.0773695552
   15      N      -4.5281122371     1.4051362863    -0.2518969744
   16      C      -7.2508120531     0.9428744246     1.3984853096
   17      S      -8.5058589912     0.4000990374     2.5250216216
   18      C      -7.6696155660     2.1507424233     0.9209462901
   19      C      -9.2832007204     2.0238040896     2.5922283156
   20      S      -7.1287164054     2.9774274128    -0.4833350301
   21      C      -8.8225023347     2.7478844475     1.5614254089
   22      C     -10.4468623220     2.2739506775     3.3056393903
   23      C      -8.2857293379     4.2428330116    -0.1299460881
   24      C      -9.0419489089     3.9991888325     1.0167589631
   25      N     -11.0421987859     3.4238993452     3.2741345268
   26      S     -11.2389644666     0.9211594044     4.1558816874
   27      C     -12.2000521277     3.3796012295     4.0134411721
   28      C     -12.4093477577     2.1637948642     4.6376752800
   29      C      -1.6498902972    -6.8749119860    -1.4996710221
   30      H      -4.3402552764    -6.5759425539    -1.6430814729
   31      H      -5.7621369313    -4.6198653706    -1.1296259127
   32      H      -2.0392777209    -2.5649091279    -0.1040586841
   33      H      -6.2977623587    -3.3009267645     0.7430703667
   34      H      -8.1719397406     5.2083175820    -0.6052822553
   35      H      -9.8540292881     4.6308639908     1.3581369827
   36      H     -12.8559207773     4.2394282761     4.0588147806
   37      H     -13.1972685437     1.8465156190     5.3081472895
   38      H      -2.1959986567    -7.5332579205    -2.1876857676
   39      C      -1.1267429867    -7.6742563859    -0.3218750203
   40      H      -0.7603561581    -6.3526852014    -1.8744739047
   41      H      -1.9598212722    -8.2155251228     0.1444218001
   42      H      -0.8395604383    -6.8868432300     0.3851417445
   43      C      -0.0509806717    -8.6878300990    -0.6877954621
   44      H      -0.2809359196    -9.3242830901    -1.5517104892
   45      C       0.4676358723    -9.5546679854     0.5212111380
   46      H       0.7702133117    -8.0880716561    -1.0980590989
   47      H       0.4885653381    -8.9809675314     1.4561778468
   48      H       1.4789493077    -9.9644258125     0.4081418731
   49      C      -0.4081849214   -10.8106734126     0.7305847373
   50      H      -1.4704572623   -10.5389059233     0.6914835168
   51      C      -0.1166186432   -11.6062051533     2.0779734544
   52      H      -0.2006196959   -11.4702886910    -0.1208665894
   53      H       0.8245378343   -12.1557467731     1.9484879612
   54      H      -0.8273723923   -12.4328439860     2.1914606715
   55      H      -0.1000613182   -10.9922723527     2.9871672574
   56      C      10.5328661000     2.0783053095     2.2388370528
   57      C       9.5677842798     3.0022275649     2.4950376504
   58      N      10.4068028245     1.2020018903     1.2433118808
   59      C       8.4052661142     3.1537051946     1.7450249555
   60      C       9.3106919072     1.2800444047     0.4567565916
   61      C       8.2574754593     2.2329494805     0.6506973825
   62      C       7.0157218383     2.1859202210    -0.1980612366
   63      C       6.2520681454     3.3728569990    -0.3962130027
   64      C       6.3737480448     0.9688164960    -0.6778728360
   65      N       5.1324432787     3.3433028107    -1.0412654872
   66      N       6.8943426566    -0.2730241613    -0.6931709403
   67      C       5.2428062090     1.0897211176    -1.4636238376
   68      C       4.5249445121     2.2535364301    -1.6008371845
   69      S       5.8250245551    -1.2618845741    -1.4176513622
   70      N       4.7486029534    -0.1157441404    -1.8910482799
   71      C       3.2366334326     2.3235900149    -2.3128990200
   72      S       2.6862950970     1.2296291507    -3.6337223783
   73      C       2.1392491639     2.9821769862    -1.7836448579
   74      C       1.0486912927     1.8884431096    -3.4589083408
   75      S       1.9839465405     4.1180640181    -0.4829220797
   76      C       0.9596677696     2.7638988740    -2.4600740116
   77      C      -0.0073857734     1.5883899974    -4.3357409133
   78      C       0.2797631999     4.3553426614    -0.9510801590
   79      C      -0.1062908598     3.5942018876    -1.9861825623
   80      N      -1.2520874953     1.7020467812    -3.9648207615
   81      S       0.2096753480     0.7599272086    -5.8537313208
   82      C      -2.1083095307     1.1402146520    -4.8944521318
   83      C      -1.4861928947     0.6160726986    -6.0585599893
   84      C      11.7564367782     1.9890193447     3.1291593607
   85      H       9.7470240250     3.7085083369     3.3012203746
   86      H       7.7631358058     4.0137177275     1.9079792750
   87      H       9.2095188469     0.6180049358    -0.4018217412
   88      H       6.5895977055     4.3154680440     0.0329480556
   89      H      -0.2775418533     5.1423960663    -0.4614721365
   90      H      -1.0394317141     3.5869053130    -2.5387293080
   91      H      -3.1773608014     1.0902843357    -4.7364478781
   92      H      -1.9564657096    -0.0831719498    -6.7373408090
   93      H      12.5407371581     2.6790174217     2.7923781737
   94      C      12.3308342610     0.5541278603     3.3570188786
   95      H      11.3743867694     2.3496015703     4.0921646822
   96      H      12.9058399550     0.2701394065     2.4671879903
   97      H      11.5981166792    -0.2330138140     3.5700327983
   98      C      13.4274054750     0.5721262453     4.4625113619
   99      H      14.0735403937     1.4249683939     4.2186447255
  100      C      14.3409717329    -0.6273049380     4.7379102165
  101      H      12.9656257638     0.8002451998     5.4312312600
  102      H      13.8547062639    -1.3595307842     5.3939812521
  103      H      15.1337026063    -0.1928702123     5.3592758347
  104      C      14.8322625510    -1.3266715695     3.4727384310
  105      H      15.2285092200    -2.3055363219     3.7696986534
  106      C      15.8849406158    -0.4291821162     2.6912452619
  107      H      14.0968807862    -1.6749845908     2.7359469414
  108      H      16.5969431510    -0.0107404551     3.4128912735
  109      H      15.3679925226     0.3821070483     2.1624044915
  110      H      16.4140430242    -0.9378439647     1.8761656552
 ----------------------------------------------------------------

   11   -5663.5063990308      7.14E-06 Convergence criterion met
 Total energy in the final basis set = -5663.5063990308

                    Orbital Energies (a.u.)
 --------------------------------------------------------------

 Alpha MOs
 -- Occupied --
-88.991 -88.986 -88.929 -88.926 -88.917 -88.911 -88.909 -88.906
-14.382 -14.381 -14.379 -14.376 -14.350 -14.348 -14.342 -14.338
-14.328 -14.327 -10.267 -10.263 -10.261 -10.259 -10.257 -10.256
-10.251 -10.247 -10.245 -10.239 -10.238 -10.236 -10.236 -10.236
-10.233 -10.230 -10.229 -10.228 -10.227 -10.227 -10.226 -10.226
-10.226 -10.226 -10.226 -10.224 -10.223 -10.220 -10.220 -10.219
-10.217 -10.217 -10.202 -10.201 -10.196 -10.195 -10.193 -10.192
-10.189 -10.185 -10.182 -10.180 -10.179 -10.178 -10.177 -10.177
-10.176 -10.175 -10.172 -10.171  -8.046  -8.041  -7.988  -7.987
 -7.978  -7.971  -7.970  -7.967  -6.011  -6.006  -6.006  -6.004
 -6.000  -5.999  -5.952  -5.952  -5.949  -5.948  -5.946  -5.943
 -5.942  -5.939  -5.935  -5.935  -5.934  -5.932  -5.931  -5.931
 -5.928  -5.927  -5.926  -5.923  -1.038  -1.035  -0.978  -0.971
 -0.963  -0.961  -0.952  -0.940  -0.921  -0.912  -0.901  -0.896
 -0.849  -0.845  -0.836  -0.825  -0.817  -0.813  -0.807  -0.806
 -0.803  -0.802  -0.799  -0.797  -0.785  -0.784  -0.768  -0.767
 -0.749  -0.748  -0.744  -0.739  -0.731  -0.713  -0.709  -0.707
 -0.694  -0.693  -0.679  -0.671  -0.658  -0.657  -0.646  -0.644
 -0.637  -0.636  -0.629  -0.626  -0.616  -0.614  -0.600  -0.598
 -0.596  -0.591  -0.589  -0.584  -0.583  -0.582  -0.567  -0.557
 -0.551  -0.546  -0.541  -0.538  -0.525  -0.521  -0.512  -0.511
 -0.509  -0.508  -0.503  -0.501  -0.487  -0.485  -0.479  -0.473
 -0.471  -0.470  -0.466  -0.466  -0.464  -0.459  -0.455  -0.452
 -0.446  -0.445  -0.443  -0.441  -0.439  -0.435  -0.433  -0.432
 -0.430  -0.428  -0.425  -0.421  -0.418  -0.417  -0.414  -0.413
 -0.413  -0.410  -0.408  -0.407  -0.406  -0.403  -0.400  -0.398
 -0.395  -0.394  -0.392  -0.389  -0.388  -0.385  -0.380  -0.379
 -0.377  -0.374  -0.371  -0.370  -0.366  -0.365  -0.359  -0.354
 -0.354  -0.351  -0.349  -0.348  -0.346  -0.344  -0.342  -0.338
 -0.335  -0.334  -0.332  -0.330  -0.330  -0.328  -0.323  -0.315
 -0.311  -0.309  -0.308  -0.305  -0.304  -0.302  -0.300  -0.299
 -0.296  -0.295  -0.292  -0.291  -0.288  -0.285  -0.285  -0.283
 -0.278  -0.270  -0.269  -0.261  -0.254  -0.251  -0.250  -0.250
 -0.244  -0.238  -0.233  -0.231  -0.198  -0.191

          Ground-State Mulliken Net Atomic Charges

     Atom                 Charge (a.u.)
  ----------------------------------------
      1 C                     0.269125
      2 C                    -0.113494
      3 N                    -0.473610
      4 C                    -0.067462
      5 C                     0.097308
      6 C                     0.005912
      7 C                     0.064057
      8 C                     0.029050
      9 C                     0.196383
     10 N                    -0.521496
     11 N                    -0.549620
     12 C                     0.221869
     13 C                     0.315680
     14 S                     0.628091
     15 N                    -0.561462
     16 C                    -0.206388
     17 S                     0.294870
     18 C                    -0.142234
     19 C                    -0.231083
     20 S                     0.279289
     21 C                     0.181812
     22 C                     0.087077
     23 C                    -0.304664
     24 C                    -0.073081
     25 N                    -0.453231
     26 S                     0.249208
     27 C                     0.127729
     28 C                    -0.307033
     29 C                    -0.218478
     30 H                     0.083236
     31 H                     0.107442
     32 H                     0.120358
     33 H                     0.105514
     34 H                     0.129438
     35 H                     0.124756
     36 H                     0.114653
     37 H                     0.126810
     38 H                     0.090409
     39 C                    -0.170338
     40 H                     0.120582
     41 H                     0.087174
     42 H                     0.113661
     43 C                    -0.178646
     44 H                     0.090607
     45 C                    -0.174550
     46 H                     0.091460
     47 H                     0.093467
     48 H                     0.090302
     49 C                    -0.176678
     50 H                     0.092851
     51 C                    -0.327838
     52 H                     0.092917
     53 H                     0.102564
     54 H                     0.101304
     55 H                     0.106991
     56 C                     0.299459
     57 C                    -0.122248
     58 N                    -0.497765
     59 C                    -0.062647
     60 C                     0.091015
     61 C                     0.008925
     62 C                    -0.008173
     63 C                     0.083860
     64 C                     0.245754
     65 N                    -0.501359
     66 N                    -0.542330
     67 C                     0.162699
     68 C                     0.275339
     69 S                     0.620052
     70 N                    -0.551331
     71 C                    -0.204133
     72 S                     0.331564
     73 C                    -0.117263
     74 C                    -0.231886
     75 S                     0.260337
     76 C                     0.170728
     77 C                     0.054895
     78 C                    -0.327193
     79 C                    -0.007641
     80 N                    -0.439991
     81 S                     0.272941
     82 C                     0.102303
     83 C                    -0.307837
     84 C                    -0.236417
     85 H                     0.081294
     86 H                     0.104262
     87 H                     0.120659
     88 H                     0.110721
     89 H                     0.133948
     90 H                     0.127085
     91 H                     0.116528
     92 H                     0.142989
     93 H                     0.118745
     94 C                    -0.165237
     95 H                     0.102740
     96 H                     0.115740
     97 H                     0.099023
     98 C                    -0.181208
     99 H                     0.086947
    100 C                    -0.180163
    101 H                     0.081235
    102 H                     0.087497
    103 H                     0.096024
    104 C                    -0.177110
    105 H                     0.085830
    106 C                    -0.324781
    107 H                     0.103155
    108 H                     0.102683
    109 H                     0.107245
    110 H                     0.099923
  ----------------------------------------
  Sum of atomic charges =     0.000000

                    Cartesian Multipole Moments
 -----------------------------------------------------------------
    Charge (ESU x 10^10)
                 0.0000
    Dipole Moment (Debye)
         X      -1.8372      Y      -0.5157      Z      -1.2608
       Tot       2.2871
    Quadrupole Moments (Debye-Ang)
        XX    -427.6564     XY       9.4363     YY    -419.1463
        XZ      13.6786     YZ      14.8347     ZZ    -428.3574

 Total job time:  101.65s(wall), 1099.47s(cpu)
        *  Thank you very much for using Q-Chem.  Have a nice day.  *
