 Q-Chem 4.4, Q-Chem, Inc., Pleasanton, CA (2016)
 Q-Chem 4.4.2 for Intel X86 Linux

User input:
--------------------------------------------------------------
$comment
SP
$end

$rem
MEM_STATIC 5000
MEM_TOTAL 20000
JOBTYPE SP
EXCHANGE B3LYP
BASIS 6-31g(d,p)
$end

$molecule
0 1
C           4.325000    -17.937000     -5.479000
C           3.807000    -18.458000     -4.323000
N           3.619000    -17.115000     -6.296000
C           2.482000    -18.161000     -4.010000
C           2.393000    -16.807000     -5.957000
C           1.751000    -17.319000     -4.867000
C           0.425000    -16.856000     -4.418000
C           0.075000    -15.522000     -4.595000
C          -0.539000    -17.688000     -3.857000
N          -1.148000    -14.998000     -4.224000
N          -0.422000    -19.013000     -3.735000
C          -1.795000    -17.218000     -3.572000
C          -2.063000    -15.824000     -3.569000
S          -1.860000    -19.554000     -3.321000
N          -2.711000    -18.179000     -3.200000
C          -3.312000    -15.262000     -3.133000
S          -4.258000    -15.989000     -1.871000
C          -3.836000    -14.086000     -3.522000
C          -5.214000    -14.435000     -1.657000
S          -3.262000    -12.864000     -4.626000
C          -4.830000    -13.637000     -2.690000
C          -6.106000    -14.044000     -0.495000
C          -4.654000    -11.867000     -4.197000
C          -5.373000    -12.381000     -3.203000
N          -6.210000    -12.722000     -0.258000
S          -6.623000    -15.108000      0.804000
C          -6.971000    -12.488000      0.882000
C          -7.320000    -13.644000      1.495000
C           5.770000    -18.154000     -5.939000
H           4.389000    -19.083000     -3.653000
H           2.100000    -18.413000     -3.025000
H           1.911000    -16.158000     -6.687000
H           0.781000    -14.868000     -5.105000
H          -4.770000    -10.905000     -4.678000
H          -6.130000    -11.862000     -2.628000
H          -7.197000    -11.475000      1.185000
H          -8.032000    -13.673000      2.308000
H           5.869000    -19.243000     -5.854000
C           6.908000    -17.438000     -5.140000
H           5.804000    -17.901000     -7.006000
H           7.918000    -17.727000     -5.454000
H           6.774000    -17.817000     -4.119000
C           6.772000    -15.888000     -5.049000
H           5.734000    -15.592000     -4.854000
C           7.120000    -15.180000     -6.307000
H           7.289000    -15.572000     -4.135000
H           6.414000    -15.240000     -7.144000
H           8.116000    -15.500000     -6.637000
C           7.035000    -13.628000     -6.069000
H           6.033000    -13.309000     -5.755000
C           7.447000    -12.786000     -7.278000
H           7.701000    -13.303000     -5.260000
H           7.624000    -11.744000     -6.986000
H           6.680000    -12.845000     -8.059000
H           8.440000    -13.135000     -7.590000
C           6.002000    -22.134000     -3.686000
C           7.049000    -22.989000     -4.075000
N           6.267000    -20.956000     -3.041000
C           8.395000    -22.704000     -3.706000
C           7.577000    -20.606000     -2.747000
C           8.634000    -21.498000     -3.039000
C          10.123000    -21.055000     -2.845000
C          11.157000    -21.868000     -2.322000
C          10.518000    -19.740000     -3.114000
N          12.430000    -21.467000     -2.137000
N           9.749000    -18.718000     -3.499000
C          11.819000    -19.350000     -2.941000
C          12.819000    -20.254000     -2.458000
S          10.696000    -17.411000     -3.632000
N          12.129000    -18.074000     -3.195000
C          14.198000    -19.989000     -2.116000
S          15.044000    -20.741000     -0.781000
C          15.070000    -19.460000     -3.031000
C          16.631000    -20.223000     -1.437000
S          14.787000    -18.805000     -4.658000
C          16.400000    -19.460000     -2.571000
C          17.941000    -20.424000     -0.926000
C          16.511000    -18.295000     -4.639000
C          17.250000    -18.854000     -3.553000
N          17.894000    -21.405000     -0.053000
S          19.475000    -19.566000     -1.062000
C          19.111000    -21.551000      0.564000
C          20.048000    -20.599000      0.250000
C           4.554000    -22.491000     -4.128000
H           6.815000    -23.902000     -4.615000
H           9.121000    -23.465000     -3.977000
H           7.691000    -19.628000     -2.282000
H          10.893000    -22.870000     -1.985000
H          17.023000    -17.652000     -5.342000
H          18.311000    -18.738000     -3.366000
H          19.194000    -22.325000      1.315000
H          21.055000    -20.360000      0.566000
H           4.367000    -23.571000     -4.096000
C           4.291000    -22.115000     -5.628000
H           3.753000    -21.955000     -3.604000
H           5.149000    -22.477000     -6.209000
H           4.279000    -21.026000     -5.763000
C           2.905000    -22.766000     -6.159000
H           2.723000    -22.538000     -7.217000
C           1.590000    -22.161000     -5.439000
H           2.855000    -23.848000     -5.987000
H           1.748000    -21.076000     -5.483000
H           1.575000    -22.414000     -4.372000
C           0.202000    -22.477000     -6.155000
H          -0.569000    -22.111000     -5.467000
C          -0.043000    -23.929000     -6.442000
H           0.123000    -21.940000     -7.109000
H           0.032000    -24.534000     -5.530000
H           0.606000    -24.284000     -7.253000
H          -1.027000    -23.923000     -6.926000
$end

--------------------------------------------------------------

             Standard Nuclear Orientation (Angstroms)
    I     Atom           X                Y                Z
 ----------------------------------------------------------------
    1      C       1.0263103385    -0.5427797051     2.0890082547
    2      C       1.3900891750    -0.8932471109     0.8158474026
    3      N       1.9177760584    -0.1068404951     3.0146728135
    4      C       2.7429457991    -0.8402060916     0.4860465459
    5      C       3.1766086383    -0.0151849367     2.6685502998
    6      C       3.6640053282    -0.3999545077     1.4533117043
    7      C       5.0547905830    -0.1591802783     1.0267086740
    8      C       5.7109451715     0.9864479237     1.4630367371
    9      C       5.7878913168    -1.0389929477     0.2363075221
   10      N       7.0171188882     1.2907201492     1.1324695965
   11      N       5.3611279541    -2.2410384180    -0.1601237073
   12      C       7.1147406136    -0.8127094880    -0.0243219836
   13      C       7.7025992740     0.4488099301     0.2550701301
   14      S       6.6254640205    -2.9850557426    -0.7764138436
   15      N       7.7737167301    -1.8465121286    -0.6551655287
   16      C       9.0419959189     0.7978670187    -0.1323789328
   17      S       9.7717787969     0.1794432701    -1.5818816125
   18      C       9.8333217257     1.7067548375     0.4647805101
   19      C      11.0627353167     1.4848990847    -1.5197174736
   20      S       9.5789938673     2.7460071392     1.8420415579
   21      C      10.8924157379     2.0953789985    -0.3157014788
   22      C      12.0041346658     1.9158467458    -2.6273457411
   23      C      11.1596538055     3.4735425052     1.5455277290
   24      C      11.7228537225     3.0478946329     0.4182199883
   25      N      12.4121880924     3.1987967160    -2.5804333240
   26      S      12.2372588065     1.0831117244    -4.1567219274
   27      C      13.1897194175     3.5055337068    -3.6916643788
   28      C      13.2482157381     2.4690717246    -4.5612796615
   29      C      -0.4221851935    -0.5260108908     2.5872988334
   30      H       0.6676117640    -1.2035261675     0.0675143900
   31      H       3.0402878548    -0.9435123809    -0.5534574284
   32      H       3.8084301478     0.3268967398     3.4872118335
   33      H       5.1860237958     1.6508164412     2.1481090125
   34      H      11.5055518015     4.2509277724     2.2135754240
   35      H      12.5718923197     3.4984839971    -0.0809169522
   36      H      13.6427781959     4.4829302152    -3.7837936830
   37      H      13.9212401142     2.4639666087    -5.4073092868
   38      H      -0.7754674137    -1.5167531288     2.2765441221
   39      C      -1.3719897072     0.5892588047     2.0394431113
   40      H      -0.3798418375    -0.5187276985     3.6835688710
   41      H      -2.4168013852     0.4725088008     2.3508190806
   42      H      -1.3460499112     0.4296301252     0.9541395540
   43      C      -0.8770969365     2.0482334730     2.2755597408
   44      H       0.1983525480     2.1385131005     2.0797460663
   45      C      -1.0302017631     2.5146345401     3.6769736542
   46      H      -1.3190219333     2.6701468843     1.4878624601
   47      H      -0.3456070762     2.1100651070     4.4321283990
   48      H      -2.0684488751     2.3617407819     3.9963205392
   49      C      -0.5866055589     4.0201023906     3.7737308696
   50      H       0.4574774646     4.1670928550     3.4693537294
   51      C      -0.7711706478     4.6389851967     5.1605649622
   52      H      -1.1696600528     4.6605254130     3.1002564384
   53      H      -0.7028143547     5.7323134646     5.1124223029
   54      H      -0.0278924455     4.2342077570     5.8572885360
   55      H      -1.8135830283     4.4619788868     5.4559277819
   56      C      -1.6162213739    -3.7389479582    -0.4494010201
   57      C      -2.8288176384    -4.4007186694    -0.1844013498
   58      N      -1.6067290533    -2.4173936426    -0.8062456455
   59      C      -4.0755825701    -3.7438451534    -0.3922387593
   60      C      -2.8021156990    -1.7239149728    -0.9294288500
   61      C      -4.0345729296    -2.3966643142    -0.7662280584
   62      C      -5.3805906003    -1.5971625595    -0.7599531625
   63      C      -6.5843299224    -2.0167543620    -1.3752647613
   64      C      -5.4515937405    -0.3221754752    -0.1881337077
   65      N      -7.7301461662    -1.3078198923    -1.3837531818
   66      N      -4.4583829907     0.3863693206     0.3555267366
   67      C      -6.6270276379     0.3799483086    -0.1854235056
   68      C      -7.8184984257    -0.1425732876    -0.7836488338
   69      S      -5.0697927149     1.8089247162     0.8301437354
   70      N      -6.6248036141     1.6021690729     0.3576818773
   71      C      -9.1016301379     0.4967102302    -0.9672777893
   72      S     -10.1204698838     0.2753138630    -2.3731206755
   73      C      -9.8111904174     0.9888778434     0.0965573719
   74      C     -11.5314023697     0.9766691793    -1.5160330249
   75      S      -9.3579504856     1.1796174286     1.8037290020
   76      C     -11.1107089058     1.3924886746    -0.2623994434
   77      C     -12.8594579049     1.1967300761    -1.9693140602
   78      C     -10.9140110995     2.0562487804     2.0106827142
   79      C     -11.7797986394     1.9375950930     0.8818199067
   80      N     -13.0572619557     0.4528052432    -3.0342780974
   81      S     -14.1467967142     2.3254563347    -1.5491333572
   82      C     -14.2835970186     0.7278783165    -3.5852146799
   83      C     -14.9659648300     1.7709445455    -3.0114063392
   84      C      -0.2861416760    -4.5035121323    -0.1927950561
   85      H      -2.8077648246    -5.4404613141     0.1293135079
   86      H      -4.9558823575    -4.3623748286    -0.2434727508
   87      H      -2.6901499889    -0.6665182936    -1.1641221449
   88      H      -6.5681443339    -2.9502011096    -1.9371225691
   89      H     -11.2500789656     2.6229762693     2.8684008162
   90      H     -12.7865431522     2.3290126466     0.7957746580
   91      H     -14.5573024086     0.1820245384    -4.4780164565
   92      H     -15.8932650284     2.2958045906    -3.2002509187
   93      H      -0.3585514871    -5.5621786688    -0.4691552988
   94      C       0.0802268036    -4.5441221792     1.3318917843
   95      H       0.6104168689    -4.0582167462    -0.6415352868
   96      H      -0.8300074637    -4.8244628178     1.8774664400
   97      H       0.3497010405    -3.5450075878     1.6971912078
   98      C       1.2823228890    -5.5934023776     1.6160291923
   99      H       1.5285914771    -5.6565209551     2.6836620073
  100      C       2.6917170598    -5.1545460118     0.9567393006
  101      H       1.0741976277    -6.5915405906     1.2120341635
  102      H       2.7936661400    -4.1003842003     1.2439226221
  103      H       2.6309074596    -5.1575426414    -0.1382566869
  104      C       3.9772115795    -5.9283923384     1.4931362643
  105      H       4.8022287625    -5.6005453765     0.8500157333
  106      C       3.8785665860    -7.4245561876     1.4435287871
  107      H       4.1943979374    -5.6519750052     2.5329196763
  108      H       3.6499238519    -7.7757846606     0.4297462365
  109      H       3.1765459090    -7.7971897658     2.2006669419
  110      H       4.8435733978    -7.7498220217     1.8503604357
 ----------------------------------------------------------------

    9   -5663.4823030780      9.37E-06 Convergence criterion met
 Total energy in the final basis set = -5663.4823030780

                    Orbital Energies (a.u.)
 --------------------------------------------------------------

 Alpha MOs
 -- Occupied --
-88.990 -88.988 -88.933 -88.931 -88.924 -88.919 -88.918 -88.900
-14.386 -14.385 -14.380 -14.377 -14.349 -14.345 -14.344 -14.341
-14.338 -14.318 -10.279 -10.265 -10.258 -10.257 -10.253 -10.252
-10.249 -10.247 -10.246 -10.242 -10.241 -10.238 -10.238 -10.237
-10.234 -10.233 -10.231 -10.231 -10.231 -10.230 -10.230 -10.229
-10.228 -10.228 -10.222 -10.218 -10.218 -10.214 -10.213 -10.213
-10.209 -10.207 -10.204 -10.203 -10.202 -10.201 -10.194 -10.190
-10.187 -10.186 -10.185 -10.179 -10.177 -10.175 -10.173 -10.170
-10.169 -10.168 -10.167 -10.164  -8.045  -8.044  -7.993  -7.992
 -7.982  -7.979  -7.977  -7.960  -6.011  -6.009  -6.005  -6.003
 -6.003  -6.002  -5.957  -5.956  -5.954  -5.952  -5.950  -5.949
 -5.946  -5.943  -5.943  -5.942  -5.939  -5.938  -5.938  -5.935
 -5.933  -5.925  -5.921  -5.916  -1.048  -1.047  -0.973  -0.967
 -0.961  -0.944  -0.940  -0.930  -0.914  -0.912  -0.906  -0.905
 -0.843  -0.839  -0.832  -0.831  -0.810  -0.806  -0.805  -0.802
 -0.800  -0.799  -0.797  -0.794  -0.783  -0.780  -0.768  -0.762
 -0.749  -0.745  -0.741  -0.735  -0.726  -0.721  -0.706  -0.706
 -0.694  -0.690  -0.675  -0.669  -0.653  -0.651  -0.647  -0.646
 -0.637  -0.633  -0.631  -0.622  -0.613  -0.606  -0.603  -0.596
 -0.595  -0.587  -0.586  -0.579  -0.576  -0.572  -0.558  -0.552
 -0.551  -0.550  -0.540  -0.532  -0.525  -0.523  -0.518  -0.509
 -0.507  -0.506  -0.498  -0.497  -0.487  -0.487  -0.480  -0.477
 -0.474  -0.471  -0.469  -0.466  -0.462  -0.455  -0.448  -0.446
 -0.441  -0.439  -0.438  -0.436  -0.434  -0.432  -0.431  -0.430
 -0.428  -0.426  -0.424  -0.419  -0.418  -0.416  -0.414  -0.412
 -0.411  -0.407  -0.406  -0.401  -0.400  -0.399  -0.396  -0.394
 -0.392  -0.391  -0.391  -0.390  -0.387  -0.385  -0.385  -0.381
 -0.377  -0.374  -0.373  -0.371  -0.367  -0.362  -0.354  -0.353
 -0.351  -0.349  -0.347  -0.346  -0.344  -0.344  -0.342  -0.341
 -0.339  -0.338  -0.330  -0.328  -0.326  -0.321  -0.319  -0.316
 -0.313  -0.313  -0.306  -0.306  -0.303  -0.300  -0.299  -0.298
 -0.293  -0.292  -0.289  -0.288  -0.286  -0.285  -0.280  -0.280
 -0.273  -0.270  -0.268  -0.262  -0.255  -0.254  -0.250  -0.247
 -0.244  -0.244  -0.235  -0.232  -0.195  -0.193

          Ground-State Mulliken Net Atomic Charges

     Atom                 Charge (a.u.)
  ----------------------------------------
      1 C                     0.244580
      2 C                    -0.126117
      3 N                    -0.476995
      4 C                    -0.057937
      5 C                     0.063027
      6 C                     0.051046
      7 C                     0.037174
      8 C                     0.060191
      9 C                     0.228275
     10 N                    -0.529079
     11 N                    -0.535026
     12 C                     0.170498
     13 C                     0.282523
     14 S                     0.608921
     15 N                    -0.544796
     16 C                    -0.227679
     17 S                     0.298543
     18 C                    -0.084110
     19 C                    -0.247754
     20 S                     0.277390
     21 C                     0.147309
     22 C                     0.043984
     23 C                    -0.308331
     24 C                    -0.027679
     25 N                    -0.426945
     26 S                     0.279921
     27 C                     0.133686
     28 C                    -0.308709
     29 C                    -0.226212
     30 H                     0.129357
     31 H                     0.106976
     32 H                     0.096761
     33 H                     0.116087
     34 H                     0.128915
     35 H                     0.117447
     36 H                     0.123577
     37 H                     0.126387
     38 H                     0.100825
     39 C                    -0.185580
     40 H                     0.111387
     41 H                     0.097432
     42 H                     0.097757
     43 C                    -0.175186
     44 H                     0.100089
     45 C                    -0.157124
     46 H                     0.084956
     47 H                     0.112555
     48 H                     0.078821
     49 C                    -0.187878
     50 H                     0.093664
     51 C                    -0.318403
     52 H                     0.083010
     53 H                     0.096612
     54 H                     0.102825
     55 H                     0.098992
     56 C                     0.285805
     57 C                    -0.117173
     58 N                    -0.508265
     59 C                    -0.067771
     60 C                     0.104254
     61 C                     0.016747
     62 C                     0.013722
     63 C                     0.053019
     64 C                     0.290536
     65 N                    -0.501888
     66 N                    -0.570708
     67 C                     0.162469
     68 C                     0.264817
     69 S                     0.603688
     70 N                    -0.537545
     71 C                    -0.195740
     72 S                     0.356273
     73 C                    -0.127651
     74 C                    -0.203084
     75 S                     0.271997
     76 C                     0.149038
     77 C                     0.060902
     78 C                    -0.293242
     79 C                    -0.095797
     80 N                    -0.428193
     81 S                     0.267705
     82 C                     0.129389
     83 C                    -0.318933
     84 C                    -0.226124
     85 H                     0.092554
     86 H                     0.112380
     87 H                     0.129875
     88 H                     0.111838
     89 H                     0.130422
     90 H                     0.102809
     91 H                     0.115176
     92 H                     0.141452
     93 H                     0.104474
     94 C                    -0.195848
     95 H                     0.122480
     96 H                     0.091521
     97 H                     0.118340
     98 C                    -0.191431
     99 H                     0.096024
    100 C                    -0.194074
    101 H                     0.093737
    102 H                     0.109577
    103 H                     0.087483
    104 C                    -0.183856
    105 H                     0.093319
    106 C                    -0.307210
    107 H                     0.094618
    108 H                     0.102039
    109 H                     0.104836
    110 H                     0.099260
  ----------------------------------------
  Sum of atomic charges =     0.000000

                    Cartesian Multipole Moments
 -----------------------------------------------------------------
    Charge (ESU x 10^10)
                 0.0000
    Dipole Moment (Debye)
         X      -1.8556      Y      -0.3676      Z      -1.9582
       Tot       2.7226
    Quadrupole Moments (Debye-Ang)
        XX    -364.0080     XY     -11.6100     YY    -425.3521
        XZ     -29.7668     YZ      -1.8105     ZZ    -437.2495

 Total job time:  91.27s(wall), 1011.26s(cpu)
        *  Thank you very much for using Q-Chem.  Have a nice day.  *
