 Q-Chem 4.4, Q-Chem, Inc., Pleasanton, CA (2016)
 Q-Chem 4.4.2 for Intel X86 Linux

User input:
--------------------------------------------------------------
$comment
SP
$end

$rem
MEM_STATIC 5000
MEM_TOTAL 20000
JOBTYPE SP
EXCHANGE B3LYP
BASIS 6-31g(d,p)
$end

$molecule
0 1
C          15.823000     15.778000    -14.767000
C          15.794000     17.142000    -14.345000
N          14.718000     15.028000    -14.571000
C          14.613000     17.714000    -13.781000
C          13.638000     15.615000    -13.968000
C          13.485000     16.944000    -13.598000
C          12.129000     17.447000    -13.077000
C          12.019000     18.472000    -12.106000
C          10.894000     17.002000    -13.505000
N          10.839000     18.914000    -11.542000
N          10.775000     16.176000    -14.556000
C           9.656000     17.419000    -12.980000
C           9.648000     18.396000    -11.954000
S           9.211000     15.856000    -14.703000
N           8.596000     16.782000    -13.509000
C           8.416000     18.892000    -11.295000
S           6.818000     18.151000    -11.325000
C           8.360000     20.156000    -10.705000
C           6.118000     19.505000    -10.534000
S           9.640000     21.364000    -10.468000
C           7.083000     20.440000    -10.294000
C           4.764000     19.552000    -10.146000
C           8.422000     22.333000     -9.640000
C           7.106000     21.756000     -9.661000
N           4.487000     20.336000     -9.153000
S           3.412000     18.576000    -10.628000
C           3.118000     20.368000     -8.878000
C           2.340000     19.512000     -9.615000
C          17.026000     15.226000    -15.404000
H          16.751000     17.655000    -14.341000
H          14.555000     18.744000    -13.442000
H          12.771000     14.957000    -13.928000
H          12.837000     19.134000    -11.826000
H           8.697000     23.340000     -9.352000
H           6.198000     22.273000     -9.373000
H           2.806000     21.022000     -8.074000
H           1.287000     19.338000     -9.793000
H          16.825000     14.271000    -15.905000
C          18.205000     15.036000    -14.508000
H          17.345000     15.943000    -16.171000
H          18.652000     16.007000    -14.259000
H          19.006000     14.652000    -15.151000
C          17.883000     14.212000    -13.255000
H          17.175000     13.427000    -13.548000
C          17.417000     14.852000    -11.951000
H          18.812000     13.734000    -12.921000
H          16.599000     15.547000    -12.177000
H          18.185000     15.471000    -11.472000
C          16.923000     13.811000    -10.883000
H          16.633000     14.375000     -9.988000
C          18.035000     12.726000    -10.470000
H          16.001000     13.324000    -11.223000
H          17.638000     12.113000     -9.652000
H          18.928000     13.315000    -10.226000
H          18.245000     11.960000    -11.227000
C           0.811000     12.983000    -13.708000
C           1.826000     13.313000    -14.627000
N           1.108000     12.943000    -12.415000
C           3.150000     13.497000    -14.181000
C           2.339000     13.311000    -11.982000
C           3.485000     13.471000    -12.805000
C           4.822000     13.790000    -12.367000
C           5.896000     13.477000    -13.134000
C           5.074000     14.509000    -11.123000
N           7.179000     13.697000    -12.699000
N           4.158000     15.033000    -10.281000
C           6.382000     14.627000    -10.691000
C           7.472000     14.156000    -11.498000
S           4.990000     15.523000     -8.971000
N           6.521000     15.220000     -9.429000
C           8.916000     14.371000    -11.229000
S           9.569000     15.467000     -9.992000
C           9.970000     13.732000    -11.818000
C          11.229000     15.075000    -10.371000
S           9.979000     12.430000    -13.004000
C          11.213000     14.106000    -11.427000
C          12.368000     15.865000    -10.022000
C          11.684000     12.226000    -12.788000
C          12.220000     13.227000    -11.994000
N          13.550000     15.471000    -10.273000
S          12.164000     17.286000     -9.036000
C          14.486000     16.350000     -9.723000
C          13.860000     17.475000     -9.098000
C          -0.551000     12.485000    -14.213000
H           1.588000     13.393000    -15.684000
H           3.937000     13.731000    -14.892000
H           2.505000     13.184000    -10.913000
H           5.744000     12.892000    -14.039000
H          12.297000     11.489000    -13.289000
H          13.274000     13.254000    -11.743000
H          15.531000     16.230000     -9.977000
H          14.204000     18.441000     -8.753000
H          -0.482000     12.013000    -15.201000
C          -1.724000     13.544000    -14.195000
H          -0.746000     11.631000    -13.553000
H          -1.739000     14.020000    -13.207000
H          -2.704000     13.073000    -14.339000
C          -1.436000     14.682000    -15.213000
H          -0.455000     15.167000    -15.129000
C          -2.365000     15.938000    -15.163000
H          -1.507000     14.236000    -16.212000
H          -2.270000     16.329000    -14.142000
H          -3.437000     15.726000    -15.262000
C          -2.004000     17.015000    -16.161000
H          -1.917000     17.995000    -15.675000
C          -2.962000     17.216000    -17.377000
H          -0.988000     16.884000    -16.555000
H          -2.676000     16.418000    -18.074000
H          -2.795000     18.164000    -17.904000
H          -4.043000     17.144000    -17.204000
$end

--------------------------------------------------------------

             Standard Nuclear Orientation (Angstroms)
    I     Atom           X                Y                Z
 ----------------------------------------------------------------
    1      C       7.2607903135    -1.8757355493    -2.5891909882
    2      C       7.2420796702    -0.4862223423    -2.9183170422
    3      N       6.1792377143    -2.3980476155    -1.9732566731
    4      C       6.0920275174     0.3183976689    -2.6537273914
    5      C       5.1322455095    -1.5628845015    -1.6888486981
    6      C       4.9869448562    -0.2272423296    -2.0374139126
    7      C       3.6603746738     0.4999063769    -1.7641881637
    8      C       3.5992613054     1.8781774886    -1.4445009749
    9      C       2.4063587695    -0.0739752002    -1.8315531930
   10      N       2.4517524363     2.5708369046    -1.1138858984
   11      N       2.2315597484    -1.3165794267    -2.3073872380
   12      C       1.1988212697     0.5785997495    -1.5182528231
   13      C       1.2435173258     1.9412734229    -1.1330363613
   14      S       0.6653364764    -1.6329509141    -2.1771614950
   15      N       0.1154022810    -0.2157054598    -1.5852791560
   16      C       0.0494255293     2.7298186403    -0.7451417600
   17      S      -1.5383923476     2.1111122673    -0.2983511895
   18      C       0.0154861497     4.1191579643    -0.8774911505
   19      C      -2.2034948021     3.6939998032    -0.2651431499
   20      S       1.2933717329     5.2520278594    -1.3647767308
   21      C      -1.2365346758     4.6001397174    -0.5921730721
   22      C      -3.5309828850     3.9608901609     0.1255151747
   23      C       0.1182190889     6.5334122897    -1.0729904991
   24      C      -1.1895584777     6.0543899614    -0.7187568962
   25      N      -3.7545128239     5.1464347651     0.5966333742
   26      S      -4.8988323910     2.9048798346     0.2887141936
   27      C      -5.1038731102     5.3433266327     0.8987433047
   28      C      -5.9162971638     4.2486741203     0.7474421673
   29      C       8.4279854456    -2.7006963525    -2.9279788226
   30      H       8.1912836870    -0.0631748356    -3.2330813058
   31      H       6.0431450787     1.3787752562    -2.8826266693
   32      H       4.2773390912    -2.0903817055    -1.2679749454
   33      H       4.4252724804     2.5727483154    -1.5895695980
   34      H       0.3987361511     7.5408685694    -1.3539887597
   35      H      -2.0838080144     6.6655268825    -0.6796873452
   36      H      -5.3726299933     6.3216726075     1.2756848006
   37      H      -6.9762389973     4.0312099517     0.7461595561
   38      H       8.2073521138    -3.7731885428    -2.8608339444
   39      C       9.6629904982    -2.4346245732    -2.1324127799
   40      H       8.6897494694    -2.4798714085    -3.9705021748
   41      H      10.1131413793    -1.4817025459    -2.4389332431
   42      H      10.4266311382    -3.1092732450    -2.5376388189
   43      C       9.4299592873    -2.5006175728    -0.6178136981
   44      H       8.7143716148    -3.3100850234    -0.4279855406
   45      C       9.0390144721    -1.2769796803     0.2050134159
   46      H      10.3836795842    -2.7626341980    -0.1436345300
   47      H       8.2002564006    -0.7756465790    -0.2933589541
   48      H       9.8281087676    -0.5172551550     0.2557562827
   49      C       8.6253200980    -1.6200870163     1.6813180324
   50      H       8.3852906967    -0.6734828924     2.1808653467
   51      C       9.7738337088    -2.3685990429     2.5209514237
   52      H       7.6896805913    -2.1922015101     1.6921217107
   53      H       9.4361881196    -2.4722752203     3.5590981890
   54      H      10.6733040209    -1.7567985042     2.3775664225
   55      H       9.9450748451    -3.4172997883     2.2474405102
   56      C      -7.6210576680    -3.4195080850     0.6420652712
   57      C      -6.6696354418    -3.6242009220    -0.3760617297
   58      N      -7.2431621398    -2.8034993882     1.7553425302
   59      C      -5.3225702706    -3.2678401022    -0.1658942000
   60      C      -5.9919094652    -2.2932934012     1.8663857438
   61      C      -4.9017174079    -2.5984326130     1.0092881183
   62      C      -3.5437847749    -2.1301730843     1.1431760489
   63      C      -2.5163143363    -2.8125899849     0.5789547523
   64      C      -3.2228904560    -0.8845325108     1.8312221214
   65      N      -1.2112829246    -2.4299316013     0.7638319440
   66      N      -4.0904909622     0.0142522948     2.3431315224
   67      C      -1.8918854582    -0.5917683234     2.0638738491
   68      C      -0.8490760065    -1.4309015027     1.5446494711
   69      S      -3.1839196193     1.0836846272     3.1694891244
   70      N      -1.6811353308     0.5569677966     2.8382146723
   71      C       0.6062847722    -1.1403656540     1.5798051881
   72      S       1.3224425289     0.4176626017     2.0461312778
   73      C       1.6288253425    -2.0126292295     1.3354181243
   74      C       2.9599725767    -0.1483472070     1.8202259018
   75      S       1.5789642825    -3.7364563310     0.9779058883
   76      C       2.8893503659    -1.5188537090     1.4066108258
   77      C       4.1091324382     0.6845467370     1.6501045019
   78      C       3.2964531166    -3.8392827738     1.1648706638
   79      C       3.8692181439    -2.5855799555     1.3059467677
   80      N       5.2776805412     0.1921879572     1.5638539192
   81      S       3.9504431460     2.4134560285     1.7870109313
   82      C       6.2357912845     1.2082242152     1.5333395650
   83      C       5.6368580448     2.5079927853     1.5359161469
   84      C      -9.0060101108    -4.0753956941     0.5431149039
   85      H      -6.9743378399    -4.0871493391    -1.3104750279
   86      H      -4.5845085014    -3.4445910812    -0.9428561787
   87      H      -5.7577498037    -1.8631605507     2.8393199573
   88      H      -2.7177619815    -3.7727903577     0.1080109230
   89      H       3.8855709979    -4.7416798456     1.0723577090
   90      H       4.9364798259    -2.4576285428     1.4446080030
   91      H       7.2641732851     0.9532393936     1.3134436768
   92      H       5.9902938424     3.5076094025     1.3205867353
   93      H      -8.9934521051    -4.9852448073    -0.0698336157
   94      C     -10.1880821962    -3.1289913310     0.0906125652
   95      H      -9.1491031509    -4.4712298245     1.5559232387
   96      H     -10.1467977009    -2.2168666968     0.6982878422
   97      H     -11.1695116233    -3.5864999975     0.2651379205
   98      C      -9.9779882186    -2.6725003568    -1.3796896184
   99      H      -8.9994870969    -2.2334400219    -1.6129353627
  100      C     -10.9168936185    -1.5454895865    -1.9194862225
  101      H     -10.1061435254    -3.5625198782    -2.0069052662
  102      H     -10.7627547776    -0.6921716931    -1.2468520051
  103      H     -11.9903945871    -1.7551289682    -1.8324460022
  104      C     -10.6319698828    -1.1329432451    -3.3459777160
  105      H     -10.5263415723    -0.0440773756    -3.4318775317
  106      C     -11.6666082114    -1.5568953140    -4.4352936353
  107      H      -9.6411710608    -1.4678960144    -3.6788100112
  108      H     -11.4153815838    -2.6043135247    -4.6455536495
  109      H     -11.5442412102    -1.0119470280    -5.3799521358
  110      H     -12.7337103909    -1.5076067738    -4.1852184900
 ----------------------------------------------------------------

   10   -5663.5070282796      7.26E-06 Convergence criterion met
 Total energy in the final basis set = -5663.5070282796

                    Orbital Energies (a.u.)
 --------------------------------------------------------------

 Alpha MOs
 -- Occupied --
-88.990 -88.980 -88.926 -88.925 -88.920 -88.917 -88.909 -88.906
-14.391 -14.383 -14.377 -14.369 -14.348 -14.347 -14.340 -14.335
-14.329 -14.323 -10.266 -10.262 -10.259 -10.259 -10.259 -10.257
-10.247 -10.246 -10.242 -10.241 -10.239 -10.238 -10.238 -10.236
-10.232 -10.232 -10.232 -10.231 -10.231 -10.226 -10.225 -10.225
-10.224 -10.224 -10.224 -10.223 -10.218 -10.214 -10.213 -10.212
-10.210 -10.209 -10.208 -10.203 -10.199 -10.199 -10.198 -10.193
-10.192 -10.190 -10.182 -10.182 -10.181 -10.180 -10.179 -10.177
-10.175 -10.175 -10.174 -10.173  -8.045  -8.035  -7.985  -7.985
 -7.981  -7.979  -7.968  -7.966  -6.010  -6.004  -6.003  -6.000
 -5.994  -5.993  -5.949  -5.949  -5.945  -5.945  -5.945  -5.943
 -5.942  -5.942  -5.942  -5.940  -5.938  -5.937  -5.933  -5.930
 -5.929  -5.926  -5.924  -5.922  -1.037  -1.036  -0.976  -0.974
 -0.960  -0.945  -0.939  -0.927  -0.915  -0.913  -0.902  -0.899
 -0.847  -0.841  -0.840  -0.830  -0.812  -0.811  -0.807  -0.805
 -0.802  -0.799  -0.793  -0.791  -0.781  -0.775  -0.768  -0.764
 -0.747  -0.745  -0.738  -0.736  -0.727  -0.723  -0.709  -0.703
 -0.693  -0.691  -0.670  -0.669  -0.657  -0.655  -0.646  -0.641
 -0.637  -0.635  -0.624  -0.623  -0.614  -0.614  -0.600  -0.597
 -0.596  -0.590  -0.582  -0.581  -0.574  -0.572  -0.570  -0.556
 -0.549  -0.545  -0.542  -0.535  -0.525  -0.519  -0.513  -0.510
 -0.509  -0.501  -0.501  -0.497  -0.485  -0.484  -0.480  -0.474
 -0.473  -0.471  -0.469  -0.467  -0.460  -0.458  -0.449  -0.443
 -0.443  -0.442  -0.441  -0.437  -0.436  -0.433  -0.432  -0.429
 -0.428  -0.426  -0.422  -0.421  -0.420  -0.415  -0.414  -0.411
 -0.408  -0.407  -0.405  -0.403  -0.401  -0.399  -0.395  -0.394
 -0.393  -0.390  -0.387  -0.386  -0.385  -0.381  -0.379  -0.377
 -0.374  -0.374  -0.371  -0.369  -0.368  -0.366  -0.359  -0.355
 -0.353  -0.353  -0.350  -0.348  -0.346  -0.343  -0.341  -0.339
 -0.336  -0.336  -0.336  -0.334  -0.334  -0.332  -0.323  -0.316
 -0.313  -0.313  -0.311  -0.307  -0.304  -0.300  -0.300  -0.298
 -0.295  -0.295  -0.288  -0.284  -0.282  -0.280  -0.277  -0.275
 -0.271  -0.269  -0.268  -0.258  -0.253  -0.252  -0.246  -0.245
 -0.244  -0.240  -0.233  -0.226  -0.192  -0.191

          Ground-State Mulliken Net Atomic Charges

     Atom                 Charge (a.u.)
  ----------------------------------------
      1 C                     0.305542
      2 C                    -0.133360
      3 N                    -0.505546
      4 C                    -0.094187
      5 C                     0.067826
      6 C                     0.098795
      7 C                     0.061989
      8 C                     0.024441
      9 C                     0.198810
     10 N                    -0.524737
     11 N                    -0.544647
     12 C                     0.229545
     13 C                     0.291442
     14 S                     0.628307
     15 N                    -0.579786
     16 C                    -0.220019
     17 S                     0.327977
     18 C                    -0.118035
     19 C                    -0.226852
     20 S                     0.287324
     21 C                     0.180101
     22 C                     0.053487
     23 C                    -0.312709
     24 C                    -0.066154
     25 N                    -0.429558
     26 S                     0.256483
     27 C                     0.112242
     28 C                    -0.310899
     29 C                    -0.237087
     30 H                     0.084599
     31 H                     0.090444
     32 H                     0.124601
     33 H                     0.109909
     34 H                     0.126737
     35 H                     0.112077
     36 H                     0.112701
     37 H                     0.150134
     38 H                     0.118166
     39 C                    -0.186759
     40 H                     0.105127
     41 H                     0.085977
     42 H                     0.098032
     43 C                    -0.170852
     44 H                     0.106067
     45 C                    -0.190274
     46 H                     0.092637
     47 H                     0.104537
     48 H                     0.080035
     49 C                    -0.189194
     50 H                     0.090264
     51 C                    -0.325257
     52 H                     0.111588
     53 H                     0.102912
     54 H                     0.103678
     55 H                     0.109015
     56 C                     0.284364
     57 C                    -0.120053
     58 N                    -0.482034
     59 C                    -0.086404
     60 C                     0.074403
     61 C                     0.036098
     62 C                     0.067722
     63 C                     0.045880
     64 C                     0.259120
     65 N                    -0.537856
     66 N                    -0.561471
     67 C                     0.145887
     68 C                     0.332092
     69 S                     0.626405
     70 N                    -0.541130
     71 C                    -0.224717
     72 S                     0.337170
     73 C                    -0.118071
     74 C                    -0.236312
     75 S                     0.267498
     76 C                     0.133089
     77 C                     0.092579
     78 C                    -0.292817
     79 C                    -0.083328
     80 N                    -0.434250
     81 S                     0.299511
     82 C                     0.103349
     83 C                    -0.325132
     84 C                    -0.233125
     85 H                     0.090080
     86 H                     0.095670
     87 H                     0.105880
     88 H                     0.121327
     89 H                     0.136326
     90 H                     0.134073
     91 H                     0.120270
     92 H                     0.140336
     93 H                     0.100462
     94 C                    -0.182246
     95 H                     0.118067
     96 H                     0.110656
     97 H                     0.100064
     98 C                    -0.178709
     99 H                     0.100976
    100 C                    -0.178167
    101 H                     0.088390
    102 H                     0.093186
    103 H                     0.090215
    104 C                    -0.183460
    105 H                     0.093553
    106 C                    -0.323619
    107 H                     0.091574
    108 H                     0.103555
    109 H                     0.101565
    110 H                     0.103876
  ----------------------------------------
  Sum of atomic charges =     0.000000

                    Cartesian Multipole Moments
 -----------------------------------------------------------------
    Charge (ESU x 10^10)
                 0.0000
    Dipole Moment (Debye)
         X       0.0780      Y       1.2755      Z      -1.8128
       Tot       2.2180
    Quadrupole Moments (Debye-Ang)
        XX    -400.1242     XY       8.1705     YY    -427.8176
        XZ      -0.9421     YZ       3.6783     ZZ    -449.8992

 Total job time:  125.20s(wall), 1345.89s(cpu)
        *  Thank you very much for using Q-Chem.  Have a nice day.  *
