 Q-Chem 4.4, Q-Chem, Inc., Pleasanton, CA (2016)
 Q-Chem 4.4.2 for Intel X86 Linux

User input:
--------------------------------------------------------------
$comment
SP
$end

$rem
MEM_STATIC 5000
MEM_TOTAL 20000
JOBTYPE SP
EXCHANGE B3LYP
BASIS 6-31g(d,p)
$end

$molecule
0 1
C          19.566000    -26.998000     13.556000
C          20.702000    -26.231000     13.362000
N          18.657000    -27.047000     12.542000
C          20.899000    -25.375000     12.283000
C          18.807000    -26.286000     11.463000
C          19.891000    -25.394000     11.282000
C          19.948000    -24.413000     10.138000
C          18.884000    -23.590000      9.771000
C          21.150000    -24.180000      9.520000
N          18.985000    -22.653000      8.884000
N          22.284000    -24.835000      9.683000
C          21.280000    -23.131000      8.618000
C          20.199000    -22.269000      8.412000
S          23.442000    -24.097000      8.678000
N          22.467000    -23.010000      7.993000
C          20.249000    -21.079000      7.492000
S          21.375000    -21.009000      6.134000
C          19.655000    -19.871000      7.668000
C          20.670000    -19.489000      5.629000
S          18.523000    -19.417000      8.908000
C          19.794000    -19.048000      6.573000
C          20.825000    -18.763000      4.415000
C          18.302000    -17.898000      7.948000
C          18.981000    -17.906000      6.719000
N          21.910000    -19.005000      3.675000
S          19.584000    -17.787000      3.613000
C          21.865000    -18.171000      2.556000
C          20.710000    -17.470000      2.400000
C          19.448000    -27.778000     14.886000
H          21.503000    -26.239000     14.095000
H          21.809000    -24.790000     12.188000
H          18.016000    -26.372000     10.720000
H          17.867000    -23.670000     10.151000
H          17.529000    -17.216000      8.276000
H          18.829000    -17.151000      5.956000
H          22.692000    -18.186000      1.858000
H          20.486000    -16.993000      1.455000
H          18.654000    -28.516000     14.715000
C          19.097000    -26.840000     16.075000
H          20.338000    -28.408000     15.007000
H          19.846000    -26.102000     16.385000
H          18.967000    -27.450000     16.977000
C          17.871000    -25.977000     15.794000
H          17.644000    -25.457000     16.732000
C          16.642000    -26.716000     15.283000
H          18.128000    -25.233000     15.030000
H          16.445000    -27.555000     15.962000
H          16.874000    -27.150000     14.303000
C          15.323000    -25.918000     15.080000
H          14.553000    -26.694000     15.166000
C          15.193000    -25.205000     13.703000
H          15.100000    -25.179000     15.860000
H          15.124000    -25.945000     12.896000
H          15.972000    -24.448000     13.553000
H          14.247000    -24.651000     13.736000
C           6.002000    -22.134000     -3.686000
C           7.049000    -22.989000     -4.075000
N           6.267000    -20.956000     -3.041000
C           8.395000    -22.704000     -3.706000
C           7.577000    -20.606000     -2.747000
C           8.634000    -21.498000     -3.039000
C          10.123000    -21.055000     -2.845000
C          11.157000    -21.868000     -2.322000
C          10.518000    -19.740000     -3.114000
N          12.430000    -21.467000     -2.137000
N           9.749000    -18.718000     -3.499000
C          11.819000    -19.350000     -2.941000
C          12.819000    -20.254000     -2.458000
S          10.696000    -17.411000     -3.632000
N          12.129000    -18.074000     -3.195000
C          14.198000    -19.989000     -2.116000
S          15.044000    -20.741000     -0.781000
C          15.070000    -19.460000     -3.031000
C          16.631000    -20.223000     -1.437000
S          14.787000    -18.805000     -4.658000
C          16.400000    -19.460000     -2.571000
C          17.941000    -20.424000     -0.926000
C          16.511000    -18.295000     -4.639000
C          17.250000    -18.854000     -3.553000
N          17.894000    -21.405000     -0.053000
S          19.475000    -19.566000     -1.062000
C          19.111000    -21.551000      0.564000
C          20.048000    -20.599000      0.250000
C           4.554000    -22.491000     -4.128000
H           6.815000    -23.902000     -4.615000
H           9.121000    -23.465000     -3.977000
H           7.691000    -19.628000     -2.282000
H          10.893000    -22.870000     -1.985000
H          17.023000    -17.652000     -5.342000
H          18.311000    -18.738000     -3.366000
H          19.194000    -22.325000      1.315000
H          21.055000    -20.360000      0.566000
H           4.367000    -23.571000     -4.096000
C           4.291000    -22.115000     -5.628000
H           3.753000    -21.955000     -3.604000
H           5.149000    -22.477000     -6.209000
H           4.279000    -21.026000     -5.763000
C           2.905000    -22.766000     -6.159000
H           2.723000    -22.538000     -7.217000
C           1.590000    -22.161000     -5.439000
H           2.855000    -23.848000     -5.987000
H           1.748000    -21.076000     -5.483000
H           1.575000    -22.414000     -4.372000
C           0.202000    -22.477000     -6.155000
H          -0.569000    -22.111000     -5.467000
C          -0.043000    -23.929000     -6.442000
H           0.123000    -21.940000     -7.109000
H           0.032000    -24.534000     -5.530000
H           0.606000    -24.284000     -7.253000
H          -1.027000    -23.923000     -6.926000
$end

--------------------------------------------------------------

             Standard Nuclear Orientation (Angstroms)
    I     Atom           X                Y                Z
 ----------------------------------------------------------------
    1      C      11.3521084277    -4.8836025990    -1.3740740820
    2      C      11.7864149026    -3.5808781530    -1.1988373744
    3      N      10.0152005281    -5.0856020690    -1.5436367020
    4      C      10.9446695425    -2.4889264147    -1.0120429684
    5      C       9.1586996821    -4.0770826052    -1.4205237784
    6      C       9.5524577299    -2.7517207204    -1.1174536970
    7      C       8.5556434696    -1.6635658430    -0.8066059960
    8      C       7.4943689664    -1.8182289264     0.0843989195
    9      C       8.7818537495    -0.3975158087    -1.2830125659
   10      N       6.7301496430    -0.8413211824     0.4539379370
   11      N       9.7032148571    -0.0098307675    -2.1446064483
   12      C       8.0071711343     0.6659119699    -0.8359183866
   13      C       7.0542761620     0.4448091975     0.1626534615
   14      S       9.5274893493     1.6702822714    -2.3494813428
   15      N       8.2354239287     1.8656412517    -1.4040603691
   16      C       6.1954366000     1.5337495668     0.7471220054
   17      S       5.8262679463     3.0039166645    -0.1580095928
   18      C       5.7863044709     1.6639428415     2.0350414952
   19      C       4.7751263041     3.5356206861     1.1361473071
   20      S       5.9823444302     0.5198644326     3.3303379588
   21      C       4.9014111677     2.7046622018     2.2069195194
   22      C       3.8223977879     4.5920492365     1.1702661023
   23      C       4.8768106710     1.6073268392     4.2646947544
   24      C       4.3441726382     2.6580855458     3.5006601566
   25      N       3.9529626983     5.5817065057     0.2831808225
   26      S       2.2926635449     4.5939344191     2.0623258492
   27      C       2.9346642967     6.5082864649     0.5161184635
   28      C       1.9989504103     6.1265740897     1.4263366711
   29      C      12.4254520824    -5.9959841228    -1.4160829440
   30      H      12.8478280372    -3.3551735678    -1.1612395300
   31      H      11.3437221324    -1.4889114446    -0.8703493195
   32      H       8.1097026424    -4.3404396484    -1.5445168367
   33      H       7.1748977714    -2.7614160527     0.5242002386
   34      H       4.5536284391     1.2627851366     5.2378757551
   35      H       3.5474460850     3.3014290986     3.8565166901
   36      H       2.9052161220     7.4139812470    -0.0756650836
   37      H       1.0584520222     6.6570519929     1.4955174214
   38      H      11.9146131103    -6.8701682031    -1.8393638652
   39      C      12.9903074478    -6.3055018848    -0.0011966690
   40      H      13.1604780203    -5.7494537822    -2.1923565180
   41      H      13.5810808486    -5.5279842208     0.4969981433
   42      H      13.6995750221    -7.1381070268    -0.0806459343
   43      C      11.8900029164    -6.5945134920     1.0149766573
   44      H      12.3990936071    -6.9188083510     1.9300900454
   45      C      10.8484968819    -7.6210736402     0.5917480639
   46      H      11.3457316016    -5.6651238008     1.2230260214
   47      H      11.3780241400    -8.5181613378     0.2473565053
   48      H      10.2971501569    -7.2284765737    -0.2710754014
   49      C       9.7610589276    -8.0467689148     1.6184107294
   50      H       9.4696181307    -9.0432930562     1.2656021447
   51      C       8.5087573470    -7.1244404110     1.6678969126
   52      H      10.1176515903    -8.1796252120     2.6477021737
   53      H       7.9517904436    -7.1875760421     0.7248106171
   54      H       8.7590159455    -6.1017467672     1.9742600058
   55      H       7.8698372342    -7.5224057836     2.4655971393
   56      C     -11.0653375201    -3.9746046950    -0.1254764725
   57      C     -10.5950565698    -3.4974781354    -1.3623034911
   58      N     -10.5784925269    -3.4662451056     1.0486131666
   59      C      -9.5238676783    -2.5602749998    -1.4198068941
   60      C      -9.5972000329    -2.4856502738     1.0254870588
   61      C      -9.0401557895    -2.0659411272    -0.2040343697
   62      C      -8.0400331640    -0.8624495287    -0.2527037264
   63      C      -6.8779256840    -0.7964110207    -1.0581844031
   64      C      -8.2012649395     0.2353934091     0.5995616069
   65      N      -6.0113818142     0.2353057113    -1.0729257294
   66      N      -9.1246631750     0.4038828265     1.5498336810
   67      C      -7.3251487276     1.2868509483     0.5609944375
   68      C      -6.2013645057     1.2994138986    -0.3263928482
   69      S      -8.8398552938     1.8275406724     2.2673500981
   70      N      -7.5212424616     2.2966631579     1.4157567137
   71      C      -5.1277996981     2.2621598434    -0.4233920728
   72      S      -3.4617667822     1.8489145493    -0.7654558830
   73      C      -5.3786318734     3.5868073142    -0.6680189275
   74      C      -3.0706170939     3.5567460207    -1.1495686097
   75      S      -6.9099597163     4.4858486312    -0.7228162611
   76      C      -4.2043641986     4.3204635508    -0.9197011768
   77      C      -1.8392164450     4.1467648985    -1.5409152153
   78      C      -5.9107510689     5.9733209545    -0.8699392241
   79      C      -4.5320752883     5.7010670841    -1.1211939199
   80      N      -1.0460623819     3.1916984401    -1.9715585622
   81      S      -1.1287416298     5.7539060086    -1.3990033091
   82      C       0.2020016857     3.6951138859    -2.2398922577
   83      C       0.3934240435     5.0091230981    -1.8940508615
   84      C     -12.2450590549    -4.9883965909    -0.1251729570
   85      H     -11.0210275088    -3.8932244377    -2.2798320319
   86      H      -9.1736949749    -2.3172472965    -2.4187836772
   87      H      -9.3127968589    -2.1063525270     2.0057691886
   88      H      -6.6301046208    -1.6679661502    -1.6633665054
   89      H      -6.2358859909     7.0029099217    -0.8064109535
   90      H      -3.7519240601     6.4309781043    -1.3021357992
   91      H       0.9498245277     2.9982035622    -2.5935064509
   92      H       1.2219032266     5.7052767876    -1.8983268093
   93      H     -12.1743846243    -5.7043416695    -0.9527119405
   94      C     -13.6241856528    -4.2808349015    -0.3658205885
   95      H     -12.4119641087    -5.5207541925     0.8193963030
   96      H     -13.4922755916    -3.5898892322    -1.2084135019
   97      H     -13.8983569701    -3.6540462653     0.4922330778
   98      C     -14.7908649913    -5.3636733650    -0.6709077615
   99      H     -15.7559104006    -4.8816735389    -0.8729857802
  100      C     -15.1324856161    -6.3170202100     0.5892807728
  101      H     -14.5272292713    -6.0481473789    -1.4862601586
  102      H     -15.2310345657    -5.6135275391     1.4256486145
  103      H     -14.2779287253    -6.9566877966     0.8408377223
  104      C     -16.4935425962    -7.1391525804     0.4859450941
  105      H     -16.4896911978    -7.8157527710     1.3484637019
  106      C     -16.6500883344    -7.9437348596    -0.7705734246
  107      H     -17.3607548252    -6.4696481660     0.5525242886
  108      H     -15.8077209401    -8.6323204721    -0.9107912100
  109      H     -16.8258534650    -7.2910896847    -1.6355057309
  110      H     -17.6309943373    -8.4165959639    -0.6410597589
 ----------------------------------------------------------------

    9   -5663.4751858996      6.55E-06 Convergence criterion met
 Total energy in the final basis set = -5663.4751858996

                    Orbital Energies (a.u.)
 --------------------------------------------------------------

 Alpha MOs
 -- Occupied --
-88.993 -88.987 -88.930 -88.930 -88.924 -88.922 -88.916 -88.913
-14.390 -14.383 -14.380 -14.377 -14.345 -14.343 -14.341 -14.336
-14.332 -14.331 -10.267 -10.263 -10.263 -10.255 -10.252 -10.250
-10.249 -10.249 -10.239 -10.238 -10.237 -10.236 -10.236 -10.235
-10.235 -10.232 -10.232 -10.231 -10.230 -10.229 -10.227 -10.227
-10.227 -10.226 -10.226 -10.226 -10.223 -10.223 -10.221 -10.216
-10.216 -10.210 -10.208 -10.208 -10.204 -10.203 -10.201 -10.192
-10.192 -10.191 -10.189 -10.188 -10.185 -10.181 -10.180 -10.172
-10.171 -10.170 -10.167 -10.162  -8.048  -8.043  -7.991  -7.990
 -7.983  -7.980  -7.975  -7.973  -6.013  -6.008  -6.008  -6.006
 -6.002  -6.000  -5.955  -5.954  -5.952  -5.951  -5.948  -5.947
 -5.947  -5.944  -5.943  -5.941  -5.940  -5.939  -5.937  -5.937
 -5.936  -5.934  -5.931  -5.929  -1.045  -1.041  -0.971  -0.970
 -0.966  -0.964  -0.939  -0.923  -0.922  -0.910  -0.909  -0.903
 -0.845  -0.837  -0.831  -0.828  -0.816  -0.814  -0.807  -0.807
 -0.804  -0.798  -0.797  -0.794  -0.782  -0.779  -0.766  -0.765
 -0.748  -0.746  -0.742  -0.739  -0.727  -0.719  -0.710  -0.705
 -0.694  -0.692  -0.685  -0.672  -0.658  -0.651  -0.646  -0.643
 -0.639  -0.635  -0.628  -0.623  -0.615  -0.611  -0.602  -0.600
 -0.595  -0.593  -0.587  -0.584  -0.582  -0.576  -0.553  -0.547
 -0.547  -0.544  -0.542  -0.538  -0.529  -0.522  -0.519  -0.515
 -0.507  -0.505  -0.503  -0.502  -0.492  -0.482  -0.481  -0.477
 -0.473  -0.472  -0.470  -0.467  -0.462  -0.459  -0.450  -0.445
 -0.441  -0.440  -0.439  -0.437  -0.436  -0.435  -0.433  -0.430
 -0.429  -0.429  -0.424  -0.424  -0.420  -0.415  -0.414  -0.412
 -0.409  -0.408  -0.407  -0.406  -0.401  -0.399  -0.398  -0.398
 -0.396  -0.393  -0.393  -0.390  -0.389  -0.383  -0.381  -0.379
 -0.379  -0.378  -0.373  -0.372  -0.366  -0.363  -0.360  -0.359
 -0.355  -0.352  -0.351  -0.348  -0.345  -0.344  -0.342  -0.341
 -0.340  -0.339  -0.338  -0.335  -0.333  -0.328  -0.320  -0.312
 -0.311  -0.310  -0.307  -0.305  -0.305  -0.301  -0.300  -0.298
 -0.296  -0.296  -0.295  -0.290  -0.284  -0.283  -0.282  -0.282
 -0.271  -0.269  -0.265  -0.263  -0.255  -0.252  -0.248  -0.246
 -0.246  -0.241  -0.235  -0.233  -0.196  -0.193

          Ground-State Mulliken Net Atomic Charges

     Atom                 Charge (a.u.)
  ----------------------------------------
      1 C                     0.274793
      2 C                    -0.115935
      3 N                    -0.486338
      4 C                    -0.036107
      5 C                     0.076521
      6 C                     0.014951
      7 C                     0.022891
      8 C                     0.058597
      9 C                     0.299177
     10 N                    -0.460672
     11 N                    -0.596449
     12 C                     0.182472
     13 C                     0.233027
     14 S                     0.598905
     15 N                    -0.548869
     16 C                    -0.203735
     17 S                     0.353356
     18 C                    -0.123800
     19 C                    -0.196812
     20 S                     0.265846
     21 C                     0.157716
     22 C                     0.038888
     23 C                    -0.302313
     24 C                    -0.083580
     25 N                    -0.436805
     26 S                     0.288979
     27 C                     0.096342
     28 C                    -0.291421
     29 C                    -0.237312
     30 H                     0.081900
     31 H                     0.113865
     32 H                     0.104956
     33 H                     0.117254
     34 H                     0.130146
     35 H                     0.116611
     36 H                     0.108202
     37 H                     0.135748
     38 H                     0.123200
     39 C                    -0.178841
     40 H                     0.107397
     41 H                     0.095318
     42 H                     0.096111
     43 C                    -0.176934
     44 H                     0.084514
     45 C                    -0.182860
     46 H                     0.097382
     47 H                     0.075693
     48 H                     0.126604
     49 C                    -0.182068
     50 H                     0.091066
     51 C                    -0.316845
     52 H                     0.085170
     53 H                     0.109981
     54 H                     0.103024
     55 H                     0.095866
     56 C                     0.282137
     57 C                    -0.115472
     58 N                    -0.500866
     59 C                    -0.070444
     60 C                     0.097069
     61 C                     0.020163
     62 C                     0.012579
     63 C                     0.052114
     64 C                     0.283368
     65 N                    -0.501538
     66 N                    -0.562257
     67 C                     0.165826
     68 C                     0.263903
     69 S                     0.597003
     70 N                    -0.538989
     71 C                    -0.194835
     72 S                     0.356817
     73 C                    -0.129321
     74 C                    -0.203882
     75 S                     0.272010
     76 C                     0.147966
     77 C                     0.061235
     78 C                    -0.293590
     79 C                    -0.096861
     80 N                    -0.427319
     81 S                     0.251452
     82 C                     0.128312
     83 C                    -0.314557
     84 C                    -0.222436
     85 H                     0.088280
     86 H                     0.109638
     87 H                     0.127482
     88 H                     0.111710
     89 H                     0.128872
     90 H                     0.101577
     91 H                     0.119631
     92 H                     0.145000
     93 H                     0.102402
     94 C                    -0.187759
     95 H                     0.122435
     96 H                     0.092469
     97 H                     0.109595
     98 C                    -0.189392
     99 H                     0.093683
    100 C                    -0.190442
    101 H                     0.095777
    102 H                     0.093387
    103 H                     0.092798
    104 C                    -0.182085
    105 H                     0.096429
    106 C                    -0.306871
    107 H                     0.092667
    108 H                     0.103923
    109 H                     0.104501
    110 H                     0.099930
  ----------------------------------------
  Sum of atomic charges =     0.000000

                    Cartesian Multipole Moments
 -----------------------------------------------------------------
    Charge (ESU x 10^10)
                 0.0000
    Dipole Moment (Debye)
         X       0.3448      Y       3.1567      Z       0.4325
       Tot       3.2048
    Quadrupole Moments (Debye-Ang)
        XX    -390.6843     XY      -0.3384     YY    -423.7391
        XZ      11.8494     YZ       5.4155     ZZ    -440.4636

 Total job time:  86.16s(wall), 930.53s(cpu)
        *  Thank you very much for using Q-Chem.  Have a nice day.  *
