 Q-Chem 4.4, Q-Chem, Inc., Pleasanton, CA (2016)
 Q-Chem 4.4.2 for Intel X86 Linux

User input:
--------------------------------------------------------------
$comment
SP
$end

$rem
MEM_STATIC 5000
MEM_TOTAL 20000
JOBTYPE SP
EXCHANGE B3LYP
BASIS 6-31g(d,p)
$end

$molecule
0 1
C         -12.798000      0.667000     -0.561000
C         -11.589000      1.360000     -0.622000
N         -12.940000     -0.600000      0.052000
C         -10.417000      0.709000     -0.131000
C         -11.785000     -1.156000      0.469000
C         -10.542000     -0.595000      0.415000
C          -9.311000     -1.384000      0.843000
C          -9.339000     -2.147000      2.029000
C          -8.179000     -1.544000      0.032000
N          -8.364000     -3.016000      2.369000
N          -7.971000     -0.860000     -1.127000
C          -7.200000     -2.401000      0.438000
C          -7.289000     -3.165000      1.608000
S          -6.522000     -1.396000     -1.585000
N          -6.094000     -2.418000     -0.353000
C          -6.302000     -4.202000      1.966000
S          -4.655000     -4.418000      1.306000
C          -6.445000     -5.040000      3.102000
C          -4.379000     -5.785000      2.297000
S          -7.680000     -5.286000      4.281000
C          -5.359000     -5.908000      3.245000
C          -3.231000     -6.651000      2.304000
C          -6.713000     -6.537000      5.018000
C          -5.558000     -6.765000      4.343000
N          -3.462000     -7.917000      2.572000
S          -1.592000     -6.115000      2.077000
C          -2.225000     -8.581000      2.640000
C          -1.106000     -7.788000      2.394000
C         -14.145000      1.223000     -1.036000
H         -11.545000      2.377000     -1.000000
H          -9.431000      1.149000     -0.246000
H         -11.947000     -2.172000      0.825000
H         -10.153000     -2.143000      2.752000
H          -7.176000     -7.155000      5.776000
H          -4.872000     -7.543000      4.655000
H          -2.259000     -9.657000      2.750000
H          -0.152000     -8.212000      2.108000
H         -13.989000      2.150000     -1.601000
C         -15.167000      1.558000      0.138000
H         -14.557000      0.452000     -1.698000
H         -14.585000      2.104000      0.890000
H         -15.399000      0.595000      0.608000
C         -16.417000      2.382000     -0.359000
H         -16.041000      3.110000     -1.088000
C         -17.245000      2.928000      0.835000
H         -16.959000      1.735000     -1.061000
H         -16.630000      3.608000      1.438000
H         -17.432000      2.148000      1.582000
C         -18.592000      3.500000      0.388000
H         -18.527000      4.341000     -0.313000
C         -19.491000      3.784000      1.623000
H         -19.091000      2.706000     -0.183000
H         -18.903000      4.367000      2.342000
H         -19.850000      2.842000      2.055000
H         -20.391000      4.375000      1.416000
C           0.198000      8.054000     13.463000
C          -0.976000      7.447000     13.835000
N           0.768000      7.860000     12.268000
C          -1.587000      6.648000     12.812000
C           0.205000      7.045000     11.399000
C          -1.062000      6.531000     11.511000
C          -1.639000      5.624000     10.498000
C          -2.649000      4.677000     10.893000
C          -1.121000      5.360000      9.176000
N          -3.135000      3.758000     10.026000
N          -0.168000      6.147000      8.567000
C          -1.632000      4.393000      8.279000
C          -2.657000      3.577000      8.771000
S           0.099000      5.547000      7.071000
N          -1.032000      4.313000      7.080000
C          -3.208000      2.434000      8.072000
S          -2.246000      1.614000      6.807000
C          -4.401000      1.770000      8.250000
C          -3.649000      0.545000      6.438000
S          -5.672000      2.145000      9.364000
C          -4.674000      0.764000      7.295000
C          -3.496000     -0.571000      5.603000
C          -6.518000      0.685000      8.748000
C          -5.961000      0.199000      7.562000
N          -4.422000     -1.507000      5.568000
S          -1.951000     -1.039000      4.882000
C          -4.029000     -2.616000      4.845000
C          -2.790000     -2.514000      4.350000
C           0.934000      8.857000     14.497000
H          -1.356000      7.485000     14.852000
H          -2.466000      6.171000     13.234000
H           0.782000      6.968000     10.479000
H          -3.046000      4.663000     11.907000
H          -7.419000      0.340000      9.237000
H          -6.424000     -0.563000      6.946000
H          -4.757000     -3.412000      4.763000
H          -2.300000     -3.148000      3.623000
H           1.724000      8.171000     14.826000
C           0.191000      9.288000     15.685000
H           1.533000      9.663000     14.056000
H          -0.122000      8.446000     16.315000
H          -0.701000      9.883000     15.452000
C           1.037000     10.126000     16.664000
H           1.277000     11.105000     16.230000
C           2.294000      9.447000     17.113000
H           0.437000     10.257000     17.573000
H           2.973000      9.402000     16.252000
H           1.988000      8.443000     17.432000
C           2.995000     10.079000     18.349000
H           2.414000      9.858000     19.253000
C           3.443000     11.474000     18.040000
H           3.982000      9.611000     18.447000
H           3.742000     11.481000     16.984000
H           4.245000     11.691000     18.756000
H           2.634000     12.192000     18.222000
$end

--------------------------------------------------------------

             Standard Nuclear Orientation (Angstroms)
    I     Atom           X                Y                Z
 ----------------------------------------------------------------
    1      C      -8.3467451485     5.0780034413    -1.0359597411
    2      C      -7.3813729110     4.7038398732    -1.9706838006
    3      N      -8.6589706548     4.3116127492     0.1113774109
    4      C      -6.7516345969     3.4322754844    -1.8125077564
    5      C      -8.0395257719     3.1160945939     0.1752082610
    6      C      -7.1184112521     2.6252750624    -0.7041837045
    7      C      -6.5693641005     1.2124344780    -0.5509038675
    8      C      -6.1793457293     0.7408941181     0.7199558254
    9      C      -6.5827316509     0.2651827454    -1.5839965370
   10      N      -5.8682587593    -0.5496270790     0.9631963174
   11      N      -6.8977501642     0.5543498862    -2.8768796333
   12      C      -6.2191702684    -1.0172544571    -1.2995603527
   13      C      -5.8733162437    -1.4467668794    -0.0125401226
   14      S      -6.6952740004    -0.8690149090    -3.6046825344
   15      N      -6.1602712096    -1.8447833743    -2.3770262650
   16      C      -5.6293571614    -2.8631996004     0.3219808976
   17      S      -5.2920611370    -4.2099649806    -0.8037719184
   18      C      -5.3731627123    -3.3076393056     1.6448666647
   19      C      -5.1764322223    -5.3293097823     0.4848875280
   20      S      -5.3760059930    -2.5586459530     3.1988238306
   21      C      -5.1335427671    -4.6837522487     1.6913903110
   22      C      -4.9933821261    -6.7531981788     0.4015598815
   23      C      -4.9981726537    -4.0969525968     3.9296546164
   24      C      -4.9427225443    -5.1031967964     3.0207916476
   25      N      -5.5841813428    -7.4686877731     1.3326731538
   26      S      -3.9870189682    -7.5494417221    -0.7724824577
   27      C      -5.2092256273    -8.8115382844     1.1542082674
   28      C      -4.3653469579    -9.0584735527     0.0732745207
   29      C      -9.1087097766     6.4077297884    -1.0561524946
   30      H      -7.0921766190     5.3730307812    -2.7754558386
   31      H      -6.0718456404     3.0366915224    -2.5611206762
   32      H      -8.4066647462     2.5306038788     1.0164249965
   33      H      -6.1327266899     1.3492798572     1.6216400593
   34      H      -5.0557254073    -4.1737251097     5.0074536059
   35      H      -4.7600470103    -6.1255147122     3.3285573515
   36      H      -5.7025667297    -9.5394173733     1.7849527391
   37      H      -4.2578892872   -10.0449801674    -0.3590974814
   38      H      -8.9301440714     6.9270435617    -2.0055299189
   39      C      -8.7036345733     7.4135301233     0.1097226127
   40      H     -10.1676129272     6.1335791455    -0.9787280631
   41      H      -7.6073885728     7.4121853845     0.1339485930
   42      H      -9.0052117622     6.9193200291     1.0407975731
   43      C      -9.2913003403     8.8618600176    -0.1035248108
   44      H      -9.2052209644     9.0788385154    -1.1751178644
   45      C      -8.6604848464     9.8788820819     0.8849456913
   46      H     -10.3839632857     8.7656961775    -0.0586115204
   47      H      -7.5778687420     9.9426392368     0.7172811575
   48      H      -8.6589640032     9.4917717766     1.9103828169
   49      C      -9.3955415514    11.2209101898     0.8775837738
   50      H      -9.4010367779    11.7392967165    -0.0889317260
   51      C      -8.9092024278    12.1057922295     2.0584902193
   52      H     -10.4522161081    10.9958376092     1.0731834023
   53      H      -7.8129483662    12.1249415886     2.0371750985
   54      H      -9.2940986863    11.7151273229     3.0082821970
   55      H      -9.2324770100    13.1526835033     2.0179660873
   56      C      11.8286387348     1.5665211505    -0.1643300698
   57      C      11.1342727441     1.9880032532     0.9426106278
   58      N      11.2373130491     0.9801237944    -1.2117235366
   59      C       9.7118943721     1.8219139323     0.8559786236
   60      C       9.9358200789     0.7745058650    -1.1978557461
   61      C       9.0645488682     1.3175958824    -0.2879278861
   62      C       7.6121590084     1.0518305061    -0.3289091006
   63      C       6.8483932556     1.1187303722     0.8897460117
   64      C       6.8720175221     0.4483842517    -1.4123052416
   65      N       5.5367915375     0.7853978312     0.9219384083
   66      N       7.3801194468     0.3014523729    -2.6845876227
   67      C       5.5023520315     0.0979458069    -1.3672681430
   68      C       4.8622359601     0.2712283897    -0.1348844521
   69      S       6.2165978834    -0.3663847246    -3.6170661385
   70      N       4.9826753197    -0.4297984012    -2.4877248205
   71      C       3.5138169691    -0.1670053197     0.1623838456
   72      S       2.7681087873    -1.4744638262    -0.8032975518
   73      C       2.6502185635     0.2205904141     1.1622820109
   74      C       1.2183154016    -1.2429625860     0.0865780783
   75      S       2.9010499926     1.4291277290     2.3761943441
   76      C       1.3503500780    -0.3285237046     1.0762261857
   77      C       0.1727573929    -2.1674845368    -0.0481721092
   78      C       1.2872740341     0.9808188214     3.0254387350
   79      C       0.5460674078     0.1987860816     2.1354507963
   80      N      -0.8279809434    -2.1687662685     0.8081678580
   81      S       0.2856332802    -3.6211912867    -1.0481149673
   82      C      -1.6653695775    -3.2546374136     0.6446957449
   83      C      -1.2757618700    -4.0818426503    -0.3322829297
   84      C      13.3279233190     1.6470359127    -0.1279417661
   85      H      11.6294623039     2.3230682744     1.8496121336
   86      H       9.2765972045     2.1270745434     1.8023651078
   87      H       9.5920802803     0.2757450844    -2.1024764592
   88      H       7.3058796008     1.4292147035     1.8279926338
   89      H       0.9522674323     1.3969049121     3.9659651524
   90      H      -0.5049839496    -0.0310716807     2.2655486563
   91      H      -2.5192750676    -3.2999662165     1.3073530572
   92      H      -1.8212512628    -4.9029559199    -0.7781521043
   93      H      13.6250529628     0.6161328654     0.0998517409
   94      C      13.9419842749     2.5226274645     0.8747658567
   95      H      13.7670493475     1.7712854263    -1.1252623713
   96      H      13.7655043342     2.1770383125     1.9010484535
   97      H      13.6076588568     3.5656647526     0.8093614952
   98      C      15.4816858193     2.5475175281     0.8033471002
   99      H      15.8198480336     3.0486482153    -0.1125739396
  100      C      16.1149231710     1.1943046817     0.9058968369
  101      H      15.8331735351     3.1001522124     1.6834001051
  102      H      15.8820886885     0.6477990543    -0.0168743715
  103      H      15.6513656637     0.7181488765     1.7787101540
  104      C      17.6433822561     1.1871370664     1.1927460141
  105      H      17.8223010271     1.4787080728     2.2351434535
  106      C      18.3896834410     1.8375778698     0.0692820393
  107      H      18.0033637548     0.1607655944     1.0521333469
  108      H      17.8475827715     1.5902081091    -0.8524126311
  109      H      19.4128704739     1.4473705782     0.1307276684
  110      H      18.4407921745     2.9237640857     0.2132139739
 ----------------------------------------------------------------

   10   -5663.5242391007      6.69E-06 Convergence criterion met
 Total energy in the final basis set = -5663.5242391007

                    Orbital Energies (a.u.)
 --------------------------------------------------------------

 Alpha MOs
 -- Occupied --
-88.990 -88.988 -88.935 -88.932 -88.916 -88.915 -88.910 -88.906
-14.393 -14.390 -14.386 -14.383 -14.348 -14.346 -14.345 -14.332
-14.330 -14.319 -10.272 -10.261 -10.260 -10.258 -10.258 -10.255
-10.254 -10.250 -10.246 -10.243 -10.240 -10.237 -10.237 -10.237
-10.236 -10.233 -10.232 -10.231 -10.231 -10.226 -10.226 -10.225
-10.222 -10.221 -10.221 -10.219 -10.219 -10.215 -10.214 -10.213
-10.213 -10.213 -10.206 -10.205 -10.204 -10.198 -10.194 -10.193
-10.186 -10.182 -10.181 -10.181 -10.180 -10.179 -10.178 -10.176
-10.175 -10.174 -10.172 -10.171  -8.046  -8.043  -7.996  -7.991
 -7.976  -7.976  -7.970  -7.966  -6.011  -6.008  -6.006  -6.004
 -6.002  -6.001  -5.960  -5.956  -5.955  -5.953  -5.952  -5.948
 -5.940  -5.940  -5.937  -5.936  -5.935  -5.933  -5.932  -5.931
 -5.931  -5.927  -5.927  -5.922  -1.046  -1.027  -0.972  -0.964
 -0.961  -0.950  -0.944  -0.927  -0.919  -0.911  -0.907  -0.896
 -0.856  -0.837  -0.834  -0.832  -0.822  -0.810  -0.807  -0.806
 -0.798  -0.796  -0.795  -0.793  -0.789  -0.784  -0.767  -0.767
 -0.754  -0.748  -0.741  -0.741  -0.731  -0.718  -0.714  -0.709
 -0.694  -0.693  -0.674  -0.674  -0.658  -0.652  -0.648  -0.645
 -0.638  -0.637  -0.627  -0.623  -0.614  -0.611  -0.597  -0.595
 -0.594  -0.588  -0.585  -0.585  -0.581  -0.580  -0.577  -0.555
 -0.550  -0.550  -0.540  -0.535  -0.524  -0.522  -0.512  -0.510
 -0.504  -0.503  -0.501  -0.495  -0.488  -0.485  -0.481  -0.479
 -0.474  -0.468  -0.467  -0.464  -0.463  -0.462  -0.453  -0.450
 -0.449  -0.443  -0.441  -0.440  -0.436  -0.435  -0.433  -0.432
 -0.429  -0.428  -0.424  -0.423  -0.421  -0.420  -0.416  -0.413
 -0.411  -0.408  -0.407  -0.406  -0.401  -0.398  -0.395  -0.393
 -0.392  -0.390  -0.389  -0.388  -0.387  -0.385  -0.384  -0.383
 -0.379  -0.377  -0.372  -0.372  -0.369  -0.362  -0.356  -0.354
 -0.352  -0.352  -0.351  -0.349  -0.348  -0.348  -0.344  -0.344
 -0.339  -0.337  -0.336  -0.333  -0.331  -0.326  -0.324  -0.323
 -0.323  -0.313  -0.307  -0.306  -0.304  -0.304  -0.303  -0.301
 -0.300  -0.296  -0.294  -0.289  -0.285  -0.280  -0.278  -0.271
 -0.271  -0.270  -0.267  -0.265  -0.260  -0.257  -0.251  -0.248
 -0.242  -0.240  -0.238  -0.229  -0.200  -0.189

          Ground-State Mulliken Net Atomic Charges

     Atom                 Charge (a.u.)
  ----------------------------------------
      1 C                     0.237433
      2 C                    -0.116097
      3 N                    -0.475977
      4 C                    -0.072958
      5 C                     0.073961
      6 C                     0.058559
      7 C                    -0.021842
      8 C                     0.056643
      9 C                     0.260854
     10 N                    -0.537112
     11 N                    -0.537225
     12 C                     0.191355
     13 C                     0.339742
     14 S                     0.603938
     15 N                    -0.561195
     16 C                    -0.225162
     17 S                     0.329095
     18 C                    -0.123763
     19 C                    -0.215535
     20 S                     0.281265
     21 C                     0.156768
     22 C                     0.034687
     23 C                    -0.318220
     24 C                    -0.039612
     25 N                    -0.408236
     26 S                     0.268992
     27 C                     0.103358
     28 C                    -0.303954
     29 C                    -0.227245
     30 H                     0.096839
     31 H                     0.114483
     32 H                     0.099950
     33 H                     0.121893
     34 H                     0.132985
     35 H                     0.112174
     36 H                     0.118373
     37 H                     0.136207
     38 H                     0.086772
     39 C                    -0.181554
     40 H                     0.120088
     41 H                     0.091185
     42 H                     0.120066
     43 C                    -0.180904
     44 H                     0.090728
     45 C                    -0.168765
     46 H                     0.094524
     47 H                     0.093672
     48 H                     0.098631
     49 C                    -0.177864
     50 H                     0.094844
     51 C                    -0.323692
     52 H                     0.096507
     53 H                     0.102525
     54 H                     0.106255
     55 H                     0.097508
     56 C                     0.270186
     57 C                    -0.109014
     58 N                    -0.485388
     59 C                    -0.115182
     60 C                     0.058699
     61 C                     0.067017
     62 C                     0.045166
     63 C                     0.070914
     64 C                     0.200000
     65 N                    -0.529184
     66 N                    -0.540548
     67 C                     0.229841
     68 C                     0.293117
     69 S                     0.604767
     70 N                    -0.583714
     71 C                    -0.200718
     72 S                     0.308893
     73 C                    -0.116737
     74 C                    -0.249328
     75 S                     0.271589
     76 C                     0.198944
     77 C                     0.074863
     78 C                    -0.302291
     79 C                    -0.061551
     80 N                    -0.455205
     81 S                     0.238056
     82 C                     0.145589
     83 C                    -0.322366
     84 C                    -0.216810
     85 H                     0.097159
     86 H                     0.094605
     87 H                     0.127962
     88 H                     0.114702
     89 H                     0.128474
     90 H                     0.131235
     91 H                     0.129683
     92 H                     0.132195
     93 H                     0.129677
     94 C                    -0.187118
     95 H                     0.113645
     96 H                     0.092735
     97 H                     0.097960
     98 C                    -0.177748
     99 H                     0.093278
    100 C                    -0.182221
    101 H                     0.083478
    102 H                     0.094872
    103 H                     0.081017
    104 C                    -0.176891
    105 H                     0.091651
    106 C                    -0.307796
    107 H                     0.094045
    108 H                     0.106097
    109 H                     0.098273
    110 H                     0.103480
  ----------------------------------------
  Sum of atomic charges =     0.000000

                    Cartesian Multipole Moments
 -----------------------------------------------------------------
    Charge (ESU x 10^10)
                 0.0000
    Dipole Moment (Debye)
         X       0.5262      Y      -1.4749      Z      -0.1390
       Tot       1.5721
    Quadrupole Moments (Debye-Ang)
        XX    -443.4828     XY      13.9355     YY    -402.7950
        XZ      29.4586     YZ       3.2282     ZZ    -426.4769

 Total job time:  97.51s(wall), 1044.10s(cpu)
        *  Thank you very much for using Q-Chem.  Have a nice day.  *
