 Q-Chem 4.4, Q-Chem, Inc., Pleasanton, CA (2016)
 Q-Chem 4.4.2 for Intel X86 Linux

User input:
--------------------------------------------------------------
$comment
SP
$end

$rem
MEM_STATIC 5000
MEM_TOTAL 20000
JOBTYPE SP
EXCHANGE B3LYP
BASIS 6-31g(d,p)
$end

$molecule
0 1
C           1.335000      6.992000      3.809000
C           0.156000      6.218000      3.856000
N           2.537000      6.480000      3.574000
C           0.285000      4.787000      3.812000
C           2.624000      5.136000      3.367000
C           1.536000      4.207000      3.488000
C           1.826000      2.724000      3.330000
C           2.377000      2.331000      2.117000
C           1.695000      1.824000      4.397000
N           2.811000      1.096000      1.906000
N           1.079000      2.029000      5.521000
C           2.294000      0.563000      4.228000
C           2.918000      0.276000      2.996000
S           1.248000      0.603000      6.345000
N           2.228000     -0.231000      5.303000
C           3.888000     -0.823000      2.790000
S           4.171000     -1.621000      1.200000
C           4.913000     -1.198000      3.678000
C           5.653000     -2.353000      1.756000
S           5.221000     -0.567000      5.163000
C           5.900000     -1.938000      3.037000
C           6.403000     -3.389000      1.062000
C           6.874000     -1.282000      5.042000
C           6.982000     -2.083000      3.976000
N           5.649000     -4.211000      0.366000
S           8.128000     -3.743000      1.196000
C           6.443000     -5.280000     -0.041000
C           7.735000     -5.237000      0.326000
C           1.446000      8.461000      4.208000
H          -0.810000      6.672000      4.055000
H          -0.627000      4.198000      3.845000
H           3.595000      4.662000      3.237000
H           2.335000      3.109000      1.357000
H           7.600000     -1.143000      5.832000
H           7.880000     -2.661000      3.789000
H           5.857000     -6.078000     -0.477000
H           8.559000     -5.937000      0.270000
H           2.071000      8.876000      3.407000
C           1.988000      8.796000      5.631000
H           0.471000      8.961000      4.159000
H           2.970000      8.374000      5.877000
H           1.298000      8.343000      6.353000
C           2.137000     10.328000      5.836000
H           2.821000     10.743000      5.086000
C           2.768000     10.580000      7.266000
H           1.185000     10.872000      5.832000
H           3.140000     11.609000      7.187000
H           3.611000      9.921000      7.510000
C           1.719000     10.368000      8.334000
H           0.980000     11.178000      8.303000
C           2.379000     10.538000      9.692000
H           1.230000      9.393000      8.216000
H           1.627000     10.410000     10.481000
H           2.846000     11.529000      9.743000
H           3.163000      9.798000      9.895000
C           0.198000      8.054000     13.463000
C          -0.976000      7.447000     13.835000
N           0.768000      7.860000     12.268000
C          -1.587000      6.648000     12.812000
C           0.205000      7.045000     11.399000
C          -1.062000      6.531000     11.511000
C          -1.639000      5.624000     10.498000
C          -2.649000      4.677000     10.893000
C          -1.121000      5.360000      9.176000
N          -3.135000      3.758000     10.026000
N          -0.168000      6.147000      8.567000
C          -1.632000      4.393000      8.279000
C          -2.657000      3.577000      8.771000
S           0.099000      5.547000      7.071000
N          -1.032000      4.313000      7.080000
C          -3.208000      2.434000      8.072000
S          -2.246000      1.614000      6.807000
C          -4.401000      1.770000      8.250000
C          -3.649000      0.545000      6.438000
S          -5.672000      2.145000      9.364000
C          -4.674000      0.764000      7.295000
C          -3.496000     -0.571000      5.603000
C          -6.518000      0.685000      8.748000
C          -5.961000      0.199000      7.562000
N          -4.422000     -1.507000      5.568000
S          -1.951000     -1.039000      4.882000
C          -4.029000     -2.616000      4.845000
C          -2.790000     -2.514000      4.350000
C           0.934000      8.857000     14.497000
H          -1.356000      7.485000     14.852000
H          -2.466000      6.171000     13.234000
H           0.782000      6.968000     10.479000
H          -3.046000      4.663000     11.907000
H          -7.419000      0.340000      9.237000
H          -6.424000     -0.563000      6.946000
H          -4.757000     -3.412000      4.763000
H          -2.300000     -3.148000      3.623000
H           1.724000      8.171000     14.826000
C           0.191000      9.288000     15.685000
H           1.533000      9.663000     14.056000
H          -0.122000      8.446000     16.315000
H          -0.701000      9.883000     15.452000
C           1.037000     10.126000     16.664000
H           1.277000     11.105000     16.230000
C           2.294000      9.447000     17.113000
H           0.437000     10.257000     17.573000
H           2.973000      9.402000     16.252000
H           1.988000      8.443000     17.432000
C           2.995000     10.079000     18.349000
H           2.414000      9.858000     19.253000
C           3.443000     11.474000     18.040000
H           3.982000      9.611000     18.447000
H           3.742000     11.481000     16.984000
H           4.245000     11.691000     18.756000
H           2.634000     12.192000     18.222000
$end

--------------------------------------------------------------

             Standard Nuclear Orientation (Angstroms)
    I     Atom           X                Y                Z
 ----------------------------------------------------------------
    1      C      -0.4544827350     2.1041460792    -4.5352100744
    2      C      -0.2670686814     0.7126796628    -4.3937067719
    3      N       0.3663290373     3.0090955778    -4.0160690151
    4      C       0.7681963586     0.2571339602    -3.5065526647
    5      C       1.4435847179     2.5587356399    -3.3136089630
    6      C       1.7090150903     1.1841869829    -2.9948791290
    7      C       2.8996458256     0.8608618601    -2.1081929855
    8      C       4.1425252492     1.2701028823    -2.5742310998
    9      C       2.7438739191     0.3229281065    -0.8228866447
   10      N       5.2385289868     1.1809588999    -1.8333322150
   11      N       1.6729060352    -0.2166845342    -0.3261945975
   12      C       3.8714820599     0.3719212681     0.0159116332
   13      C       5.0743772970     0.8915303023    -0.5062171824
   14      S       2.1189802692    -0.6792874079     1.1995935132
   15      N       3.6551063798    -0.0643755835     1.2622035823
   16      C       6.2136396702     1.3467340455     0.3220386943
   17      S       7.9209165197     1.3678958191    -0.2522007493
   18      C       6.1242094914     2.0859991549     1.5158910055
   19      C       8.4204408913     2.3986614618     1.0628207684
   20      S       4.7557323199     2.5433243550     2.3009858358
   21      C       7.3229093716     2.7240503510     1.8136480681
   22      C       9.7950390796     2.7037910798     1.4299824996
   23      C       5.7530556358     3.7728075122     3.1681607720
   24      C       7.0570761595     3.6052714700     2.9210107200
   25      N      10.6355990178     1.7205087740     1.1949699520
   26      S      10.3907930987     4.1309239943     2.2827812994
   27      C      11.8468944523     2.0374891504     1.8041766586
   28      C      11.9007575115     3.2163550262     2.4469643511
   29      C      -1.6971214174     2.7756740620    -5.1134680387
   30      H      -0.9625601356     0.0019846346    -4.8296852279
   31      H       0.9088754401    -0.8151303754    -3.4054953014
   32      H       2.1065606764     3.2623264592    -2.8137691512
   33      H       4.1253980290     1.5846942198    -3.6160501574
   34      H       5.3043963669     4.4507527958     3.8820179376
   35      H       7.8108777396     4.2032940497     3.4206197392
   36      H      12.5361595370     1.2037438153     1.7953245889
   37      H      12.6282218134     3.6907705551     3.0933679368
   38      H      -1.2666179600     3.5559898494    -5.7539561691
   39      C      -2.7613482408     3.3310334359    -4.1185231989
   40      H      -2.2558445392     2.0882978662    -5.7602821068
   41      H      -2.3890740522     4.0458350383    -3.3746182334
   42      H      -3.1286516427     2.4801727242    -3.5322491502
   43      C      -3.9036587065     4.0728384476    -4.8642457510
   44      H      -3.4928800155     4.9043979083    -5.4493532029
   45      C      -4.8932548512     4.6757787360    -3.7854837388
   46      H      -4.5171974600     3.4218215526    -5.4982829742
   47      H      -5.4411476320     5.4339477492    -4.3585973822
   48      H      -4.3947493946     5.1682860896    -2.9408567108
   49      C      -5.7549499974     3.5755787017    -3.2084132410
   50      H      -6.4752970020     3.2276828321    -3.9589135121
   51      C      -6.6318976998     4.1758164741    -2.1224384052
   52      H      -5.1387626526     2.7425570109    -2.8477776650
   53      H      -7.2819609982     3.3955307337    -1.7065287139
   54      H      -7.2186369510     4.9986902536    -2.5483336905
   55      H      -6.0655405107     4.5839642113    -1.2761996924
   56      C      -8.1011437855     0.9847706407     1.4561088460
   57      C      -8.2490390555    -0.3520177989     1.7322114664
   58      N      -7.0008109528     1.4904984700     0.8868391209
   59      C      -7.1624084056    -1.1781581891     1.2906495950
   60      C      -5.9966388872     0.6936960560     0.5817172181
   61      C      -6.0532230530    -0.6770063192     0.5832107942
   62      C      -4.8913145654    -1.5160508969     0.2258316354
   63      C      -4.7816233220    -2.8409550106     0.7785801503
   64      C      -3.6697151215    -1.0793382709    -0.4087397796
   65      N      -3.6882409947    -3.6093307177     0.5628028139
   66      N      -3.5385762792     0.1403426515    -1.0361471844
   67      C      -2.5296226180    -1.8882991284    -0.6245879078
   68      C      -2.5793880199    -3.1793041276    -0.0866525057
   69      S      -2.0344449001     0.2216046522    -1.6688321627
   70      N      -1.4961616821    -1.3090739599    -1.2574051785
   71      C      -1.4661679985    -4.1060456789    -0.0633655718
   72      S       0.2089476773    -3.4902301449    -0.1766250113
   73      C      -1.4470455019    -5.4729356056     0.1011800404
   74      C       0.8242736447    -5.1832523675    -0.2254175040
   75      S      -2.7964647455    -6.5422774525     0.2818391648
   76      C      -0.1789037053    -6.0770129395    -0.0584976301
   77      C       2.1951785955    -5.4485423768    -0.0976253799
   78      C      -1.6015420820    -7.8705495952     0.4679169536
   79      C      -0.3125080968    -7.4946624846     0.0804362898
   80      N       2.6145281095    -6.6696429654     0.1628671108
   81      S       3.4088866468    -4.1868483353     0.1492164963
   82      C       3.9660075351    -6.7186497918     0.4424394503
   83      C       4.5581153118    -5.5191734911     0.4075828153
   84      C      -9.1656222419     1.9261891809     1.9421929418
   85      H      -9.0719154230    -0.7374997784     2.3275358548
   86      H      -7.3563907094    -2.1956466949     1.6152139282
   87      H      -5.1628072172     1.2384406983     0.1421310254
   88      H      -5.5715431162    -3.2627390323     1.3983591091
   89      H      -1.9368706794    -8.8585574657     0.7531224575
   90      H       0.5078490649    -8.1920421987    -0.0426273592
   91      H       4.3739429316    -7.6999836422     0.6446684944
   92      H       5.6149991514    -5.2881985753     0.4228188827
   93      H      -8.7209132912     2.3549242112     2.8484805467
   94      C     -10.4669330964     1.3580682192     2.3068607808
   95      H      -9.2545939979     2.8211360489     1.3144412950
   96      H     -10.4091462766     0.7000987742     3.1829714433
   97      H     -10.9422505303     0.7944474708     1.4942212610
   98      C     -11.4888667159     2.4169974987     2.7659048508
   99      H     -11.7932247756     3.0530654404     1.9249644575
  100      C     -11.0101974649     3.2690677081     3.9006044174
  101      H     -12.3577726165     1.8735364953     3.1571779954
  102      H     -10.2121581940     3.9168116240     3.5159641417
  103      H     -10.6269991365     2.5686638078     4.6529383975
  104      C     -12.1063935817     4.0990769124     4.6272128361
  105      H     -12.7279450675     3.4316174092     5.2369583257
  106      C     -12.7250986565     5.0860582133     3.6863186114
  107      H     -11.5999392133     4.8077202181     5.2936403551
  108      H     -11.9269989487     5.4176639570     3.0098125234
  109      H     -13.1561773935     5.8687388345     4.3223462584
  110      H     -13.5474343720     4.6259711940     3.1248803639
 ----------------------------------------------------------------

   11   -5663.4893241609      6.30E-06 Convergence criterion met
 Total energy in the final basis set = -5663.4893241609

                    Orbital Energies (a.u.)
 --------------------------------------------------------------

 Alpha MOs
 -- Occupied --
-88.988 -88.986 -88.929 -88.921 -88.921 -88.920 -88.909 -88.908
-14.394 -14.384 -14.383 -14.381 -14.350 -14.347 -14.342 -14.335
-14.331 -14.321 -10.271 -10.265 -10.263 -10.259 -10.259 -10.256
-10.253 -10.252 -10.243 -10.240 -10.240 -10.237 -10.235 -10.235
-10.231 -10.231 -10.230 -10.229 -10.229 -10.229 -10.228 -10.227
-10.226 -10.225 -10.225 -10.224 -10.218 -10.217 -10.216 -10.215
-10.215 -10.214 -10.209 -10.208 -10.205 -10.202 -10.201 -10.195
-10.182 -10.182 -10.181 -10.179 -10.176 -10.176 -10.176 -10.174
-10.171 -10.169 -10.166 -10.157  -8.043  -8.040  -7.990  -7.981
 -7.979  -7.979  -7.971  -7.969  -6.009  -6.005  -6.003  -6.001
 -5.999  -5.997  -5.954  -5.951  -5.947  -5.945  -5.944  -5.944
 -5.942  -5.940  -5.940  -5.938  -5.936  -5.936  -5.935  -5.933
 -5.931  -5.930  -5.926  -5.925  -1.045  -1.025  -0.970  -0.966
 -0.960  -0.951  -0.946  -0.939  -0.922  -0.916  -0.910  -0.895
 -0.850  -0.840  -0.832  -0.830  -0.822  -0.811  -0.807  -0.806
 -0.800  -0.798  -0.795  -0.794  -0.793  -0.780  -0.769  -0.766
 -0.756  -0.752  -0.744  -0.742  -0.724  -0.722  -0.715  -0.709
 -0.696  -0.690  -0.678  -0.675  -0.658  -0.650  -0.645  -0.645
 -0.638  -0.633  -0.627  -0.624  -0.615  -0.606  -0.599  -0.598
 -0.593  -0.590  -0.589  -0.583  -0.583  -0.575  -0.559  -0.552
 -0.551  -0.550  -0.543  -0.536  -0.527  -0.525  -0.523  -0.511
 -0.510  -0.508  -0.502  -0.497  -0.486  -0.486  -0.481  -0.480
 -0.470  -0.469  -0.468  -0.465  -0.463  -0.458  -0.454  -0.451
 -0.449  -0.448  -0.444  -0.439  -0.437  -0.436  -0.435  -0.435
 -0.432  -0.427  -0.424  -0.422  -0.419  -0.416  -0.414  -0.411
 -0.409  -0.409  -0.408  -0.406  -0.401  -0.400  -0.398  -0.394
 -0.392  -0.391  -0.390  -0.387  -0.387  -0.383  -0.381  -0.380
 -0.379  -0.379  -0.377  -0.373  -0.369  -0.364  -0.357  -0.355
 -0.352  -0.350  -0.348  -0.347  -0.346  -0.345  -0.342  -0.341
 -0.339  -0.338  -0.334  -0.333  -0.328  -0.324  -0.324  -0.321
 -0.318  -0.309  -0.307  -0.305  -0.303  -0.301  -0.301  -0.298
 -0.296  -0.293  -0.291  -0.287  -0.286  -0.282  -0.281  -0.276
 -0.275  -0.271  -0.267  -0.263  -0.259  -0.252  -0.251  -0.244
 -0.243  -0.241  -0.240  -0.231  -0.195  -0.191

          Ground-State Mulliken Net Atomic Charges

     Atom                 Charge (a.u.)
  ----------------------------------------
      1 C                     0.254336
      2 C                    -0.133392
      3 N                    -0.464865
      4 C                    -0.089102
      5 C                     0.077505
      6 C                     0.012642
      7 C                    -0.015034
      8 C                     0.087573
      9 C                     0.305804
     10 N                    -0.495157
     11 N                    -0.564614
     12 C                     0.214046
     13 C                     0.240697
     14 S                     0.612347
     15 N                    -0.552306
     16 C                    -0.212607
     17 S                     0.343063
     18 C                    -0.100216
     19 C                    -0.211877
     20 S                     0.257632
     21 C                     0.135633
     22 C                     0.048217
     23 C                    -0.300928
     24 C                    -0.068541
     25 N                    -0.412945
     26 S                     0.258407
     27 C                     0.128403
     28 C                    -0.308843
     29 C                    -0.209030
     30 H                     0.100218
     31 H                     0.120441
     32 H                     0.104802
     33 H                     0.121501
     34 H                     0.128036
     35 H                     0.108086
     36 H                     0.116108
     37 H                     0.138371
     38 H                     0.116804
     39 C                    -0.172961
     40 H                     0.085810
     41 H                     0.110514
     42 H                     0.096619
     43 C                    -0.181858
     44 H                     0.092020
     45 C                    -0.174085
     46 H                     0.091800
     47 H                     0.084691
     48 H                     0.090255
     49 C                    -0.173847
     50 H                     0.090470
     51 C                    -0.317750
     52 H                     0.105788
     53 H                     0.107155
     54 H                     0.093570
     55 H                     0.100198
     56 C                     0.270228
     57 C                    -0.109467
     58 N                    -0.485623
     59 C                    -0.114920
     60 C                     0.057688
     61 C                     0.067164
     62 C                     0.047192
     63 C                     0.068984
     64 C                     0.196164
     65 N                    -0.530412
     66 N                    -0.553211
     67 C                     0.223919
     68 C                     0.291325
     69 S                     0.632864
     70 N                    -0.589882
     71 C                    -0.209122
     72 S                     0.315309
     73 C                    -0.116304
     74 C                    -0.259379
     75 S                     0.272928
     76 C                     0.203329
     77 C                     0.070442
     78 C                    -0.300755
     79 C                    -0.060593
     80 N                    -0.453339
     81 S                     0.242868
     82 C                     0.143118
     83 C                    -0.318357
     84 C                    -0.217610
     85 H                     0.097765
     86 H                     0.094888
     87 H                     0.131600
     88 H                     0.113976
     89 H                     0.129060
     90 H                     0.127088
     91 H                     0.117084
     92 H                     0.133541
     93 H                     0.129955
     94 C                    -0.186895
     95 H                     0.115126
     96 H                     0.092640
     97 H                     0.097956
     98 C                    -0.178236
     99 H                     0.093663
    100 C                    -0.182057
    101 H                     0.083625
    102 H                     0.095074
    103 H                     0.080825
    104 C                    -0.177019
    105 H                     0.091697
    106 C                    -0.307749
    107 H                     0.094145
    108 H                     0.106293
    109 H                     0.098336
    110 H                     0.103469
  ----------------------------------------
  Sum of atomic charges =     0.000000

                    Cartesian Multipole Moments
 -----------------------------------------------------------------
    Charge (ESU x 10^10)
                 0.0000
    Dipole Moment (Debye)
         X      -0.3206      Y      -0.6150      Z       3.4123
       Tot       3.4820
    Quadrupole Moments (Debye-Ang)
        XX    -393.0760     XY      15.6448     YY    -430.4078
        XZ      12.3014     YZ      13.8185     ZZ    -435.8329

 Total job time:  111.36s(wall), 1218.67s(cpu)
        *  Thank you very much for using Q-Chem.  Have a nice day.  *
