 Q-Chem 4.4, Q-Chem, Inc., Pleasanton, CA (2016)
 Q-Chem 4.4.2 for Intel X86 Linux

User input:
--------------------------------------------------------------
$comment
SP
$end

$rem
MEM_STATIC 5000
MEM_TOTAL 20000
JOBTYPE SP
EXCHANGE B3LYP
BASIS 6-31g(d,p)
$end

$molecule
0 1
C          11.543000     11.175000      1.142000
C          10.419000     11.428000      0.352000
N          11.504000     11.482000      2.480000
C           9.239000     11.872000      0.926000
C          10.393000     11.826000      3.032000
C           9.203000     12.102000      2.347000
C           7.943000     12.547000      3.004000
C           7.068000     13.538000      2.438000
C           7.370000     11.847000      4.088000
N           5.884000     13.910000      2.885000
N           8.023000     10.961000      4.804000
C           6.150000     12.283000      4.644000
C           5.456000     13.333000      4.048000
S           6.952000     10.483000      5.979000
N           5.775000     11.545000      5.731000
C           4.235000     13.886000      4.567000
S           2.808000     14.371000      3.642000
C           3.995000     14.096000      5.869000
C           1.970000     14.942000      5.097000
S           5.048000     14.047000      7.237000
C           2.798000     14.769000      6.181000
C           0.557000     15.448000      5.185000
C           3.780000     14.614000      8.254000
C           2.631000     14.930000      7.545000
N          -0.243000     15.164000      4.169000
S          -0.063000     16.580000      6.370000
C          -1.431000     15.792000      4.293000
C          -1.557000     16.618000      5.425000
C          12.796000     10.612000      0.562000
H          10.441000     11.223000     -0.714000
H           8.386000     12.056000      0.279000
H          10.430000     11.950000      4.114000
H           7.450000     14.006000      1.532000
H           3.909000     14.550000      9.326000
H           1.734000     15.334000      8.001000
H          -2.195000     15.828000      3.528000
H          -2.394000     17.272000      5.636000
H          12.750000     10.476000     -0.526000
C          13.031000      9.126000      0.869000
H          13.666000     11.224000      0.828000
H          12.321000      8.518000      0.295000
H          12.765000      8.929000      1.915000
C          14.422000      8.635000      0.499000
H          14.522000      8.883000     -0.565000
C          14.401000      7.076000      0.595000
H          15.127000      9.230000      1.092000
H          13.687000      6.801000     -0.191000
H          14.068000      6.725000      1.579000
C          15.755000      6.484000      0.222000
H          16.249000      6.986000     -0.619000
C          15.739000      5.053000      0.000000
H          16.438000      6.791000      1.024000
H          15.416000      4.514000      0.899000
H          16.760000      4.748000     -0.259000
H          15.170000      4.756000     -0.890000
C          20.705000      7.050000     -1.900000
C          21.028000      8.399000     -1.650000
N          19.953000      6.294000     -1.095000
C          20.636000      9.008000     -0.437000
C          19.476000      6.888000     -0.008000
C          19.820000      8.252000      0.375000
C          19.248000      8.832000      1.593000
C          17.972000      9.452000      1.684000
C          20.029000      8.660000      2.804000
N          17.438000      9.923000      2.847000
N          21.056000      7.830000      2.996000
C          19.409000      9.140000      3.975000
C          18.153000      9.821000      3.998000
S          21.472000      8.052000      4.558000
N          20.189000      8.910000      5.071000
C          17.498000     10.376000      5.140000
S          18.218000     10.407000      6.748000
C          16.157000     10.663000      5.258000
C          16.764000     11.136000      7.488000
S          14.797000     10.440000      4.134000
C          15.767000     11.073000      6.528000
C          16.539000     11.606000      8.813000
C          13.801000     11.206000      5.391000
C          14.364000     11.454000      6.633000
N          17.669000     11.826000      9.452000
S          15.276000     10.976000      9.769000
C          17.506000     11.804000     10.790000
C          16.278000     11.369000     11.145000
C          21.231000      6.275000     -3.125000
H          21.654000      8.918000     -2.370000
H          20.927000     10.047000     -0.309000
H          18.883000      6.255000      0.650000
H          17.306000      9.641000      0.844000
H          12.761000     11.392000      5.157000
H          13.770000     11.888000      7.429000
H          18.348000     12.024000     11.432000
H          15.745000     11.307000     12.085000
H          22.319000      6.397000     -3.196000
C          20.442000      6.653000     -4.432000
H          21.169000      5.194000     -2.950000
H          19.405000      6.295000     -4.406000
H          20.865000      6.100000     -5.280000
C          20.346000      8.167000     -4.798000
H          19.819000      8.662000     -3.973000
C          19.456000      8.401000     -5.953000
H          21.292000      8.685000     -5.000000
H          19.429000      9.491000     -6.075000
H          18.406000      8.174000     -5.732000
C          19.770000      7.609000     -7.211000
H          20.626000      8.036000     -7.748000
C          18.550000      7.821000     -8.110000
H          20.026000      6.581000     -6.926000
H          17.697000      7.131000     -8.106000
H          18.833000      7.850000     -9.170000
H          18.251000      8.877000     -8.092000
$end

--------------------------------------------------------------

             Standard Nuclear Orientation (Angstroms)
    I     Atom           X                Y                Z
 ----------------------------------------------------------------
    1      C      -0.3468065300    -2.3489080378    -0.4056621065
    2      C      -1.2138127512    -3.4426233932    -0.4654277624
    3      N      -0.8690635389    -1.0788338611    -0.4188227388
    4      C      -2.5859981711    -3.2581400765    -0.4197650926
    5      C      -2.1389623836    -0.9010440627    -0.3043294555
    6      C      -3.1029138034    -1.9162293461    -0.3455301916
    7      C      -4.5707572449    -1.6805398885    -0.2609127525
    8      C      -5.5315920711    -2.4135731333    -1.0403488941
    9      C      -5.1535963603    -0.9190998024     0.7753751229
   10      N      -6.8464231940    -2.3561268822    -0.9510849790
   11      N      -4.4702705616    -0.1099928435     1.5515663248
   12      C      -6.5537028748    -0.7656025645     0.8367945499
   13      C      -7.3641642250    -1.4608891867    -0.0571187082
   14      S      -5.6008654336     0.5905861879     2.5450924977
   15      N      -6.9471643039     0.0613739395     1.8507649467
   16      C      -8.7946597566    -1.3317608893    -0.1120679298
   17      S      -9.9737474314    -2.6322376572    -0.3258234706
   18      C      -9.4533252117    -0.1714965876     0.0177418095
   19      C     -11.3349835115    -1.4954242366    -0.3270807870
   20      S      -8.8848398353     1.4592846304     0.0210578020
   21      C     -10.8442967218    -0.2175742724    -0.1971002374
   22      C     -12.7981139092    -1.8390643943    -0.3659379777
   23      C     -10.5044604514     2.0411256434     0.0645560255
   24      C     -11.4385552104     1.0207819074    -0.0308569801
   25      N     -13.1266762634    -3.0854559737    -0.0635031744
   26      S     -14.0791958804    -0.8314730521    -1.0090846719
   27      C     -14.4404773148    -3.3089828101    -0.2757920126
   28      C     -15.1594755180    -2.2138845089    -0.7889949885
   29      C       1.1331810867    -2.5254722173    -0.3627698576
   30      H      -0.8194011193    -4.4539271244    -0.4892862614
   31      H      -3.2276655679    -4.1334175140    -0.4669494048
   32      H      -2.4573995678     0.1376022763    -0.2190033628
   33      H      -5.0911165788    -3.0930533855    -1.7684092814
   34      H     -10.6733192445     3.0839960107     0.2965670272
   35      H     -12.5100317589     1.1855299512    -0.0544596961
   36      H     -14.9180962533    -4.2786991721    -0.2339909729
   37      H     -16.1928655709    -2.2360949352    -1.1121322589
   38      H       1.4493858125    -3.5738500863    -0.4353950270
   39      C       1.7646639144    -2.2944916328     1.0176458072
   40      H       1.6263342734    -1.9292942599    -1.1396686782
   41      H       1.5013372186    -3.1257371128     1.6831756738
   42      H       1.2952249835    -1.4201862921     1.4855114518
   43      C       3.2835252008    -2.2213665007     0.9936644032
   44      H       3.5920619855    -3.1633958879     0.5235732566
   45      C       3.7711449737    -2.2805503133     2.4765205100
   46      H       3.5414003917    -1.3751554691     0.3454929167
   47      H       3.4507723786    -3.2816215890     2.7902635598
   48      H       3.3121816993    -1.5008493460     3.0960082940
   49      C       5.2923308309    -2.2318214196     2.5573170613
   50      H       5.8028424928    -2.8097869913     1.7771538469
   51      C       5.8314382804    -2.5759560187     3.8566382439
   52      H       5.5694281624    -1.2231851593     2.2259381795
   53      H       5.4700833742    -1.8897959966     4.6323044452
   54      H       6.9237258374    -2.5054263513     3.7897020149
   55      H       5.6780927972    -3.6281194577     4.1277604682
   56      C      10.1352717057    -2.5160050727     0.1508874791
   57      C       9.8910288193    -2.0504594609    -1.1568749978
   58      N       9.4910936849    -2.0812256802     1.2376563401
   59      C       8.9851107590    -0.9880949711    -1.3727642259
   60      C       8.5502259028    -1.1668377268     1.0361706402
   61      C       8.2816489989    -0.5681435955    -0.2657328830
   62      C       7.2231215055     0.4360940824    -0.4003962861
   63      C       5.8427213520     0.1514647166    -0.5857028984
   64      C       7.6351179295     1.8174556826    -0.2325717466
   65      N       4.8712423693     1.1068694590    -0.6404419547
   66      N       8.7837121931     2.2651580243     0.2781011731
   67      C       6.5812963205     2.7524371543    -0.2687748401
   68      C       5.2173350109     2.4162709572    -0.5303619835
   69      S       8.6338252797     3.8897010377     0.2540613974
   70      N       7.0451102560     4.0202982228    -0.0689725770
   71      C       4.1147887212     3.3191907604    -0.6320551900
   72      S       4.2892634466     5.0710834826    -0.5581941027
   73      C       2.7825238573     3.0077828474    -0.4814914355
   74      C       2.5268185282     5.3456864443    -0.6656097570
   75      S       1.9626903458     1.4784463679    -0.0919943936
   76      C       1.9302553346     4.1061312266    -0.5007060929
   77      C       1.7859781783     6.5562580206    -0.7788441799
   78      C       0.4498238679     2.3944977708    -0.2677949827
   79      C       0.5140223030     3.7703778805    -0.4222925060
   80      N       2.5395238478     7.5534824542    -1.1927685125
   81      S       0.5981412222     6.9733560296     0.3705372262
   82      C       2.0189367523     8.7520928159    -0.8616804926
   83      C       0.9673412346     8.6349134506    -0.0228420913
   84      C      11.2213988106    -3.5599746904     0.4801007071
   85      H      10.4793016772    -2.4692448131    -1.9681646338
   86      H       8.8532291621    -0.6759672280    -2.4051253625
   87      H       8.0482380459    -0.8055791808     1.9321630813
   88      H       5.4218527986    -0.8418879563    -0.7306067559
   89      H      -0.4778865244     1.8443043181    -0.1806594987
   90      H      -0.3936502435     4.3580871881    -0.4966989444
   91      H       2.5138471612     9.6558568536    -1.1900130244
   92      H       0.2429739406     9.3328464338     0.3768009674
   93      H      12.1737344366    -3.2517430072     0.0309692287
   94      C      10.7591265854    -5.0152711468     0.1031781503
   95      H      11.4860740605    -3.5151541271     1.5435705606
   96      H       9.9461065589    -5.3701948638     0.7491166858
   97      H      11.5693466375    -5.7197773733     0.3291348808
   98      C      10.2593241426    -5.2525763930    -1.3560174289
   99      H       9.3824485265    -4.6097019546    -1.5015530274
  100      C       9.7125380064    -6.6121888271    -1.5386644940
  101      H      10.9863831694    -5.0785732695    -2.1592310272
  102      H       9.3499798354    -6.6362234365    -2.5738876150
  103      H       8.7873190484    -6.7765890595    -0.9731448715
  104      C      10.6241599735    -7.7595335146    -1.1374543780
  105      H      11.3975230688    -7.9381629686    -1.8947093159
  106      C       9.7164050063    -8.9913275624    -1.1519230759
  107      H      11.1238932729    -7.5003899191    -0.1958301290
  108      H       9.1880464069    -9.3356655152    -0.2541516325
  109      H      10.2625867539    -9.8884080989    -1.4704540945
  110      H       9.0820383816    -8.9780632097    -2.0476150109
 ----------------------------------------------------------------

    9   -5663.4801752668      7.13E-06 Convergence criterion met
 Total energy in the final basis set = -5663.4801752668

                    Orbital Energies (a.u.)
 --------------------------------------------------------------

 Alpha MOs
 -- Occupied --
-88.992 -88.983 -88.933 -88.927 -88.924 -88.913 -88.908 -88.905
-14.390 -14.382 -14.380 -14.375 -14.353 -14.343 -14.342 -14.338
-14.330 -14.325 -10.274 -10.260 -10.258 -10.257 -10.257 -10.253
-10.252 -10.251 -10.242 -10.239 -10.238 -10.235 -10.233 -10.232
-10.231 -10.231 -10.229 -10.229 -10.228 -10.228 -10.226 -10.225
-10.224 -10.223 -10.223 -10.222 -10.218 -10.217 -10.216 -10.216
-10.208 -10.208 -10.203 -10.201 -10.200 -10.199 -10.198 -10.196
-10.184 -10.183 -10.183 -10.176 -10.175 -10.175 -10.174 -10.172
-10.169 -10.167 -10.164 -10.161  -8.048  -8.039  -7.993  -7.989
 -7.982  -7.971  -7.970  -7.964  -6.013  -6.007  -6.006  -6.004
 -5.998  -5.996  -5.957  -5.953  -5.953  -5.950  -5.950  -5.947
 -5.946  -5.943  -5.939  -5.936  -5.934  -5.932  -5.930  -5.928
 -5.928  -5.926  -5.925  -5.920  -1.045  -1.034  -0.983  -0.969
 -0.964  -0.950  -0.948  -0.940  -0.923  -0.911  -0.904  -0.898
 -0.851  -0.833  -0.831  -0.830  -0.817  -0.814  -0.812  -0.811
 -0.805  -0.803  -0.799  -0.797  -0.791  -0.780  -0.771  -0.764
 -0.753  -0.746  -0.745  -0.734  -0.726  -0.717  -0.713  -0.711
 -0.697  -0.690  -0.677  -0.669  -0.657  -0.647  -0.644  -0.636
 -0.633  -0.629  -0.628  -0.626  -0.616  -0.610  -0.605  -0.601
 -0.598  -0.595  -0.581  -0.578  -0.575  -0.571  -0.567  -0.555
 -0.551  -0.542  -0.541  -0.537  -0.528  -0.522  -0.517  -0.516
 -0.511  -0.503  -0.503  -0.498  -0.493  -0.489  -0.481  -0.478
 -0.476  -0.472  -0.471  -0.467  -0.463  -0.460  -0.451  -0.450
 -0.445  -0.444  -0.442  -0.440  -0.435  -0.434  -0.433  -0.430
 -0.429  -0.427  -0.419  -0.419  -0.416  -0.415  -0.414  -0.413
 -0.412  -0.410  -0.409  -0.407  -0.406  -0.401  -0.397  -0.396
 -0.391  -0.391  -0.390  -0.389  -0.388  -0.387  -0.383  -0.383
 -0.377  -0.376  -0.375  -0.373  -0.368  -0.360  -0.356  -0.354
 -0.352  -0.349  -0.349  -0.347  -0.347  -0.345  -0.340  -0.337
 -0.335  -0.330  -0.327  -0.326  -0.323  -0.321  -0.320  -0.319
 -0.318  -0.309  -0.306  -0.304  -0.301  -0.299  -0.297  -0.296
 -0.295  -0.293  -0.291  -0.291  -0.288  -0.284  -0.284  -0.282
 -0.277  -0.273  -0.268  -0.260  -0.253  -0.252  -0.250  -0.246
 -0.243  -0.239  -0.232  -0.230  -0.195  -0.192

          Ground-State Mulliken Net Atomic Charges

     Atom                 Charge (a.u.)
  ----------------------------------------
      1 C                     0.280290
      2 C                    -0.122243
      3 N                    -0.491149
      4 C                    -0.066942
      5 C                     0.114370
      6 C                     0.015281
      7 C                    -0.006204
      8 C                     0.073957
      9 C                     0.251357
     10 N                    -0.493277
     11 N                    -0.548531
     12 C                     0.212572
     13 C                     0.233802
     14 S                     0.610512
     15 N                    -0.525740
     16 C                    -0.205852
     17 S                     0.341799
     18 C                    -0.105906
     19 C                    -0.221896
     20 S                     0.267365
     21 C                     0.137941
     22 C                     0.043189
     23 C                    -0.305171
     24 C                    -0.071881
     25 N                    -0.416102
     26 S                     0.275194
     27 C                     0.125792
     28 C                    -0.315198
     29 C                    -0.229336
     30 H                     0.090799
     31 H                     0.103416
     32 H                     0.100953
     33 H                     0.104140
     34 H                     0.134010
     35 H                     0.105890
     36 H                     0.117613
     37 H                     0.133502
     38 H                     0.097773
     39 C                    -0.187873
     40 H                     0.125553
     41 H                     0.085302
     42 H                     0.110215
     43 C                    -0.194741
     44 H                     0.086137
     45 C                    -0.166717
     46 H                     0.123778
     47 H                     0.089224
     48 H                     0.099084
     49 C                    -0.179590
     50 H                     0.090361
     51 C                    -0.315491
     52 H                     0.093339
     53 H                     0.098706
     54 H                     0.108249
     55 H                     0.098871
     56 C                     0.260842
     57 C                    -0.107800
     58 N                    -0.461334
     59 C                    -0.053157
     60 C                     0.095216
     61 C                    -0.000160
     62 C                    -0.073905
     63 C                     0.086849
     64 C                     0.251884
     65 N                    -0.540805
     66 N                    -0.523447
     67 C                     0.182793
     68 C                     0.328059
     69 S                     0.603093
     70 N                    -0.544607
     71 C                    -0.247484
     72 S                     0.339322
     73 C                    -0.091771
     74 C                    -0.202960
     75 S                     0.307817
     76 C                     0.104034
     77 C                     0.029379
     78 C                    -0.307975
     79 C                    -0.074078
     80 N                    -0.409556
     81 S                     0.288279
     82 C                     0.137510
     83 C                    -0.319487
     84 C                    -0.234777
     85 H                     0.092945
     86 H                     0.105097
     87 H                     0.109472
     88 H                     0.116034
     89 H                     0.131635
     90 H                     0.117735
     91 H                     0.120365
     92 H                     0.136451
     93 H                     0.098764
     94 C                    -0.183961
     95 H                     0.117583
     96 H                     0.105107
     97 H                     0.094579
     98 C                    -0.175761
     99 H                     0.097281
    100 C                    -0.179553
    101 H                     0.085468
    102 H                     0.084316
    103 H                     0.093892
    104 C                    -0.162568
    105 H                     0.093503
    106 C                    -0.332510
    107 H                     0.099824
    108 H                     0.108986
    109 H                     0.088554
    110 H                     0.104493
  ----------------------------------------
  Sum of atomic charges =     0.000000

                    Cartesian Multipole Moments
 -----------------------------------------------------------------
    Charge (ESU x 10^10)
                 0.0000
    Dipole Moment (Debye)
         X      -3.3602      Y       1.3333      Z      -0.2873
       Tot       3.6264
    Quadrupole Moments (Debye-Ang)
        XX    -395.4318     XY     -25.8998     YY    -407.1959
        XZ     -13.0079     YZ      13.9084     ZZ    -451.8241

 Total job time:  90.31s(wall), 992.56s(cpu)
        *  Thank you very much for using Q-Chem.  Have a nice day.  *
