 Q-Chem 4.4, Q-Chem, Inc., Pleasanton, CA (2016)
 Q-Chem 4.4.2 for Intel X86 Linux

User input:
--------------------------------------------------------------
$comment
SP
$end

$rem
MEM_STATIC 5000
MEM_TOTAL 20000
JOBTYPE SP
EXCHANGE B3LYP
BASIS 6-31g(d,p)
$end

$molecule
0 1
C          21.539000     11.757000      3.698000
C          20.646000     12.050000      4.710000
N          22.817000     11.580000      3.900000
C          21.153000     12.061000      6.010000
C          23.362000     11.577000      5.105000
C          22.558000     11.795000      6.237000
C          23.125000     11.904000      7.619000
C          22.321000     12.506000      8.640000
C          24.349000     11.319000      7.977000
N          22.700000     12.545000      9.908000
N          25.114000     10.564000      7.200000
C          24.766000     11.432000      9.300000
C          23.953000     12.098000     10.218000
S          26.396000     10.214000      8.158000
N          25.925000     10.766000      9.586000
C          24.308000     12.084000     11.636000
S          25.961000     12.049000     12.237000
C          23.501000     12.531000     12.632000
C          25.496000     12.769000     13.763000
S          21.784000     12.836000     12.663000
C          24.132000     12.980000     13.834000
C          26.463000     12.930000     14.781000
C          21.899000     13.402000     14.346000
C          23.204000     13.379000     14.853000
N          27.570000     12.256000     14.580000
S          26.170000     13.507000     16.390000
C          28.428000     12.370000     15.701000
C          27.822000     13.012000     16.758000
C          21.120000     11.819000      2.284000
H          19.575000     12.127000      4.546000
H          20.517000     12.313000      6.853000
H          24.441000     11.460000      5.186000
H          21.467000     13.128000      8.374000
H          21.104000     13.935000     14.851000
H          23.517000     13.743000     15.825000
H          29.401000     11.899000     15.674000
H          28.120000     12.915000     17.794000
H          21.842000     11.277000      1.661000
C          21.103000     13.274000      1.690000
H          20.147000     11.341000      2.113000
H          21.041000     13.191000      0.597000
H          22.055000     13.803000      1.819000
C          19.912000     14.160000      2.137000
H          19.900000     14.202000      3.233000
C          18.505000     13.635000      1.698000
H          20.113000     15.149000      1.706000
H          17.999000     12.787000      2.176000
H          18.561000     13.307000      0.652000
C          17.554000     14.849000      1.735000
H          17.330000     15.260000      2.727000
C          16.292000     14.576000      0.997000
H          18.060000     15.706000      1.275000
H          15.801000     13.666000      1.362000
H          16.546000     14.370000     -0.050000
H          15.609000     15.434000      1.028000
C          20.705000      7.050000     -1.900000
C          21.028000      8.399000     -1.650000
N          19.953000      6.294000     -1.095000
C          20.636000      9.008000     -0.437000
C          19.476000      6.888000     -0.008000
C          19.820000      8.252000      0.375000
C          19.248000      8.832000      1.593000
C          17.972000      9.452000      1.684000
C          20.029000      8.660000      2.804000
N          17.438000      9.923000      2.847000
N          21.056000      7.830000      2.996000
C          19.409000      9.140000      3.975000
C          18.153000      9.821000      3.998000
S          21.472000      8.052000      4.558000
N          20.189000      8.910000      5.071000
C          17.498000     10.376000      5.140000
S          18.218000     10.407000      6.748000
C          16.157000     10.663000      5.258000
C          16.764000     11.136000      7.488000
S          14.797000     10.440000      4.134000
C          15.767000     11.073000      6.528000
C          16.539000     11.606000      8.813000
C          13.801000     11.206000      5.391000
C          14.364000     11.454000      6.633000
N          17.669000     11.826000      9.452000
S          15.276000     10.976000      9.769000
C          17.506000     11.804000     10.790000
C          16.278000     11.369000     11.145000
C          21.231000      6.275000     -3.125000
H          21.654000      8.918000     -2.370000
H          20.927000     10.047000     -0.309000
H          18.883000      6.255000      0.650000
H          17.306000      9.641000      0.844000
H          12.761000     11.392000      5.157000
H          13.770000     11.888000      7.429000
H          18.348000     12.024000     11.432000
H          15.745000     11.307000     12.085000
H          22.319000      6.397000     -3.196000
C          20.442000      6.653000     -4.432000
H          21.169000      5.194000     -2.950000
H          19.405000      6.295000     -4.406000
H          20.865000      6.100000     -5.280000
C          20.346000      8.167000     -4.798000
H          19.819000      8.662000     -3.973000
C          19.456000      8.401000     -5.953000
H          21.292000      8.685000     -5.000000
H          19.429000      9.491000     -6.075000
H          18.406000      8.174000     -5.732000
C          19.770000      7.609000     -7.211000
H          20.626000      8.036000     -7.748000
C          18.550000      7.821000     -8.110000
H          20.026000      6.581000     -6.926000
H          17.697000      7.131000     -8.106000
H          18.833000      7.850000     -9.170000
H          18.251000      8.877000     -8.092000
$end

--------------------------------------------------------------

             Standard Nuclear Orientation (Angstroms)
    I     Atom           X                Y                Z
 ----------------------------------------------------------------
    1      C       1.6681941005     1.1367635891    -1.5287578946
    2      C       0.9767922225    -0.0549688493    -1.4329495525
    3      N       1.0928463233     2.3064858563    -1.4503885586
    4      C      -0.3866430543     0.0321431344    -1.1490028175
    5      C      -0.1932595377     2.4599817782    -1.1831251750
    6      C      -1.0079955567     1.3305934544    -0.9932535509
    7      C      -2.4882113132     1.4303957341    -0.7875965083
    8      C      -3.2856046409     0.2588689833    -0.9948402126
    9      C      -3.0987146196     2.5831331932    -0.2708305425
   10      N      -4.5828915603     0.2303029068    -0.7317496806
   11      N      -2.4781190002     3.6758524631     0.1532032705
   12      C      -4.4753921134     2.5593660605    -0.0678990235
   13      C      -5.1894735812     1.3974125378    -0.3631966164
   14      S      -3.7092864672     4.6593302742     0.6012948497
   15      N      -4.9803287410     3.6884582017     0.5141859692
   16      C      -6.6044558644     1.3123579073    -0.0060750014
   17      S      -7.7023944671     2.6868764802     0.0019572723
   18      C      -7.3439034503     0.1756968193    -0.0715947607
   19      C      -9.1021102163     1.6597974448    -0.2198658021
   20      S      -6.8626545646    -1.4984600127    -0.1591927731
   21      C      -8.7554055680     0.3222179857    -0.2469781116
   22      C     -10.3946677384     2.2311906266    -0.2080809033
   23      C      -8.5671397685    -1.9996273509    -0.2573329217
   24      C      -9.4647434515    -0.9250131994    -0.2466066012
   25      N     -10.4343099742     3.4573730959     0.2556334969
   26      S     -11.8967677493     1.3682935767    -0.2903198147
   27      C     -11.7742844735     3.9055415901     0.3526610295
   28      C     -12.6799315798     2.9006796491     0.0943883083
   29      C       3.0904646377     1.1514192668    -1.9233877594
   30      H       1.4697768476    -1.0228617489    -1.4290132537
   31      H      -1.0005520818    -0.8612612426    -1.0890584668
   32      H      -0.6041215473     3.4677340319    -1.1722254394
   33      H      -2.8917534028    -0.5823713042    -1.5641836774
   34      H      -8.8797654756    -2.9965311846    -0.5394444483
   35      H     -10.5401126504    -0.9911473355    -0.3668412135
   36      H     -11.9728831566     4.9152845756     0.6847403367
   37      H     -13.7076459243     2.8916082187     0.4338436594
   38      H       3.5376662685     2.1167520544    -1.6563291321
   39      C       3.3207272896     1.0271882751    -3.4731283092
   40      H       3.6788315829     0.3856187638    -1.4020165601
   41      H       4.3609244804     1.3089474359    -3.6828509343
   42      H       2.7666833114     1.7758251356    -4.0522346218
   43      C       3.1166956206    -0.3917522325    -4.0632680503
   44      H       2.1076060338    -0.7355831335    -3.8051159295
   45      C       4.1066135613    -1.4748429544    -3.5201548402
   46      H       3.2267818499    -0.2693895256    -5.1482525617
   47      H       4.0249412396    -1.9238327544    -2.5224766399
   48      H       5.1179360825    -1.0488165254    -3.4964011094
   49      C       4.1254959574    -2.6120805043    -4.5622201982
   50      H       3.2018278730    -3.1954149097    -4.6608064105
   51      C       5.2852502418    -3.5203071478    -4.3574975472
   52      H       4.1887044679    -2.1701762420    -5.5636243659
   53      H       5.3156599804    -3.9097162078    -3.3328796516
   54      H       6.2042018247    -2.9326784369    -4.4731759225
   55      H       5.2978056223    -4.3356601333    -5.0914293365
   56      C       8.1095345333     2.9331903943     1.5487399790
   57      C       7.4758193554     2.8977467997     0.2902572318
   58      N       7.7907529834     2.1394306782     2.5750873064
   59      C       6.3626608714     2.0532473079     0.0814204589
   60      C       6.8248457638     1.2556797148     2.3561318823
   61      C       6.0589608426     1.1975748663     1.1169526725
   62      C       5.0080409681     0.1889568139     0.9576886096
   63      C       5.2170536541    -1.1521374891     0.5350341791
   64      C       3.6742965672     0.5943446518     1.3612385742
   65      N       4.2276873614    -2.0876582067     0.4607285544
   66      N       3.3358059987     1.6598670752     2.0896471822
   67      C       2.7045076753    -0.4257127143     1.2902915864
   68      C       2.9556931827    -1.7398923051     0.7886305018
   69      S       1.7166118336     1.5431353440     2.2532563465
   70      N       1.4891721486     0.0241064721     1.7182381450
   71      C       2.0077508047    -2.7987384951     0.6421245505
   72      S       0.2862743261    -2.6075406960     0.9661417343
   73      C       2.2869908564    -4.1435668400     0.5524823931
   74      C      -0.0633324043    -4.3284538687     0.6354001641
   75      S       3.8222382656    -5.0389361707     0.6159973858
   76      C       1.1646526690    -4.9642040118     0.5490727916
   77      C      -1.3046373617    -5.0228114162     0.5707503460
   78      C       2.8371417132    -6.4918681306     0.3377987116
   79      C       1.4559787475    -6.3815130186     0.3731202548
   80      N      -2.3177421971    -4.1983523774     0.4048983457
   81      S      -1.6177896520    -6.3636645507     1.5757645324
   82      C      -3.4837294131    -4.7425014697     0.8069836321
   83      C      -3.3009651884    -5.9108201019     1.4587986456
   84      C       9.2251378921     3.9389525537     1.8977351430
   85      H       7.8111058381     3.5948207293    -0.4721782811
   86      H       5.9195181927     2.0845362203    -0.9101598809
   87      H       6.5603018066     0.6300764903     3.2069779908
   88      H       6.1686215351    -1.5631323686     0.2026507006
   89      H       3.3598957737    -7.4313434052     0.2150534439
   90      H       0.8310464941    -7.2572790816     0.2415851592
   91      H      -4.4028624415    -4.1882138955     0.6747423330
   92      H      -3.9693566647    -6.6753066205     1.8334267242
   93      H       8.8979936706     4.9534351168     1.6379837472
   94      C      10.6042623167     3.5142689783     1.2721844397
   95      H       9.3230615327     4.0402979650     2.9854713556
   96      H      11.0073248119     2.6068815647     1.7395148437
   97      H      11.3603852832     4.2687798273     1.5228504292
   98      C      10.6392591875     3.2371631653    -0.2631837856
   99      H       9.9518671729     2.4035460624    -0.4527985111
  100      C      11.9446996856     2.7011750506    -0.6984111364
  101      H      10.3928298232     4.0803118909    -0.9207678447
  102      H      11.8261425825     2.4991682696    -1.7702555625
  103      H      12.1447465295     1.6983300740    -0.3019855910
  104      C      13.1654596127     3.5218024445    -0.3179641879
  105      H      13.2760872249     4.3977296678    -0.9690763372
  106      C      14.3520694572     2.6057826398    -0.6252259561
  107      H      13.0441934003     3.8775717887     0.7126995204
  108      H      14.7863996866     1.9417875588     0.1325291391
  109      H      15.2215816775     3.1784800593    -0.9723515305
  110      H      14.2040904905     2.1146536100    -1.5956668360
 ----------------------------------------------------------------

   10   -5663.4818055462      3.60E-06 Convergence criterion met
 Total energy in the final basis set = -5663.4818055462

                    Orbital Energies (a.u.)
 --------------------------------------------------------------

 Alpha MOs
 -- Occupied --
-88.989 -88.983 -88.932 -88.929 -88.921 -88.915 -88.914 -88.911
-14.391 -14.382 -14.382 -14.376 -14.348 -14.348 -14.343 -14.342
-14.324 -14.314 -10.263 -10.262 -10.261 -10.256 -10.252 -10.251
-10.251 -10.250 -10.241 -10.236 -10.236 -10.236 -10.235 -10.234
-10.233 -10.232 -10.231 -10.231 -10.230 -10.229 -10.227 -10.225
-10.224 -10.222 -10.221 -10.219 -10.216 -10.215 -10.210 -10.209
-10.209 -10.209 -10.208 -10.208 -10.207 -10.204 -10.195 -10.189
-10.182 -10.181 -10.179 -10.176 -10.175 -10.175 -10.174 -10.170
-10.168 -10.167 -10.166 -10.162  -8.045  -8.039  -7.994  -7.991
 -7.979  -7.974  -7.973  -7.971  -6.010  -6.005  -6.004  -6.003
 -5.998  -5.997  -5.958  -5.954  -5.954  -5.951  -5.951  -5.947
 -5.943  -5.939  -5.938  -5.938  -5.935  -5.935  -5.935  -5.934
 -5.931  -5.931  -5.930  -5.927  -1.048  -1.034  -0.987  -0.968
 -0.958  -0.952  -0.945  -0.940  -0.916  -0.911  -0.907  -0.899
 -0.842  -0.841  -0.831  -0.827  -0.816  -0.812  -0.810  -0.807
 -0.805  -0.803  -0.798  -0.794  -0.785  -0.780  -0.767  -0.764
 -0.749  -0.748  -0.739  -0.737  -0.721  -0.721  -0.713  -0.709
 -0.693  -0.691  -0.676  -0.672  -0.655  -0.647  -0.647  -0.635
 -0.634  -0.632  -0.627  -0.620  -0.617  -0.611  -0.608  -0.598
 -0.597  -0.593  -0.585  -0.579  -0.578  -0.574  -0.563  -0.554
 -0.547  -0.542  -0.541  -0.539  -0.526  -0.523  -0.521  -0.518
 -0.505  -0.504  -0.500  -0.499  -0.490  -0.480  -0.479  -0.477
 -0.473  -0.470  -0.468  -0.464  -0.461  -0.459  -0.450  -0.449
 -0.449  -0.440  -0.438  -0.438  -0.434  -0.433  -0.430  -0.429
 -0.428  -0.426  -0.423  -0.423  -0.420  -0.415  -0.413  -0.411
 -0.410  -0.410  -0.408  -0.401  -0.399  -0.397  -0.396  -0.395
 -0.394  -0.394  -0.392  -0.390  -0.387  -0.386  -0.383  -0.382
 -0.381  -0.379  -0.376  -0.373  -0.363  -0.359  -0.357  -0.355
 -0.354  -0.348  -0.348  -0.346  -0.344  -0.343  -0.341  -0.337
 -0.334  -0.333  -0.333  -0.330  -0.323  -0.322  -0.319  -0.317
 -0.314  -0.308  -0.306  -0.304  -0.303  -0.301  -0.299  -0.296
 -0.296  -0.295  -0.292  -0.290  -0.285  -0.283  -0.281  -0.278
 -0.276  -0.274  -0.267  -0.262  -0.255  -0.254  -0.247  -0.241
 -0.240  -0.238  -0.236  -0.228  -0.199  -0.191

          Ground-State Mulliken Net Atomic Charges

     Atom                 Charge (a.u.)
  ----------------------------------------
      1 C                     0.278565
      2 C                    -0.116608
      3 N                    -0.489644
      4 C                    -0.077964
      5 C                     0.078942
      6 C                     0.017497
      7 C                     0.027537
      8 C                     0.068932
      9 C                     0.255023
     10 N                    -0.521704
     11 N                    -0.566760
     12 C                     0.199341
     13 C                     0.284070
     14 S                     0.608471
     15 N                    -0.531952
     16 C                    -0.229488
     17 S                     0.366050
     18 C                    -0.130800
     19 C                    -0.263407
     20 S                     0.288749
     21 C                     0.153576
     22 C                     0.088711
     23 C                    -0.312497
     24 C                    -0.075986
     25 N                    -0.438711
     26 S                     0.270930
     27 C                     0.117101
     28 C                    -0.314092
     29 C                    -0.235789
     30 H                     0.107228
     31 H                     0.117415
     32 H                     0.123973
     33 H                     0.124406
     34 H                     0.128871
     35 H                     0.112542
     36 H                     0.123186
     37 H                     0.132942
     38 H                     0.110539
     39 C                    -0.192433
     40 H                     0.098798
     41 H                     0.085548
     42 H                     0.101442
     43 C                    -0.175675
     44 H                     0.099332
     45 C                    -0.184390
     46 H                     0.093820
     47 H                     0.112598
     48 H                     0.084363
     49 C                    -0.171859
     50 H                     0.091624
     51 C                    -0.317534
     52 H                     0.087175
     53 H                     0.106773
     54 H                     0.096252
     55 H                     0.093230
     56 C                     0.261962
     57 C                    -0.107993
     58 N                    -0.456274
     59 C                    -0.053786
     60 C                     0.095361
     61 C                    -0.002694
     62 C                    -0.058622
     63 C                     0.068156
     64 C                     0.252332
     65 N                    -0.531098
     66 N                    -0.530221
     67 C                     0.199529
     68 C                     0.313946
     69 S                     0.623845
     70 N                    -0.546319
     71 C                    -0.254548
     72 S                     0.344220
     73 C                    -0.078379
     74 C                    -0.205502
     75 S                     0.285428
     76 C                     0.102146
     77 C                     0.029756
     78 C                    -0.303119
     79 C                    -0.071099
     80 N                    -0.416146
     81 S                     0.290632
     82 C                     0.134305
     83 C                    -0.320160
     84 C                    -0.234785
     85 H                     0.094193
     86 H                     0.111985
     87 H                     0.103902
     88 H                     0.119379
     89 H                     0.118797
     90 H                     0.122041
     91 H                     0.132912
     92 H                     0.138806
     93 H                     0.099377
     94 C                    -0.184353
     95 H                     0.117525
     96 H                     0.105619
     97 H                     0.094439
     98 C                    -0.175299
     99 H                     0.097121
    100 C                    -0.179386
    101 H                     0.085419
    102 H                     0.084034
    103 H                     0.094386
    104 C                    -0.162322
    105 H                     0.093226
    106 C                    -0.332517
    107 H                     0.099653
    108 H                     0.109209
    109 H                     0.088172
    110 H                     0.104545
  ----------------------------------------
  Sum of atomic charges =     0.000000

                    Cartesian Multipole Moments
 -----------------------------------------------------------------
    Charge (ESU x 10^10)
                 0.0000
    Dipole Moment (Debye)
         X      -4.0598      Y      -3.3374      Z      -0.8928
       Tot       5.3307
    Quadrupole Moments (Debye-Ang)
        XX    -392.8479     XY       9.3930     YY    -408.7704
        XZ     -18.6991     YZ      -6.1537     ZZ    -453.6279

 Total job time:  108.32s(wall), 1198.92s(cpu)
        *  Thank you very much for using Q-Chem.  Have a nice day.  *
