 Q-Chem 4.4, Q-Chem, Inc., Pleasanton, CA (2016)
 Q-Chem 4.4.2 for Intel X86 Linux

User input:
--------------------------------------------------------------
$comment
SP
$end

$rem
MEM_STATIC 5000
MEM_TOTAL 20000
JOBTYPE SP
EXCHANGE B3LYP
BASIS 6-31g(d,p)
$end

$molecule
0 1
C           2.241000     18.856000     10.678000
C           3.570000     19.191000     10.754000
N           1.723000     18.268000      9.609000
C           4.441000     19.018000      9.700000
C           2.505000     17.939000      8.607000
C           3.864000     18.345000      8.551000
C           4.750000     17.919000      7.451000
C           6.040000     17.460000      7.664000
C           4.439000     18.010000      6.089000
N           6.887000     16.921000      6.703000
N           3.253000     18.485000      5.672000
C           5.322000     17.608000      5.082000
C           6.562000     17.011000      5.440000
S           3.266000     18.360000      4.063000
N           4.750000     17.717000      3.848000
C           7.647000     16.519000      4.571000
S           9.015000     15.631000      5.263000
C           8.063000     16.959000      3.348000
C           9.886000     15.554000      3.688000
S           7.378000     18.203000      2.383000
C           9.327000     16.449000      2.860000
C          11.151000     15.000000      3.552000
C           8.644000     17.926000      1.206000
C           9.539000     16.923000      1.579000
N          11.801000     15.030000      2.432000
S          11.976000     14.379000      5.006000
C          13.047000     14.472000      2.591000
C          13.272000     13.979000      3.863000
C           1.254000     19.160000     11.854000
H           3.910000     19.669000     11.668000
H           5.500000     19.220000      9.829000
H           2.083000     17.512000      7.698000
H           6.369000     17.350000      8.697000
H           8.520000     18.305000      0.200000
H          10.426000     16.656000      1.016000
H          13.751000     14.457000      1.769000
H          14.127000     13.456000      4.271000
H           1.659000     19.968000     12.477000
C           0.857000     17.983000     12.724000
H           0.352000     19.361000     11.262000
H           1.715000     17.685000     13.340000
H           0.718000     17.184000     11.986000
C          -0.316000     18.265000     13.653000
H          -0.247000     19.199000     14.225000
C          -0.708000     17.063000     14.593000
H          -1.151000     18.505000     12.984000
H          -0.564000     16.094000     14.099000
H          -1.747000     17.059000     14.945000
C           0.115000     17.079000     15.901000
H           1.175000     17.251000     15.676000
C          -0.029000     15.768000     16.792000
H          -0.248000     17.939000     16.477000
H          -1.009000     15.801000     17.285000
H           0.642000     15.822000     17.657000
H           0.118000     14.822000     16.256000
C          20.705000      7.050000     -1.900000
C          21.028000      8.399000     -1.650000
N          19.953000      6.294000     -1.095000
C          20.636000      9.008000     -0.437000
C          19.476000      6.888000     -0.008000
C          19.820000      8.252000      0.375000
C          19.248000      8.832000      1.593000
C          17.972000      9.452000      1.684000
C          20.029000      8.660000      2.804000
N          17.438000      9.923000      2.847000
N          21.056000      7.830000      2.996000
C          19.409000      9.140000      3.975000
C          18.153000      9.821000      3.998000
S          21.472000      8.052000      4.558000
N          20.189000      8.910000      5.071000
C          17.498000     10.376000      5.140000
S          18.218000     10.407000      6.748000
C          16.157000     10.663000      5.258000
C          16.764000     11.136000      7.488000
S          14.797000     10.440000      4.134000
C          15.767000     11.073000      6.528000
C          16.539000     11.606000      8.813000
C          13.801000     11.206000      5.391000
C          14.364000     11.454000      6.633000
N          17.669000     11.826000      9.452000
S          15.276000     10.976000      9.769000
C          17.506000     11.804000     10.790000
C          16.278000     11.369000     11.145000
C          21.231000      6.275000     -3.125000
H          21.654000      8.918000     -2.370000
H          20.927000     10.047000     -0.309000
H          18.883000      6.255000      0.650000
H          17.306000      9.641000      0.844000
H          12.761000     11.392000      5.157000
H          13.770000     11.888000      7.429000
H          18.348000     12.024000     11.432000
H          15.745000     11.307000     12.085000
H          22.319000      6.397000     -3.196000
C          20.442000      6.653000     -4.432000
H          21.169000      5.194000     -2.950000
H          19.405000      6.295000     -4.406000
H          20.865000      6.100000     -5.280000
C          20.346000      8.167000     -4.798000
H          19.819000      8.662000     -3.973000
C          19.456000      8.401000     -5.953000
H          21.292000      8.685000     -5.000000
H          19.429000      9.491000     -6.075000
H          18.406000      8.174000     -5.732000
C          19.770000      7.609000     -7.211000
H          20.626000      8.036000     -7.748000
C          18.550000      7.821000     -8.110000
H          20.026000      6.581000     -6.926000
H          17.697000      7.131000     -8.106000
H          18.833000      7.850000     -9.170000
H          18.251000      8.877000     -8.092000
$end

--------------------------------------------------------------

             Standard Nuclear Orientation (Angstroms)
    I     Atom           X                Y                Z
 ----------------------------------------------------------------
    1      C     -12.7756412517     0.1312279833    -0.0272289158
    2      C     -11.9254263186     0.5782607637    -1.0078094891
    3      N     -12.4394984701    -0.8435472014     0.8056278364
    4      C     -10.7006047170    -0.0048279816    -1.2513368171
    5      C     -11.2379805607    -1.3685120688     0.7382809635
    6      C     -10.3368674445    -1.0483522688    -0.3106927513
    7      C      -8.9677400208    -1.5968725719    -0.3436711480
    8      C      -7.8573714636    -0.8208282414    -0.6351962143
    9      C      -8.6404984502    -2.9482343877    -0.1800245853
   10      N      -6.5306604843    -1.2277574107    -0.5597135762
   11      N      -9.5859035923    -3.8738325727     0.0557446175
   12      C      -7.3259307298    -3.4214879754    -0.2373373266
   13      C      -6.2581343764    -2.4954607565    -0.3937263849
   14      S      -8.8007560159    -5.2704872642     0.2495846438
   15      N      -7.2667071615    -4.7563631019     0.0391079042
   16      C      -4.8084718270    -2.7487631682    -0.4873553394
   17      S      -3.6617033865    -1.3983104504    -0.4817338878
   18      C      -4.1331391567    -3.8146846339    -1.0070881682
   19      C      -2.2463759587    -2.4730545110    -0.7766380691
   20      S      -4.7848253695    -5.2649804982    -1.6551105336
   21      C      -2.7068365686    -3.6593401762    -1.2006573463
   22      C      -0.9572473582    -1.9909762550    -0.9537962085
   23      C      -3.1520094789    -5.7885809699    -2.0080536071
   24      C      -2.1791276911    -4.8589662361    -1.6399768848
   25      N       0.0354548483    -2.7679046913    -1.2516628468
   26      S      -0.6914855835    -0.2275966419    -0.9381431136
   27      C       1.1796452028    -2.0281847833    -1.4327812902
   28      C       1.0039199111    -0.6760181425    -1.2038184166
   29      C     -14.2031924964     0.7455809903     0.1577814257
   30      H     -12.2818147970     1.3820082371    -1.6453494890
   31      H     -10.0249633039     0.4305100808    -1.9813474008
   32      H     -10.9701334710    -2.2111065444     1.3746664491
   33      H      -8.0150555106     0.2485823623    -0.7727705652
   34      H      -2.9662846502    -6.8357824533    -2.2078743799
   35      H      -1.1198477829    -4.9720439755    -1.8403927051
   36      H       2.1009495826    -2.5074613305    -1.7377685538
   37      H       1.7174328932     0.1372582858    -1.2261494572
   38      H     -14.5251050749     1.2210293954    -0.7778141631
   39      C     -14.3793898440     1.7079722985     1.3164856436
   40      H     -14.7282817087    -0.1591515081     0.4897594753
   41      H     -13.8562526360     2.6454383115     1.0886503168
   42      H     -13.8033496919     1.2219147569     2.1129100339
   43      C     -15.8312359355     2.0418968790     1.6313368802
   44      H     -16.4472199204     2.3174192329     0.7659166569
   45      C     -16.0237832317     3.0754846221     2.8046611815
   46      H     -16.2871033591     1.0814170930     1.8997572087
   47      H     -15.2616852198     2.9549926156     3.5846748330
   48      H     -16.9867383990     3.0215264893     3.3273913851
   49      C     -15.9764565654     4.5308704587     2.2869148602
   50      H     -15.1284114545     4.6589602489     1.6026477373
   51      C     -15.9061097339     5.6391408203     3.4271455952
   52      H     -16.8971048486     4.6770052613     1.7088176728
   53      H     -16.9026799872     5.7217092622     3.8794377383
   54      H     -15.7955730166     6.6345840303     2.9818856153
   55      H     -15.1330837709     5.4758404597     4.1884502995
   56      C      12.4263737519    -1.2528560349     1.1768338678
   57      C      11.9679269352    -1.2897518452    -0.1554931249
   58      N      11.8169224958    -0.5915986583     2.1649496749
   59      C      10.8510191776    -0.5156749883    -0.5418039852
   60      C      10.6969733289     0.0439870303     1.8429579110
   61      C      10.1887100940     0.1290864681     0.4791589632
   62      C       8.9425557997     0.8517174222     0.2108084854
   63      C       7.6357707101     0.3072313810     0.3400550736
   64      C       9.0839172798     2.2578401143    -0.1191944035
   65      N       6.4920279336     1.0245636235     0.1480839429
   66      N      10.1636812797     3.0247582379     0.0434072454
   67      C       7.8657888839     2.9492503994    -0.2746165021
   68      C       6.5779361376     2.3342349407    -0.2037836764
   69      S       9.6899113385     4.5049674607    -0.4532885364
   70      N       8.0835039195     4.2684966906    -0.5479393634
   71      C       5.3123602991     2.9664879075    -0.4032529302
   72      S       5.1388290139     4.6488483739    -0.8977983314
   73      C       4.0905101410     2.5155191553     0.0420372848
   74      C       3.3551706859     4.5900444730    -0.8069024021
   75      S       3.6353432070     1.0910313380     1.0045145680
   76      C       3.0378162110     3.3964673124    -0.1790188947
   77      C       2.3794991114     5.5620441276    -1.1680556249
   78      C       1.9599085404     1.6461175244     0.7956629373
   79      C       1.7319668199     2.8857472705     0.2191235502
   80      N       2.8742197751     6.4727778975    -1.9801125597
   81      S       1.2496540242     6.1414681462    -0.0306362276
   82      C       2.1588570557     7.6151070231    -1.9548668031
   83      C       1.2386386482     7.6164092673    -0.9667218811
   84      C      13.7263006727    -1.9439033552     1.6357125029
   85      H      12.5464480291    -1.8540772963    -0.8810874531
   86      H      10.5596036507    -0.5866965321    -1.5861310082
   87      H      10.2223247447     0.5963787482     2.6522008359
   88      H       7.4102905827    -0.7316367701     0.5741248856
   89      H       1.1741144374     1.0160209188     1.1912105264
   90      H       0.7221473795     3.2644966123     0.1113198679
   91      H       2.4284649699     8.4261734113    -2.6174457694
   92      H       0.4315293841     8.2831592141    -0.6918543783
   93      H      14.5493696512    -1.6545293936     0.9705139107
   94      C      13.5304064598    -3.4957811770     1.7998913187
   95      H      14.0787249142    -1.5094123179     2.5791343028
   96      H      12.8716365745    -3.7416242993     2.6423830976
   97      H      14.4833361624    -3.9486445108     2.1010254796
   98      C      12.9488352135    -4.2771862048     0.5806501334
   99      H      11.9510801461    -3.8656934062     0.3843404233
  100      C      12.6702696736    -5.6892903188     0.9111712538
  101      H      13.5447427100    -4.2652116008    -0.3406505040
  102      H      12.2210012751    -6.1106077095     0.0032271132
  103      H      11.8561479001    -5.8021154932     1.6373573306
  104      C      13.8277673872    -6.4804035259     1.4966308481
  105      H      14.5438972027    -6.7741102442     0.7192451968
  106      C      13.1880398113    -7.7751899678     2.0024190437
  107      H      14.3545928147    -5.8494589415     2.2232042445
  108      H      12.8291471775    -7.8830396275     3.0335783564
  109      H      13.8691957056    -8.6287102245     1.8926018361
  110      H      12.4798746755    -8.1587724869     1.2566123721
 ----------------------------------------------------------------

   10   -5663.4803475724      3.68E-06 Convergence criterion met
 Total energy in the final basis set = -5663.4803475724

                    Orbital Energies (a.u.)
 --------------------------------------------------------------

 Alpha MOs
 -- Occupied --
-88.992 -88.987 -88.932 -88.920 -88.918 -88.915 -88.913 -88.907
-14.388 -14.386 -14.381 -14.380 -14.353 -14.348 -14.342 -14.338
-14.330 -14.326 -10.266 -10.262 -10.262 -10.261 -10.259 -10.256
-10.255 -10.255 -10.242 -10.239 -10.237 -10.236 -10.236 -10.235
-10.233 -10.231 -10.229 -10.228 -10.228 -10.228 -10.227 -10.226
-10.226 -10.224 -10.224 -10.223 -10.223 -10.222 -10.221 -10.218
-10.211 -10.210 -10.210 -10.209 -10.202 -10.197 -10.197 -10.192
-10.186 -10.184 -10.183 -10.182 -10.181 -10.180 -10.179 -10.176
-10.176 -10.172 -10.169 -10.167  -8.047  -8.043  -7.994  -7.979
 -7.978  -7.974  -7.972  -7.969  -6.012  -6.008  -6.007  -6.005
 -6.002  -6.001  -5.958  -5.954  -5.951  -5.943  -5.942  -5.939
 -5.939  -5.939  -5.937  -5.936  -5.935  -5.935  -5.933  -5.933
 -5.930  -5.929  -5.929  -5.925  -1.043  -1.039  -0.987  -0.971
 -0.966  -0.954  -0.952  -0.942  -0.914  -0.911  -0.905  -0.903
 -0.847  -0.842  -0.839  -0.833  -0.816  -0.812  -0.809  -0.808
 -0.807  -0.804  -0.800  -0.797  -0.786  -0.782  -0.770  -0.768
 -0.750  -0.750  -0.745  -0.738  -0.722  -0.715  -0.714  -0.709
 -0.694  -0.694  -0.674  -0.674  -0.661  -0.649  -0.647  -0.639
 -0.637  -0.633  -0.630  -0.629  -0.618  -0.616  -0.609  -0.599
 -0.597  -0.590  -0.586  -0.585  -0.583  -0.575  -0.567  -0.555
 -0.554  -0.548  -0.543  -0.543  -0.527  -0.524  -0.522  -0.514
 -0.510  -0.507  -0.503  -0.502  -0.491  -0.489  -0.481  -0.477
 -0.473  -0.469  -0.468  -0.467  -0.461  -0.460  -0.456  -0.452
 -0.450  -0.446  -0.440  -0.436  -0.434  -0.433  -0.431  -0.430
 -0.427  -0.425  -0.424  -0.423  -0.419  -0.416  -0.415  -0.414
 -0.412  -0.412  -0.410  -0.409  -0.401  -0.399  -0.397  -0.396
 -0.396  -0.395  -0.393  -0.391  -0.388  -0.388  -0.383  -0.383
 -0.380  -0.378  -0.378  -0.374  -0.368  -0.361  -0.360  -0.356
 -0.355  -0.351  -0.349  -0.347  -0.346  -0.345  -0.342  -0.335
 -0.333  -0.333  -0.331  -0.329  -0.326  -0.324  -0.324  -0.320
 -0.316  -0.312  -0.311  -0.308  -0.304  -0.302  -0.301  -0.299
 -0.298  -0.296  -0.293  -0.292  -0.287  -0.286  -0.283  -0.282
 -0.280  -0.277  -0.272  -0.264  -0.256  -0.252  -0.252  -0.249
 -0.241  -0.240  -0.238  -0.233  -0.199  -0.192

          Ground-State Mulliken Net Atomic Charges

     Atom                 Charge (a.u.)
  ----------------------------------------
      1 C                     0.269583
      2 C                    -0.113551
      3 N                    -0.473543
      4 C                    -0.066146
      5 C                     0.097595
      6 C                     0.006346
      7 C                     0.064078
      8 C                     0.030233
      9 C                     0.200354
     10 N                    -0.520711
     11 N                    -0.545911
     12 C                     0.225304
     13 C                     0.316563
     14 S                     0.611142
     15 N                    -0.556122
     16 C                    -0.207143
     17 S                     0.292448
     18 C                    -0.142827
     19 C                    -0.229789
     20 S                     0.280945
     21 C                     0.181388
     22 C                     0.088388
     23 C                    -0.304927
     24 C                    -0.072318
     25 N                    -0.453651
     26 S                     0.232699
     27 C                     0.124354
     28 C                    -0.310113
     29 C                    -0.218790
     30 H                     0.084258
     31 H                     0.108033
     32 H                     0.117687
     33 H                     0.106372
     34 H                     0.130532
     35 H                     0.125797
     36 H                     0.117686
     37 H                     0.147532
     38 H                     0.091241
     39 C                    -0.170814
     40 H                     0.121341
     41 H                     0.087085
     42 H                     0.113466
     43 C                    -0.178604
     44 H                     0.090948
     45 C                    -0.174399
     46 H                     0.092224
     47 H                     0.093225
     48 H                     0.090731
     49 C                    -0.177104
     50 H                     0.092631
     51 C                    -0.328093
     52 H                     0.093356
     53 H                     0.102850
     54 H                     0.101355
     55 H                     0.106802
     56 C                     0.261399
     57 C                    -0.107097
     58 N                    -0.455419
     59 C                    -0.053541
     60 C                     0.094747
     61 C                    -0.000974
     62 C                    -0.067687
     63 C                     0.076432
     64 C                     0.251217
     65 N                    -0.531512
     66 N                    -0.522388
     67 C                     0.185033
     68 C                     0.328803
     69 S                     0.607048
     70 N                    -0.544788
     71 C                    -0.247823
     72 S                     0.347002
     73 C                    -0.080163
     74 C                    -0.201875
     75 S                     0.281538
     76 C                     0.103495
     77 C                     0.027808
     78 C                    -0.320143
     79 C                    -0.076350
     80 N                    -0.409114
     81 S                     0.292018
     82 C                     0.138210
     83 C                    -0.319329
     84 C                    -0.234901
     85 H                     0.093552
     86 H                     0.104964
     87 H                     0.104791
     88 H                     0.119535
     89 H                     0.135468
     90 H                     0.126469
     91 H                     0.122300
     92 H                     0.139250
     93 H                     0.098762
     94 C                    -0.184219
     95 H                     0.117986
     96 H                     0.106143
     97 H                     0.094775
     98 C                    -0.175382
     99 H                     0.097052
    100 C                    -0.179535
    101 H                     0.085001
    102 H                     0.084162
    103 H                     0.094867
    104 C                    -0.162728
    105 H                     0.093240
    106 C                    -0.332377
    107 H                     0.099732
    108 H                     0.109534
    109 H                     0.088371
    110 H                     0.104628
  ----------------------------------------
  Sum of atomic charges =     0.000000

                    Cartesian Multipole Moments
 -----------------------------------------------------------------
    Charge (ESU x 10^10)
                 0.0000
    Dipole Moment (Debye)
         X      -1.5310      Y       1.8440      Z      -2.4509
       Tot       3.4280
    Quadrupole Moments (Debye-Ang)
        XX    -432.2434     XY     -22.4453     YY    -404.3514
        XZ      -8.2860     YZ       2.7473     ZZ    -452.3304

 Total job time:  94.11s(wall), 1009.67s(cpu)
        *  Thank you very much for using Q-Chem.  Have a nice day.  *
