 Q-Chem 4.4, Q-Chem, Inc., Pleasanton, CA (2016)
 Q-Chem 4.4.2 for Intel X86 Linux

User input:
--------------------------------------------------------------
$comment
SP
$end

$rem
MEM_STATIC 5000
MEM_TOTAL 20000
JOBTYPE SP
EXCHANGE B3LYP
BASIS 6-31g(d,p)
$end

$molecule
0 1
C          17.382000      7.107000     12.730000
C          18.041000      7.918000     11.798000
N          17.926000      5.954000     13.170000
C          19.334000      7.507000     11.366000
C          19.139000      5.534000     12.663000
C          20.006000      6.321000     11.813000
C          21.370000      5.841000     11.304000
C          21.705000      4.468000     11.179000
C          22.394000      6.718000     10.738000
N          22.838000      4.017000     10.656000
N          22.282000      8.075000     10.709000
C          23.525000      6.254000     10.110000
C          23.774000      4.845000     10.215000
S          23.648000      8.558000     10.046000
N          24.324000      7.192000      9.559000
C          24.968000      4.206000      9.636000
S          26.359000      5.082000      8.921000
C          25.362000      2.877000      9.718000
C          27.293000      3.591000      8.546000
S          24.539000      1.532000     10.533000
C          26.657000      2.627000      9.222000
C          28.516000      3.535000      7.874000
C          26.009000      0.615000     10.155000
C          26.970000      1.263000      9.412000
N          28.926000      4.734000      7.493000
S          29.597000      2.186000      7.467000
C          30.071000      4.641000      6.715000
C          30.569000      3.407000      6.654000
C          16.061000      7.525000     13.439000
H          17.582000      8.827000     11.421000
H          19.766000      8.138000     10.595000
H          19.463000      4.512000     12.850000
H          21.093000      3.682000     11.619000
H          26.128000     -0.416000     10.462000
H          27.923000      0.842000      9.112000
H          30.541000      5.514000      6.282000
H          31.549000      3.064000      6.350000
H          15.320000      7.899000     12.722000
C          16.305000      8.491000     14.660000
H          15.544000      6.656000     13.865000
H          16.663000      9.466000     14.307000
H          17.136000      8.046000     15.221000
C          15.070000      8.758000     15.542000
H          14.257000      8.953000     14.833000
C          15.232000      9.982000     16.453000
H          14.888000      7.922000     16.228000
H          15.776000     10.793000     15.954000
H          15.746000      9.702000     17.381000
C          13.876000     10.472000     16.984000
H          13.285000     10.727000     16.095000
C          14.262000     11.728000     17.796000
H          13.164000      9.832000     17.520000
H          14.699000     12.484000     17.131000
H          14.984000     11.630000     18.616000
H          13.403000     12.259000     18.223000
C          20.705000      7.050000     -1.900000
C          21.028000      8.399000     -1.650000
N          19.953000      6.294000     -1.095000
C          20.636000      9.008000     -0.437000
C          19.476000      6.888000     -0.008000
C          19.820000      8.252000      0.375000
C          19.248000      8.832000      1.593000
C          17.972000      9.452000      1.684000
C          20.029000      8.660000      2.804000
N          17.438000      9.923000      2.847000
N          21.056000      7.830000      2.996000
C          19.409000      9.140000      3.975000
C          18.153000      9.821000      3.998000
S          21.472000      8.052000      4.558000
N          20.189000      8.910000      5.071000
C          17.498000     10.376000      5.140000
S          18.218000     10.407000      6.748000
C          16.157000     10.663000      5.258000
C          16.764000     11.136000      7.488000
S          14.797000     10.440000      4.134000
C          15.767000     11.073000      6.528000
C          16.539000     11.606000      8.813000
C          13.801000     11.206000      5.391000
C          14.364000     11.454000      6.633000
N          17.669000     11.826000      9.452000
S          15.276000     10.976000      9.769000
C          17.506000     11.804000     10.790000
C          16.278000     11.369000     11.145000
C          21.231000      6.275000     -3.125000
H          21.654000      8.918000     -2.370000
H          20.927000     10.047000     -0.309000
H          18.883000      6.255000      0.650000
H          17.306000      9.641000      0.844000
H          12.761000     11.392000      5.157000
H          13.770000     11.888000      7.429000
H          18.348000     12.024000     11.432000
H          15.745000     11.307000     12.085000
H          22.319000      6.397000     -3.196000
C          20.442000      6.653000     -4.432000
H          21.169000      5.194000     -2.950000
H          19.405000      6.295000     -4.406000
H          20.865000      6.100000     -5.280000
C          20.346000      8.167000     -4.798000
H          19.819000      8.662000     -3.973000
C          19.456000      8.401000     -5.953000
H          21.292000      8.685000     -5.000000
H          19.429000      9.491000     -6.075000
H          18.406000      8.174000     -5.732000
C          19.770000      7.609000     -7.211000
H          20.626000      8.036000     -7.748000
C          18.550000      7.821000     -8.110000
H          20.026000      6.581000     -6.926000
H          17.697000      7.131000     -8.106000
H          18.833000      7.850000     -9.170000
H          18.251000      8.877000     -8.092000
$end

--------------------------------------------------------------

             Standard Nuclear Orientation (Angstroms)
    I     Atom           X                Y                Z
 ----------------------------------------------------------------
    1      C      -6.0290939498    -2.1996893380     1.7262563286
    2      C      -5.0457224069    -2.1169183170     0.7329007192
    3      N      -6.4525627124    -1.1055687859     2.3914776637
    4      C      -4.5412182625    -0.8245594321     0.4124665125
    5      C      -5.8782857040     0.1207405543     2.1246643961
    6      C      -4.9642892239     0.3955793422     1.0371755111
    7      C      -4.3796333832     1.7813464374     0.7408579348
    8      C      -4.2555595414     2.7915847963     1.7292926266
    9      C      -3.7379772070     2.1532037895    -0.5193247747
   10      N      -3.6707320805     3.9661763542     1.5319844591
   11      N      -3.6948544785     1.3330723426    -1.6057679808
   12      C      -3.0486878838     3.3284360669    -0.6997418555
   13      C      -3.1600131141     4.2953558647     0.3542884087
   14      S      -2.9414199671     2.1997860306    -2.7102849884
   15      N      -2.4349338369     3.4783784714    -1.8924988488
   16      C      -2.5184578677     5.6193462254     0.2860653143
   17      S      -1.7054782753     6.2951340704    -1.1616421738
   18      C      -2.5966410310     6.6650126039     1.1963785669
   19      C      -1.2967916323     7.8632436163    -0.3805725996
   20      S      -3.4816665994     6.7236180849     2.7338681248
   21      C      -2.0256408384     7.8703206851     0.7417004286
   22      C      -0.5515745539     8.8964776976    -0.9528730795
   23      C      -3.0279980749     8.4378941180     2.7446176432
   24      C      -2.2171462162     8.8710024102     1.7197222971
   25      N      -0.1274175929     8.5860619884    -2.1672020959
   26      S      -0.0996770688    10.5115364966    -0.3685916929
   27      C       0.7181977491     9.5685193414    -2.6618436257
   28      C       0.7906173433    10.6450340957    -1.8805930986
   29      C      -6.8116555265    -3.5072724116     2.0429105317
   30      H      -4.6836745666    -3.0062595300     0.2258656433
   31      H      -3.7353221706    -0.8303548593    -0.3153548269
   32      H      -6.0608030787     0.9480442659     2.8078078486
   33      H      -4.7446396962     2.7135673742     2.6991657545
   34      H      -3.3430590059     9.1021430936     3.5388977627
   35      H      -1.8655052196     9.8873575539     1.5825332619
   36      H       1.1928840669     9.4804883667    -3.6300592252
   37      H       1.1491282095    11.6423845419    -2.0979109449
   38      H      -6.1360085999    -4.3641442132     2.1538967745
   39      C      -8.0001154597    -3.7632017793     1.0401163624
   40      H      -7.2821933579    -3.4613757903     3.0330689278
   41      H      -7.6105912175    -3.9967475002     0.0415547664
   42      H      -8.5156296703    -2.7992760699     0.9484685288
   43      C      -8.9523679981    -4.9099697613     1.4307265242
   44      H      -8.2919287318    -5.7317576156     1.7309925697
   45      C      -9.8325047039    -5.3864587044     0.2676879753
   46      H      -9.6611995692    -4.5873617675     2.2028002811
   47      H      -9.2883505357    -5.3818012204    -0.6844320534
   48      H     -10.7312671980    -4.7622009935     0.1882632338
   49      C     -10.4384670223    -6.7698413499     0.5502815433
   50      H      -9.5837643305    -7.4440715761     0.6900095312
   51      C     -11.2054880181    -7.0785838439    -0.7544149211
   52      H     -11.0272526800    -7.0060212214     1.4454857198
   53      H     -10.5031259483    -7.1422204237    -1.5954665893
   54      H     -11.9808087508    -6.3805465977    -1.0933983490
   55      H     -11.6763630833    -8.0686906385    -0.7660857564
   56      C       8.7753843111    -0.0050982509     0.6804688822
   57      C       8.5667837085    -0.4413499450    -0.6434647445
   58      N       7.9138730112    -0.2013387176     1.6826429985
   59      C       7.3415231397    -1.0441996887    -1.0057115183
   60      C       6.8088802811    -0.8734967303     1.3840987431
   61      C       6.4690777614    -1.2941818301     0.0301861556
   62      C       5.2272721164    -2.0333465123    -0.2120168844
   63      C       5.0673742899    -3.4378659038    -0.0616341592
   64      C       4.0642331240    -1.2288246981    -0.5378250375
   65      N       3.8811073941    -4.0891764699    -0.2293583323
   66      N       3.9230791583     0.0899157901    -0.3912232544
   67      C       2.8648168424    -1.9572159426    -0.6677780222
   68      C       2.7749631768    -3.3803873517    -0.5764792861
   69      S       2.3933574675     0.3913062323    -0.8721591650
   70      N       1.8155817419    -1.1276299295    -0.9387185151
   71      C       1.6034946183    -4.1796393193    -0.7498912481
   72      S       0.0436517583    -3.5175547941    -1.2331710154
   73      C       1.4074659444    -5.4601346269    -0.2846187192
   74      C      -0.7732183337    -5.1020879434    -1.1101468239
   75      S       2.4418225579    -6.5389878910     0.6791691365
   76      C       0.1223513052    -5.9525809824    -0.4822976282
   77      C      -2.1021099125    -5.4847991635    -1.4488639534
   78      C       1.1378295748    -7.7337888392     0.5034591648
   79      C      -0.0630676011    -7.3361775054    -0.0629225089
   80      N      -2.6666846999    -4.6198710860    -2.2654273190
   81      S      -3.1438813692    -6.1732087903    -0.2883427697
   82      C      -4.0123718896    -4.6870561623    -2.2217334654
   83      C      -4.4491708699    -5.4763649554    -1.2170283942
   84      C      10.0183072124     0.7989890566     1.1123395381
   85      H       9.3320105334    -0.2212931615    -1.3821391778
   86      H       7.2478831461    -1.3473741763    -2.0448952276
   87      H       6.1057918557    -1.0075605653     2.2044618054
   88      H       5.8675235850    -4.1380577175     0.1715385871
   89      H       1.3100872145    -8.7216287685     0.9102165613
   90      H      -0.8873545082    -8.0345195862    -0.1505434714
   91      H      -4.5977077641    -4.0652165681    -2.8852283283
   92      H      -5.4211118746    -5.8521405132    -0.9243572246
   93      H      10.1581799454     1.6495892050     0.4336761414
   94      C      11.2798599177    -0.1264511726     1.2726490950
   95      H       9.8230355962     1.3312736027     2.0512602791
   96      H      11.1843743068    -0.8099957541     2.1257952157
   97      H      12.1436426955     0.4887104924     1.5542471042
   98      C      11.6627271751    -1.0316580581     0.0604687629
   99      H      10.8145804299    -1.7047023661    -0.1157057473
  100      C      12.7641188555    -1.9588652658     0.3892607341
  101      H      11.9307290936    -0.5180863979    -0.8714449249
  102      H      12.9011471704    -2.5687888533    -0.5123652740
  103      H      12.4752623211    -2.7147481779     1.1295802095
  104      C      14.0266320803    -1.3261900611     0.9498019392
  105      H      14.6219887802    -0.8547593036     0.1581344327
  106      C      14.8518422143    -2.5091083744     1.4609550462
  107      H      13.7420249510    -0.5488094423     1.6696791200
  108      H      14.7845032304    -2.8610292566     2.4979421020
  109      H      15.9276043459    -2.3321154550     1.3347039363
  110      H      14.8318455966    -3.3244480338     0.7263242715
 ----------------------------------------------------------------

    9   -5663.4705217687      9.60E-06 Convergence criterion met
 Total energy in the final basis set = -5663.4705217687

                    Orbital Energies (a.u.)
 --------------------------------------------------------------

 Alpha MOs
 -- Occupied --
-88.990 -88.986 -88.934 -88.930 -88.919 -88.914 -88.913 -88.911
-14.389 -14.385 -14.384 -14.379 -14.348 -14.347 -14.344 -14.340
-14.331 -14.325 -10.267 -10.264 -10.264 -10.261 -10.259 -10.255
-10.254 -10.254 -10.241 -10.241 -10.239 -10.237 -10.237 -10.235
-10.235 -10.235 -10.234 -10.232 -10.231 -10.229 -10.229 -10.227
-10.227 -10.226 -10.226 -10.225 -10.225 -10.223 -10.221 -10.211
-10.209 -10.209 -10.208 -10.207 -10.201 -10.198 -10.198 -10.196
-10.189 -10.185 -10.184 -10.183 -10.182 -10.181 -10.181 -10.176
-10.174 -10.171 -10.169 -10.167  -8.047  -8.042  -7.996  -7.991
 -7.978  -7.973  -7.972  -7.969  -6.011  -6.007  -6.006  -6.005
 -6.001  -5.999  -5.960  -5.956  -5.955  -5.953  -5.951  -5.947
 -5.942  -5.938  -5.937  -5.936  -5.934  -5.934  -5.934  -5.933
 -5.930  -5.929  -5.928  -5.926  -1.056  -1.037  -0.989  -0.970
 -0.967  -0.951  -0.941  -0.926  -0.915  -0.910  -0.909  -0.901
 -0.840  -0.839  -0.832  -0.826  -0.818  -0.812  -0.811  -0.808
 -0.808  -0.803  -0.799  -0.794  -0.781  -0.780  -0.769  -0.768
 -0.753  -0.749  -0.744  -0.737  -0.720  -0.713  -0.711  -0.710
 -0.696  -0.693  -0.677  -0.673  -0.651  -0.649  -0.645  -0.637
 -0.635  -0.632  -0.629  -0.623  -0.618  -0.611  -0.610  -0.600
 -0.598  -0.592  -0.585  -0.583  -0.578  -0.576  -0.574  -0.555
 -0.550  -0.548  -0.542  -0.542  -0.528  -0.525  -0.522  -0.521
 -0.506  -0.502  -0.501  -0.495  -0.490  -0.487  -0.481  -0.480
 -0.479  -0.469  -0.469  -0.466  -0.463  -0.460  -0.451  -0.451
 -0.450  -0.441  -0.439  -0.439  -0.436  -0.434  -0.430  -0.429
 -0.426  -0.424  -0.424  -0.423  -0.418  -0.415  -0.414  -0.414
 -0.412  -0.411  -0.409  -0.400  -0.399  -0.398  -0.396  -0.395
 -0.395  -0.392  -0.391  -0.387  -0.387  -0.385  -0.383  -0.383
 -0.381  -0.379  -0.377  -0.372  -0.364  -0.362  -0.359  -0.356
 -0.353  -0.352  -0.349  -0.349  -0.349  -0.347  -0.345  -0.341
 -0.335  -0.332  -0.330  -0.329  -0.327  -0.325  -0.323  -0.320
 -0.319  -0.312  -0.310  -0.307  -0.304  -0.302  -0.301  -0.299
 -0.297  -0.297  -0.292  -0.292  -0.286  -0.283  -0.283  -0.279
 -0.276  -0.273  -0.268  -0.264  -0.258  -0.255  -0.248  -0.246
 -0.240  -0.239  -0.237  -0.231  -0.198  -0.195

          Ground-State Mulliken Net Atomic Charges

     Atom                 Charge (a.u.)
  ----------------------------------------
      1 C                     0.261360
      2 C                    -0.112496
      3 N                    -0.486690
      4 C                    -0.092679
      5 C                     0.066423
      6 C                     0.049046
      7 C                     0.049076
      8 C                     0.055539
      9 C                     0.187018
     10 N                    -0.512500
     11 N                    -0.527884
     12 C                     0.205065
     13 C                     0.310021
     14 S                     0.614044
     15 N                    -0.539708
     16 C                    -0.235568
     17 S                     0.333961
     18 C                    -0.113039
     19 C                    -0.212738
     20 S                     0.291308
     21 C                     0.140308
     22 C                     0.065440
     23 C                    -0.303124
     24 C                    -0.080393
     25 N                    -0.439453
     26 S                     0.266423
     27 C                     0.135749
     28 C                    -0.306314
     29 C                    -0.229681
     30 H                     0.101278
     31 H                     0.116980
     32 H                     0.098958
     33 H                     0.113015
     34 H                     0.119908
     35 H                     0.103605
     36 H                     0.120026
     37 H                     0.133003
     38 H                     0.090352
     39 C                    -0.180183
     40 H                     0.118767
     41 H                     0.082002
     42 H                     0.111761
     43 C                    -0.174973
     44 H                     0.086689
     45 C                    -0.170673
     46 H                     0.102826
     47 H                     0.090045
     48 H                     0.100494
     49 C                    -0.177585
     50 H                     0.090025
     51 C                    -0.324976
     52 H                     0.100956
     53 H                     0.100602
     54 H                     0.106286
     55 H                     0.091196
     56 C                     0.261883
     57 C                    -0.107546
     58 N                    -0.455292
     59 C                    -0.053307
     60 C                     0.094476
     61 C                    -0.000587
     62 C                    -0.067100
     63 C                     0.076805
     64 C                     0.251591
     65 N                    -0.530666
     66 N                    -0.521688
     67 C                     0.184814
     68 C                     0.329612
     69 S                     0.608349
     70 N                    -0.545602
     71 C                    -0.244057
     72 S                     0.342091
     73 C                    -0.077824
     74 C                    -0.205080
     75 S                     0.286085
     76 C                     0.104170
     77 C                     0.029578
     78 C                    -0.301963
     79 C                    -0.072052
     80 N                    -0.408952
     81 S                     0.289256
     82 C                     0.134966
     83 C                    -0.326478
     84 C                    -0.234863
     85 H                     0.093313
     86 H                     0.105071
     87 H                     0.105019
     88 H                     0.119435
     89 H                     0.118355
     90 H                     0.121358
     91 H                     0.125972
     92 H                     0.142556
     93 H                     0.098802
     94 C                    -0.184319
     95 H                     0.118082
     96 H                     0.106021
     97 H                     0.094618
     98 C                    -0.175709
     99 H                     0.097383
    100 C                    -0.179924
    101 H                     0.085096
    102 H                     0.084237
    103 H                     0.094892
    104 C                    -0.162781
    105 H                     0.093302
    106 C                    -0.332475
    107 H                     0.099838
    108 H                     0.109402
    109 H                     0.088317
    110 H                     0.104621
  ----------------------------------------
  Sum of atomic charges =     0.000000

                    Cartesian Multipole Moments
 -----------------------------------------------------------------
    Charge (ESU x 10^10)
                 0.0000
    Dipole Moment (Debye)
         X      -0.3811      Y      -0.1254      Z      -2.0601
       Tot       2.0988
    Quadrupole Moments (Debye-Ang)
        XX    -428.1405     XY      19.9632     YY    -378.1280
        XZ     -10.3445     YZ      -5.7097     ZZ    -448.0363

 Total job time:  85.44s(wall), 919.87s(cpu)
        *  Thank you very much for using Q-Chem.  Have a nice day.  *
