 Q-Chem 4.4, Q-Chem, Inc., Pleasanton, CA (2016)
 Q-Chem 4.4.2 for Intel X86 Linux

User input:
--------------------------------------------------------------
$comment
SP
$end

$rem
MEM_STATIC 5000
MEM_TOTAL 20000
JOBTYPE SP
EXCHANGE B3LYP
BASIS 6-31g(d,p)
$end

$molecule
0 1
C          -8.279000    -15.364000     -6.257000
C          -7.573000    -14.737000     -5.218000
N          -9.618000    -15.737000     -6.101000
C          -8.198000    -14.393000     -3.978000
C         -10.179000    -15.354000     -4.880000
C          -9.548000    -14.703000     -3.794000
C         -10.243000    -14.298000     -2.543000
C          -9.680000    -14.324000     -1.264000
C         -11.621000    -13.991000     -2.548000
N         -10.384000    -14.140000     -0.128000
N         -12.310000    -13.764000     -3.659000
C         -12.354000    -13.678000     -1.409000
C         -11.707000    -13.806000     -0.168000
S         -13.766000    -13.265000     -3.220000
N         -13.614000    -13.233000     -1.613000
C         -12.466000    -13.804000      1.074000
S         -13.948000    -14.737000      1.326000
C         -12.006000    -13.493000      2.305000
C         -14.059000    -14.142000      3.026000
S         -10.397000    -12.747000      2.750000
C         -12.842000    -13.632000      3.376000
C         -15.045000    -14.619000      3.998000
C         -11.022000    -12.488000      4.376000
C         -12.284000    -12.969000      4.573000
N         -14.807000    -14.451000      5.306000
S         -16.553000    -15.202000      3.472000
C         -15.994000    -14.762000      5.982000
C         -16.945000    -15.287000      5.133000
C          -7.548000    -15.755000     -7.584000
H          -6.522000    -14.501000     -5.356000
H          -7.548000    -14.043000     -3.183000
H         -11.185000    -15.743000     -4.726000
H          -8.609000    -14.497000     -1.162000
H         -10.371000    -12.092000      5.144000
H         -12.755000    -12.827000      5.539000
H         -16.071000    -14.611000      7.050000
H         -17.961000    -15.541000      5.404000
H          -6.708000    -16.394000     -7.286000
C          -7.128000    -14.619000     -8.534000
H          -8.148000    -16.540000     -8.061000
H          -7.451000    -14.977000     -9.519000
H          -6.046000    -14.594000     -8.711000
C          -7.838000    -13.266000     -8.413000
H          -7.907000    -12.851000     -9.426000
C          -6.908000    -12.253000     -7.686000
H          -8.837000    -13.243000     -7.960000
H          -5.856000    -12.424000     -7.945000
H          -6.876000    -12.423000     -6.603000
C          -7.180000    -10.813000     -8.137000
H          -6.886000    -10.739000     -9.191000
C          -6.374000     -9.784000     -7.333000
H          -8.228000    -10.488000     -8.145000
H          -6.454000    -10.106000     -6.288000
H          -6.731000     -8.747000     -7.309000
H          -5.313000     -9.850000     -7.606000
C         -13.687000     -6.158000     -9.296000
C         -12.573000     -6.486000     -8.512000
N         -14.205000     -7.077000    -10.209000
C         -11.944000     -7.685000     -8.658000
C         -13.634000     -8.254000    -10.301000
C         -12.510000     -8.641000     -9.555000
C         -11.882000     -9.959000     -9.721000
C         -11.321000    -10.441000    -10.940000
C         -11.902000    -10.897000     -8.650000
N         -10.864000    -11.688000    -11.117000
N         -12.384000    -10.631000     -7.446000
C         -11.330000    -12.151000     -8.859000
C         -10.819000    -12.565000    -10.126000
S         -12.044000    -12.015000     -6.573000
N         -11.372000    -12.907000     -7.760000
C         -10.537000    -13.958000    -10.422000
S         -10.837000    -15.297000     -9.236000
C         -10.032000    -14.464000    -11.558000
C         -10.242000    -16.454000    -10.418000
S          -9.241000    -13.561000    -12.864000
C          -9.821000    -15.800000    -11.532000
C          -9.945000    -17.856000    -10.053000
C          -8.606000    -15.109000    -13.446000
C          -9.005000    -16.191000    -12.622000
N          -9.101000    -18.530000    -10.856000
S         -10.474000    -18.495000     -8.547000
C          -8.947000    -19.760000    -10.222000
C          -9.677000    -19.956000     -9.128000
C         -14.504000     -4.865000     -9.100000
H         -12.175000     -5.705000     -7.872000
H         -11.112000     -8.035000     -8.053000
H         -13.989000     -8.983000    -11.028000
H         -11.582000     -9.921000    -11.861000
H          -7.985000    -15.229000    -14.324000
H          -8.707000    -17.204000    -12.866000
H          -8.405000    -20.520000    -10.769000
H          -9.612000    -20.797000     -8.450000
H         -13.751000     -4.100000     -9.323000
C         -15.092000     -4.691000     -7.639000
H         -15.244000     -4.911000     -9.909000
H         -15.536000     -3.688000     -7.621000
H         -14.237000     -4.575000     -6.961000
C         -16.095000     -5.801000     -7.113000
H         -16.467000     -5.408000     -6.159000
C         -15.378000     -7.167000     -6.959000
H         -16.916000     -5.958000     -7.824000
H         -14.323000     -7.197000     -6.657000
H         -15.392000     -7.708000     -7.913000
C         -16.046000     -8.021000     -5.835000
H         -15.412000     -8.911000     -5.744000
C         -17.460000     -8.434000     -6.191000
H         -15.936000     -7.479000     -4.887000
H         -17.608000     -8.489000     -7.277000
H         -18.235000     -7.833000     -5.700000
H         -17.719000     -9.419000     -5.784000
$end

--------------------------------------------------------------

             Standard Nuclear Orientation (Angstroms)
    I     Atom           X                Y                Z
 ----------------------------------------------------------------
    1      C      -1.5668642140     3.6153028402     1.4589254918
    2      C      -0.7912571181     3.4493534237     2.6173642791
    3      N      -1.0493400951     3.3236388016     0.1926368695
    4      C       0.5363617257     2.9185659297     2.5698896336
    5      C       0.2407878160     2.7875197989     0.2125714591
    6      C       1.0788480168     2.5677002777     1.3309150906
    7      C       2.4301013216     1.9508698127     1.2555116179
    8      C       3.5233380524     2.3060282479     2.0506103139
    9      C       2.7501325120     1.0330446648     0.2316292834
   10      N       4.7828739528     1.8736395119     1.8347925745
   11      N       1.8353906065     0.4505003827    -0.5328708185
   12      C       4.0100150581     0.4735081547     0.0522027979
   13      C       5.0531765978     0.9559836343     0.8609706347
   14      S       2.5886685488    -0.6495881019    -1.4183287043
   15      N       4.0977162076    -0.5211028138    -0.8590043848
   16      C       6.4427883360     0.6638008598     0.5411934572
   17      S       7.1319351483     0.8036358461    -1.0823335206
   18      C       7.4899630313     0.6710437086     1.3938684824
   19      C       8.7540554889     0.3173894851    -0.4589266894
   20      S       7.4552742602     0.7926514513     3.2179929974
   21      C       8.7449109563     0.4578962531     0.8989625644
   22      C       9.9773220791     0.3264467437    -1.2639396181
   23      C       9.1616923133     0.3572708165     3.2307652623
   24      C       9.7075644533     0.1991195633     1.9898680917
   25      N      11.1658342366     0.3595750085    -0.6458187807
   26      S       9.8958730787     0.1043032970    -2.9475807168
   27      C      12.1417158751     0.1122437590    -1.6200611943
   28      C      11.6034865795     0.0833543434    -2.8890378005
   29      C      -3.0015911498     4.2326621860     1.5516458121
   30      H      -1.2081227439     3.7274943705     3.5807965101
   31      H       1.1120029995     2.9574962165     3.4886641198
   32      H       0.6734249122     2.6661994864    -0.7799906421
   33      H       3.3642111344     2.9667644513     2.9023616236
   34      H       9.7075173315     0.3546960791     4.1648473895
   35      H      10.7474513876    -0.0958822389     1.9075874713
   36      H      13.1796866977    -0.0002852946    -1.3384448176
   37      H      12.1411586785    -0.1554282386    -3.7968398673
   38      H      -2.8775984395     5.2060447196     2.0414184645
   39      C      -4.1110153022     3.3782330792     2.1908053787
   40      H      -3.2498571957     4.6174684076     0.5546291912
   41      H      -4.9519621626     3.4897972235     1.4957659411
   42      H      -4.5571754759     3.8548182260     3.0719896371
   43      C      -3.9184280119     1.8588667431     2.2523364452
   44      H      -4.9097841224     1.4069359369     2.1253458598
   45      C      -3.5299250041     1.4413316436     3.6995157201
   46      H      -3.2307287318     1.3936015486     1.5351635240
   47      H      -4.0325801492     2.0722176203     4.4427160225
   48      H      -2.4804620847     1.6636819601     3.9275528171
   49      C      -4.0064114020     0.0205682202     4.0241339686
   50      H      -5.1029668176     0.0374270316     4.0346221113
   51      C      -3.5135208841    -0.4651998297     5.3937986499
   52      H      -3.7740768337    -0.7583399387     3.2870344311
   53      H      -2.4607551469    -0.1634912053     5.4463839006
   54      H      -3.4795302719    -1.5454781034     5.5815151638
   55      H      -4.0399943075     0.0766292077     6.1899475234
   56      C      -3.8357140468    -7.1986794533     0.3900342945
   57      C      -3.3360651297    -6.3449386781     1.3823616843
   58      N      -4.5149634973    -6.6804240141    -0.7129097130
   59      C      -3.5440799194    -5.0006547061     1.3176434505
   60      C      -4.6579182964    -5.3798940739    -0.8024630496
   61      C      -4.1929298749    -4.4714774421     0.1609818066
   62      C      -4.4108691860    -3.0238470180     0.0347573559
   63      C      -5.6914872819    -2.4003705167    -0.0308196576
   64      C      -3.3010253161    -2.1496899767    -0.1423896217
   65      N      -5.8822434419    -1.0961854605    -0.2714447322
   66      N      -2.0383058290    -2.5465046523    -0.1145757724
   67      C      -3.5511812009    -0.7870403372    -0.2972734274
   68      C      -4.8706613972    -0.2495183003    -0.3858627680
   69      S      -1.1762863771    -1.1207629606    -0.2463638337
   70      N      -2.4227066650    -0.0821274198    -0.4009266989
   71      C      -5.1207707399     1.0948570445    -0.8733966120
   72      S      -3.7985203576     2.1970673586    -1.4446262944
   73      C      -6.3053420314     1.7175992719    -0.9760609847
   74      C      -5.0003602631     3.4333671570    -1.7865936174
   75      S      -7.8340700402     1.2238081849    -0.2238063485
   76      C      -6.2313036317     2.9954995350    -1.4137620619
   77      C      -4.6160492789     4.8278120210    -2.0945978198
   78      C      -8.4373917809     2.8553433610    -0.5589911424
   79      C      -7.4589363359     3.6653508813    -1.1878104799
   80      N      -5.5522833531     5.7754630226    -1.9026490310
   81      S      -2.9808745532     5.2225647421    -2.4503672754
   82      C      -4.8855464748     6.9654611899    -2.1818233438
   83      C      -3.6308477805     6.8535391424    -2.6076832290
   84      C      -3.5391462135    -8.7114223573     0.3524786474
   85      H      -2.8792159619    -6.8124074917     2.2488065735
   86      H      -3.1440984928    -4.2694318953     2.0148357191
   87      H      -5.2135298459    -4.9426842020    -1.6307977247
   88      H      -6.5536131733    -3.0301029775    -0.2474713946
   89      H      -9.4320092337     3.2060555553    -0.3167885839
   90      H      -7.6920356181     4.6850953174    -1.4711742209
   91      H      -5.4919411762     7.8607045053    -2.2192114745
   92      H      -2.9289616067     7.6612505782    -2.7693867713
   93      H      -4.0031655008    -9.0439316632     1.2884736594
   94      C      -1.9947127226    -9.0632786118     0.3142246496
   95      H      -4.1288165874    -9.0612755759    -0.5043110441
   96      H      -1.9419116630   -10.1547582064     0.4109373313
   97      H      -1.5658220967    -8.7280792042     1.2670411000
   98      C      -1.1488363710    -8.5280032519    -0.9157178234
   99      H      -0.1647708159    -8.9983730545    -0.8003218441
  100      C      -1.0769650165    -6.9792923327    -0.9062311409
  101      H      -1.6150106751    -8.8128568357    -1.8674273138
  102      H      -1.0501006298    -6.4414793374     0.0504111573
  103      H      -1.9521158056    -6.5597192437    -1.4171739160
  104      C       0.2413802549    -6.4805988500    -1.5786793216
  105      H       0.2370224608    -5.3937139754    -1.4337680421
  106      C       0.2871122888    -6.7994074091    -3.0595475411
  107      H       1.0863985288    -6.8562983303    -0.9876107830
  108      H      -0.7186897819    -6.8780823796    -3.4914010390
  109      H       0.9105742425    -7.6668902025    -3.3078936617
  110      H       0.8205583086    -6.0312963826    -3.6326058234
 ----------------------------------------------------------------

   10   -5663.4820301962      8.76E-06 Convergence criterion met
 Total energy in the final basis set = -5663.4820301962

                    Orbital Energies (a.u.)
 --------------------------------------------------------------

 Alpha MOs
 -- Occupied --
-88.995 -88.981 -88.932 -88.926 -88.925 -88.917 -88.905 -88.902
-14.392 -14.384 -14.383 -14.377 -14.357 -14.347 -14.346 -14.342
-14.342 -14.326 -10.269 -10.267 -10.265 -10.257 -10.256 -10.256
-10.248 -10.246 -10.246 -10.242 -10.239 -10.238 -10.235 -10.235
-10.234 -10.232 -10.231 -10.231 -10.229 -10.228 -10.228 -10.224
-10.222 -10.221 -10.220 -10.220 -10.219 -10.219 -10.218 -10.216
-10.210 -10.206 -10.205 -10.204 -10.198 -10.195 -10.193 -10.189
-10.188 -10.188 -10.188 -10.181 -10.179 -10.175 -10.174 -10.171
-10.169 -10.169 -10.165 -10.164  -8.051  -8.036  -7.995  -7.987
 -7.984  -7.975  -7.964  -7.962  -6.016  -6.010  -6.009  -6.002
 -5.996  -5.994  -5.958  -5.955  -5.952  -5.951  -5.949  -5.948
 -5.945  -5.944  -5.940  -5.939  -5.935  -5.931  -5.928  -5.927
 -5.925  -5.923  -5.920  -5.918  -1.058  -1.035  -0.969  -0.964
 -0.960  -0.959  -0.933  -0.925  -0.918  -0.914  -0.913  -0.904
 -0.840  -0.838  -0.834  -0.827  -0.819  -0.815  -0.807  -0.803
 -0.802  -0.801  -0.799  -0.793  -0.780  -0.779  -0.769  -0.762
 -0.749  -0.745  -0.737  -0.733  -0.727  -0.721  -0.709  -0.704
 -0.697  -0.685  -0.678  -0.670  -0.660  -0.653  -0.649  -0.639
 -0.638  -0.632  -0.629  -0.623  -0.614  -0.613  -0.598  -0.597
 -0.595  -0.583  -0.581  -0.579  -0.579  -0.575  -0.568  -0.553
 -0.553  -0.551  -0.545  -0.536  -0.531  -0.520  -0.513  -0.509
 -0.509  -0.504  -0.500  -0.491  -0.488  -0.487  -0.481  -0.474
 -0.471  -0.469  -0.468  -0.464  -0.461  -0.454  -0.451  -0.443
 -0.441  -0.439  -0.439  -0.435  -0.434  -0.430  -0.428  -0.426
 -0.425  -0.422  -0.421  -0.421  -0.420  -0.418  -0.413  -0.411
 -0.410  -0.407  -0.401  -0.401  -0.400  -0.398  -0.396  -0.395
 -0.393  -0.392  -0.391  -0.390  -0.389  -0.385  -0.385  -0.382
 -0.381  -0.379  -0.375  -0.371  -0.362  -0.357  -0.357  -0.354
 -0.352  -0.350  -0.346  -0.344  -0.343  -0.342  -0.339  -0.338
 -0.336  -0.335  -0.331  -0.329  -0.329  -0.326  -0.322  -0.318
 -0.318  -0.312  -0.311  -0.306  -0.305  -0.301  -0.299  -0.295
 -0.292  -0.290  -0.289  -0.288  -0.288  -0.287  -0.285  -0.280
 -0.279  -0.269  -0.267  -0.264  -0.256  -0.252  -0.251  -0.248
 -0.245  -0.241  -0.237  -0.230  -0.198  -0.189

          Ground-State Mulliken Net Atomic Charges

     Atom                 Charge (a.u.)
  ----------------------------------------
      1 C                     0.257707
      2 C                    -0.104094
      3 N                    -0.479951
      4 C                    -0.094436
      5 C                     0.085928
      6 C                     0.059632
      7 C                     0.070285
      8 C                     0.060063
      9 C                     0.204744
     10 N                    -0.498089
     11 N                    -0.541981
     12 C                     0.180446
     13 C                     0.251801
     14 S                     0.611119
     15 N                    -0.537499
     16 C                    -0.193123
     17 S                     0.288367
     18 C                    -0.102547
     19 C                    -0.252600
     20 S                     0.244610
     21 C                     0.167060
     22 C                     0.074936
     23 C                    -0.289472
     24 C                    -0.051027
     25 N                    -0.439114
     26 S                     0.296700
     27 C                     0.114450
     28 C                    -0.304849
     29 C                    -0.242368
     30 H                     0.095219
     31 H                     0.103183
     32 H                     0.108329
     33 H                     0.111061
     34 H                     0.130717
     35 H                     0.122438
     36 H                     0.120150
     37 H                     0.125450
     38 H                     0.104114
     39 C                    -0.194099
     40 H                     0.131061
     41 H                     0.117464
     42 H                     0.096736
     43 C                    -0.197413
     44 H                     0.106009
     45 C                    -0.174663
     46 H                     0.128165
     47 H                     0.087081
     48 H                     0.085010
     49 C                    -0.182998
     50 H                     0.099399
     51 C                    -0.322101
     52 H                     0.084802
     53 H                     0.098331
     54 H                     0.097538
     55 H                     0.102062
     56 C                     0.238659
     57 C                    -0.097136
     58 N                    -0.475899
     59 C                    -0.049949
     60 C                     0.089080
     61 C                     0.035189
     62 C                    -0.049192
     63 C                     0.054838
     64 C                     0.279448
     65 N                    -0.516316
     66 N                    -0.574824
     67 C                     0.194062
     68 C                     0.335072
     69 S                     0.592450
     70 N                    -0.566518
     71 C                    -0.217784
     72 S                     0.354397
     73 C                    -0.127106
     74 C                    -0.266167
     75 S                     0.275271
     76 C                     0.190957
     77 C                     0.070861
     78 C                    -0.308146
     79 C                    -0.071793
     80 N                    -0.445834
     81 S                     0.296687
     82 C                     0.124169
     83 C                    -0.300711
     84 C                    -0.226802
     85 H                     0.086465
     86 H                     0.103554
     87 H                     0.096624
     88 H                     0.114607
     89 H                     0.125692
     90 H                     0.124442
     91 H                     0.110234
     92 H                     0.121868
     93 H                     0.104965
     94 C                    -0.189267
     95 H                     0.122149
     96 H                     0.092825
     97 H                     0.093674
     98 C                    -0.164368
     99 H                     0.093529
    100 C                    -0.186250
    101 H                     0.107264
    102 H                     0.094484
    103 H                     0.111413
    104 C                    -0.185065
    105 H                     0.091566
    106 C                    -0.318110
    107 H                     0.088522
    108 H                     0.107129
    109 H                     0.101301
    110 H                     0.094049
  ----------------------------------------
  Sum of atomic charges =     0.000000

                    Cartesian Multipole Moments
 -----------------------------------------------------------------
    Charge (ESU x 10^10)
                 0.0000
    Dipole Moment (Debye)
         X       3.6055      Y       1.8589      Z       1.1075
       Tot       4.2050
    Quadrupole Moments (Debye-Ang)
        XX    -429.9821     XY     -20.5060     YY    -430.9128
        XZ     -25.6532     YZ      -7.7568     ZZ    -430.3251

 Total job time:  112.95s(wall), 1253.84s(cpu)
        *  Thank you very much for using Q-Chem.  Have a nice day.  *
