 Q-Chem 4.4, Q-Chem, Inc., Pleasanton, CA (2016)
 Q-Chem 4.4.2 for Intel X86 Linux

User input:
--------------------------------------------------------------
$comment
SP
$end

$rem
MEM_STATIC 5000
MEM_TOTAL 20000
JOBTYPE SP
EXCHANGE B3LYP
BASIS 6-31g(d,p)
$end

$molecule
0 1
C          15.276000      8.453000     -3.146000
C          14.006000      9.084000     -3.257000
N          16.464000      9.031000     -3.022000
C          14.049000     10.520000     -3.144000
C          16.358000     10.352000     -2.907000
C          15.236000     11.203000     -2.972000
C          15.362000     12.634000     -2.726000
C          16.407000     13.421000     -3.280000
C          14.291000     13.429000     -2.104000
N          16.465000     14.752000     -3.160000
N          13.142000     12.986000     -1.626000
C          14.338000     14.829000     -2.091000
C          15.468000     15.440000     -2.605000
S          12.290000     14.187000     -0.995000
N          13.289000     15.365000     -1.568000
C          15.669000     16.923000     -2.728000
S          14.400000     18.157000     -2.410000
C          16.798000     17.584000     -3.233000
C          15.343000     19.488000     -2.946000
S          18.359000     17.064000     -3.656000
C          16.563000     18.978000     -3.320000
C          14.839000     20.760000     -3.300000
C          18.730000     18.745000     -4.166000
C          17.655000     19.595000     -4.013000
N          15.635000     21.737000     -3.690000
S          13.086000     21.198000     -3.222000
C          14.923000     22.903000     -3.925000
C          13.549000     22.797000     -3.698000
C          15.266000      7.019000     -3.254000
H          13.067000      8.616000     -3.536000
H          13.071000     10.993000     -3.162000
H          17.298000     10.865000     -2.707000
H          17.222000     12.900000     -3.780000
H          19.661000     18.966000     -4.672000
H          17.782000     20.651000     -4.222000
H          15.513000     23.737000     -4.284000
H          12.825000     23.601000     -3.677000
H          16.217000      6.514000     -3.040000
C          14.820000      6.619000     -4.671000
H          14.523000      6.634000     -2.545000
H          15.223000      7.221000     -5.496000
H          13.743000      6.781000     -4.800000
C          15.102000      5.108000     -5.031000
H          16.158000      4.812000     -5.010000
C          14.495000      4.661000     -6.349000
H          14.770000      4.463000     -4.209000
H          13.398000      4.673000     -6.351000
H          14.945000      3.671000     -6.490000
C          14.888000      5.402000     -7.600000
H          14.549000      6.446000     -7.612000
C          14.341000      4.771000     -8.915000
H          15.983000      5.443000     -7.648000
H          13.255000      4.919000     -8.963000
H          14.634000      3.726000     -9.074000
H          14.708000      5.373000     -9.755000
C          20.737000     18.281000     -0.759000
C          20.687000     19.469000     -1.555000
N          19.761000     17.990000      0.085000
C          19.611000     20.337000     -1.486000
C          18.733000     18.799000      0.163000
C          18.546000     20.009000     -0.615000
C          17.319000     20.790000     -0.459000
C          16.109000     20.204000     -0.049000
C          17.307000     22.229000     -0.608000
N          14.990000     20.916000      0.073000
N          18.389000     23.031000     -0.812000
C          16.139000     22.949000     -0.389000
C          14.952000     22.303000     -0.083000
S          17.883000     24.529000     -0.893000
N          16.274000     24.273000     -0.533000
C          13.600000     22.937000     -0.091000
S          13.299000     24.655000     -0.341000
C          12.421000     22.277000      0.001000
C          11.582000     24.424000     -0.226000
S          12.138000     20.597000      0.393000
C          11.300000     23.073000     -0.022000
C          10.567000     25.420000     -0.154000
C          10.400000     21.031000      0.512000
C          10.146000     22.360000      0.309000
N          11.033000     26.662000     -0.022000
S           8.826000     25.206000     -0.393000
C           9.951000     27.508000     -0.252000
C           8.728000     26.887000     -0.479000
C          21.917000     17.358000     -0.753000
H          21.530000     19.627000     -2.222000
H          19.585000     21.275000     -2.032000
H          17.899000     18.549000      0.817000
H          15.950000     19.130000      0.032000
H           9.718000     20.251000      0.825000
H           9.134000     22.749000      0.347000
H          10.167000     28.568000     -0.241000
H           7.709000     27.244000     -0.543000
H          22.770000     18.046000     -0.793000
C          22.071000     16.353000     -1.950000
H          21.994000     16.942000      0.259000
H          23.067000     15.895000     -1.931000
H          21.873000     16.794000     -2.935000
C          21.073000     15.170000     -1.782000
H          21.048000     14.763000     -0.763000
C          21.333000     14.061000     -2.786000
H          20.065000     15.591000     -1.872000
H          22.416000     13.891000     -2.806000
H          20.999000     14.362000     -3.787000
C          20.529000     12.737000     -2.388000
H          21.175000     12.347000     -1.592000
C          20.363000     11.697000     -3.509000
H          19.576000     13.110000     -1.991000
H          21.319000     11.710000     -4.047000
H          19.611000     12.013000     -4.242000
H          20.249000     10.706000     -3.053000
$end

--------------------------------------------------------------

             Standard Nuclear Orientation (Angstroms)
    I     Atom           X                Y                Z
 ----------------------------------------------------------------
    1      C       9.0574545723     1.8174169323    -1.1497768799
    2      C       8.2434577846     2.9555135191    -0.8937936993
    3      N       8.6993842643     0.5398234040    -1.1312180297
    4      C       6.8548602524     2.6474408213    -0.6622724124
    5      C       7.3921655878     0.3988989990    -0.9291743614
    6      C       6.3852147595     1.3495712621    -0.6653898323
    7      C       4.9859151904     0.9547797156    -0.5641310024
    8      C       4.5597239569    -0.1892137774     0.1624706220
    9      C       3.8817642217     1.8340412520    -0.9809040688
   10      N       3.2724982985    -0.4932829387     0.3622631383
   11      N       3.9779458218     3.0212371060    -1.5520862674
   12      C       2.5515850606     1.5331556498    -0.6607958779
   13      C       2.2999270068     0.3357788322    -0.0147510028
   14      S       2.5252693582     3.6112630852    -1.8808208655
   15      N       1.7217861544     2.4423545307    -1.0429178088
   16      C       0.9510852343    -0.1252185221     0.4573997276
   17      S      -0.5381640294     0.8827861487     0.4399579879
   18      C       0.6494291023    -1.3311011319     1.1065820668
   19      C      -1.5067576449    -0.2605795397     1.2781985921
   20      S       1.5364914425    -2.7507340401     1.3960864890
   21      C      -0.7044992305    -1.3493015054     1.5220057250
   22      C      -2.7323699932     0.0198425562     1.9236083997
   23      C       0.1207686278    -3.3969340725     2.2914391738
   24      C      -0.9272596930    -2.5022377531     2.3432960422
   25      N      -3.4247211579    -0.9215552572     2.5357072655
   26      S      -3.4966846186     1.6587725142     1.9494685323
   27      C      -4.6158683446    -0.4230223615     3.0400467656
   28      C      -4.8248641005     0.9355254219     2.7924388208
   29      C      10.4491554829     2.0924809413    -1.3856335447
   30      H       8.5793152654     3.9756445211    -0.7353055563
   31      H       6.2246134296     3.5231181558    -0.5337611365
   32      H       7.0319743225    -0.6267628427    -1.0002309499
   33      H       5.3260407709    -0.8723262753     0.5254883291
   34      H       0.2021483424    -4.3284048888     2.8367624361
   35      H      -1.8624384892    -2.8090961517     2.7974155665
   36      H      -5.2175541330    -1.1375259448     3.5877655269
   37      H      -5.7325107351     1.4998250605     2.9620752099
   38      H      11.0591831119     1.2401543266    -1.7121724149
   39      C      11.0777587565     2.6681263870    -0.1048934285
   40      H      10.5121337730     2.8597428745    -2.1668491748
   41      H      10.7711069721     2.2007795179     0.8400878343
   42      H      10.7516312776     3.7025904095     0.0573996822
   43      C      12.6563580143     2.6818757775    -0.1138565546
   44      H      13.1316053743     1.6973118671    -0.2031137846
   45      C      13.2765877251     3.4196699594     1.0593258059
   46      H      13.0180333697     3.0874205089    -1.0660421500
   47      H      13.0602411703     4.4951886916     1.0625853997
   48      H      14.3384106990     3.1637860443     0.9616713439
   49      C      12.9347524182     2.9564343491     2.4511204719
   50      H      11.8778541034     3.1004891271     2.7103793641
   51      C      13.7410963682     3.6685506117     3.5777503415
   52      H      13.1118077708     1.8755508851     2.5090198602
   53      H      13.4077570418     4.7106854358     3.6580242590
   54      H      14.8302090497     3.5776990227     3.4842914953
   55      H      13.4312027655     3.2372545461     4.5372515967
   56      C       0.1448581505    -5.4403310571    -1.1254223186
   57      C      -0.8125475690    -5.5703833562    -0.0699979074
   58      N       0.0430413516    -4.4674364005    -2.0157606401
   59      C      -1.8583535650    -4.6741232409     0.0677287218
   60      C      -0.9395767842    -3.6080306396    -1.9007287435
   61      C      -1.9478197852    -3.6083231290    -0.8577527296
   62      C      -2.9591594129    -2.5519270615    -0.8254184449
   63      C      -2.7220844909    -1.2757373879    -1.3646135844
   64      C      -4.2998262486    -2.7945122749    -0.3387657454
   65      N      -3.6394354325    -0.3113495476    -1.3154979708
   66      N      -4.8150129415    -3.9936107755     0.0514770730
   67      C      -5.2566012753    -1.7878872472    -0.3820393168
   68      C      -4.9337165145    -0.5186349300    -0.8344384618
   69      S      -6.3203140856    -3.7647548349     0.4854061270
   70      N      -6.4611766056    -2.1542284061     0.0726357639
   71      C      -5.7899428542     0.6947480757    -0.6779068780
   72      S      -7.4273966648     0.6900383936    -0.0272550226
   73      C      -5.4023033774     1.9684881753    -0.9257511733
   74      C      -7.5552075339     2.4133430370    -0.1962535073
   75      S      -3.9435472844     2.5334690836    -1.7061230298
   76      C      -6.3663763799     2.9262370674    -0.7158314136
   77      C      -8.7124373182     3.2263102520    -0.0309400662
   78      C      -4.7107966968     4.1565117442    -1.7210180294
   79      C      -5.9792084902     4.1740888587    -1.2083889555
   80      N      -9.8411540355     2.5370594523     0.1366186013
   81      S      -8.7784223414     4.9863245358     0.1479277554
   82      C     -10.7973730300     3.4569065154     0.5595448537
   83      C     -10.3808060437     4.7814056874     0.6307690710
   84      C       1.2451294090    -6.4322055321    -1.3489244070
   85      H      -0.6499843400    -6.3965977922     0.6166205473
   86      H      -2.6309961419    -4.7938270875     0.8209421295
   87      H      -1.0096332471    -2.7733620722    -2.5965681464
   88      H      -1.7458744334    -0.9283127200    -1.6987213869
   89      H      -4.1671373126     4.9536946264    -2.2113515142
   90      H      -6.5487207517     5.0958465056    -1.1542814286
   91      H     -11.7710043547     3.0518155127     0.8010408643
   92      H     -10.8973098264     5.7205215294     0.7763413138
   93      H       0.7576180994    -7.3931742164    -1.1453933015
   94      C       2.5120777407    -6.3462157225    -0.4248044595
   95      H       1.4205465609    -6.4787021826    -2.4306803334
   96      H       3.1311473418    -7.2423433634    -0.5506975900
   97      H       2.2838573177    -6.1866332960     0.6364961047
   98      C       3.4149518063    -5.1588254666    -0.8704947126
   99      H       3.5610538381    -5.1070798184    -1.9570542297
  100      C       4.7559842925    -5.1669269949    -0.1584109841
  101      H       2.8454977450    -4.2409408249    -0.6844440295
  102      H       5.1256107751    -6.1990058794    -0.1778645073
  103      H       4.6396295518    -4.8476038338     0.8849740326
  104      C       5.7760963940    -4.1550514833    -0.8607465517
  105      H       6.0835856923    -4.7553109522    -1.7257152803
  106      C       6.9988177116    -3.7518483799    -0.0192141180
  107      H       5.1491903191    -3.3047952912    -1.1590755327
  108      H       7.2908223205    -4.6686559061     0.5078022653
  109      H       6.7274097033    -3.0369174213     0.7668268590
  110      H       7.8168119413    -3.4808757567    -0.6977951947
 ----------------------------------------------------------------

    9   -5663.5187564127      9.21E-06 Convergence criterion met
 Total energy in the final basis set = -5663.5187564127

                    Orbital Energies (a.u.)
 --------------------------------------------------------------

 Alpha MOs
 -- Occupied --
-88.990 -88.987 -88.930 -88.922 -88.921 -88.918 -88.908 -88.907
-14.378 -14.377 -14.375 -14.373 -14.348 -14.346 -14.344 -14.341
-14.331 -14.319 -10.266 -10.265 -10.261 -10.259 -10.254 -10.253
-10.246 -10.244 -10.244 -10.240 -10.236 -10.233 -10.233 -10.232
-10.231 -10.229 -10.228 -10.228 -10.228 -10.227 -10.224 -10.224
-10.223 -10.222 -10.221 -10.220 -10.219 -10.219 -10.208 -10.207
-10.207 -10.205 -10.202 -10.202 -10.200 -10.199 -10.192 -10.190
-10.184 -10.184 -10.181 -10.179 -10.176 -10.176 -10.174 -10.174
-10.174 -10.170 -10.169 -10.163  -8.046  -8.043  -7.992  -7.981
 -7.980  -7.978  -7.968  -7.966  -6.011  -6.008  -6.005  -6.003
 -6.002  -6.000  -5.956  -5.952  -5.949  -5.945  -5.945  -5.942
 -5.941  -5.941  -5.938  -5.938  -5.937  -5.935  -5.932  -5.930
 -5.928  -5.927  -5.924  -5.922  -1.050  -1.037  -0.967  -0.963
 -0.961  -0.952  -0.947  -0.943  -0.917  -0.911  -0.906  -0.899
 -0.845  -0.844  -0.837  -0.828  -0.819  -0.813  -0.809  -0.805
 -0.801  -0.798  -0.795  -0.793  -0.790  -0.778  -0.765  -0.763
 -0.743  -0.742  -0.737  -0.736  -0.725  -0.718  -0.715  -0.710
 -0.692  -0.688  -0.679  -0.673  -0.656  -0.649  -0.647  -0.642
 -0.632  -0.629  -0.628  -0.622  -0.611  -0.603  -0.599  -0.598
 -0.592  -0.587  -0.584  -0.578  -0.576  -0.571  -0.565  -0.558
 -0.551  -0.544  -0.541  -0.538  -0.527  -0.523  -0.519  -0.510
 -0.506  -0.503  -0.500  -0.498  -0.491  -0.486  -0.480  -0.474
 -0.472  -0.469  -0.469  -0.468  -0.468  -0.458  -0.448  -0.446
 -0.441  -0.438  -0.436  -0.434  -0.433  -0.431  -0.430  -0.429
 -0.428  -0.425  -0.425  -0.420  -0.419  -0.412  -0.411  -0.410
 -0.409  -0.406  -0.405  -0.403  -0.402  -0.398  -0.397  -0.395
 -0.395  -0.393  -0.390  -0.387  -0.386  -0.386  -0.383  -0.380
 -0.377  -0.374  -0.371  -0.369  -0.363  -0.359  -0.355  -0.353
 -0.351  -0.350  -0.348  -0.346  -0.345  -0.345  -0.338  -0.337
 -0.335  -0.334  -0.331  -0.329  -0.327  -0.327  -0.326  -0.317
 -0.312  -0.310  -0.307  -0.305  -0.304  -0.300  -0.299  -0.298
 -0.297  -0.292  -0.291  -0.290  -0.287  -0.286  -0.281  -0.277
 -0.270  -0.266  -0.264  -0.263  -0.262  -0.250  -0.246  -0.245
 -0.242  -0.238  -0.227  -0.224  -0.194  -0.186

          Ground-State Mulliken Net Atomic Charges

     Atom                 Charge (a.u.)
  ----------------------------------------
      1 C                     0.279529
      2 C                    -0.112133
      3 N                    -0.466529
      4 C                    -0.092557
      5 C                     0.050676
      6 C                     0.079098
      7 C                     0.029066
      8 C                     0.063192
      9 C                     0.223914
     10 N                    -0.532465
     11 N                    -0.558295
     12 C                     0.262773
     13 C                     0.330295
     14 S                     0.592513
     15 N                    -0.600532
     16 C                    -0.248978
     17 S                     0.310182
     18 C                    -0.084046
     19 C                    -0.205461
     20 S                     0.290284
     21 C                     0.116722
     22 C                     0.067846
     23 C                    -0.302920
     24 C                    -0.058397
     25 N                    -0.450617
     26 S                     0.281285
     27 C                     0.116883
     28 C                    -0.311125
     29 C                    -0.239509
     30 H                     0.102816
     31 H                     0.107772
     32 H                     0.093752
     33 H                     0.120510
     34 H                     0.121254
     35 H                     0.124492
     36 H                     0.113103
     37 H                     0.143601
     38 H                     0.113267
     39 C                    -0.183151
     40 H                     0.107482
     41 H                     0.109805
     42 H                     0.090678
     43 C                    -0.189074
     44 H                     0.092243
     45 C                    -0.160255
     46 H                     0.088618
     47 H                     0.086952
     48 H                     0.088782
     49 C                    -0.176683
     50 H                     0.090860
     51 C                    -0.320798
     52 H                     0.090321
     53 H                     0.101583
     54 H                     0.104003
     55 H                     0.100887
     56 C                     0.282854
     57 C                    -0.125527
     58 N                    -0.477055
     59 C                    -0.041909
     60 C                     0.082806
     61 C                     0.027434
     62 C                     0.037335
     63 C                     0.064298
     64 C                     0.239200
     65 N                    -0.543092
     66 N                    -0.545666
     67 C                     0.232893
     68 C                     0.305314
     69 S                     0.601693
     70 N                    -0.596509
     71 C                    -0.218717
     72 S                     0.357296
     73 C                    -0.120920
     74 C                    -0.225434
     75 S                     0.291910
     76 C                     0.147961
     77 C                     0.051823
     78 C                    -0.313532
     79 C                    -0.079847
     80 N                    -0.426726
     81 S                     0.288733
     82 C                     0.109108
     83 C                    -0.316138
     84 C                    -0.237413
     85 H                     0.080149
     86 H                     0.115089
     87 H                     0.091032
     88 H                     0.131825
     89 H                     0.123966
     90 H                     0.111451
     91 H                     0.111454
     92 H                     0.139059
     93 H                     0.094457
     94 C                    -0.181611
     95 H                     0.120066
     96 H                     0.094779
     97 H                     0.094081
     98 C                    -0.185170
     99 H                     0.093103
    100 C                    -0.182043
    101 H                     0.121531
    102 H                     0.084283
    103 H                     0.088995
    104 C                    -0.188000
    105 H                     0.096380
    106 C                    -0.326015
    107 H                     0.101298
    108 H                     0.103220
    109 H                     0.105659
    110 H                     0.115277
  ----------------------------------------
  Sum of atomic charges =     0.000000

                    Cartesian Multipole Moments
 -----------------------------------------------------------------
    Charge (ESU x 10^10)
                 0.0000
    Dipole Moment (Debye)
         X      -1.4406      Y       3.4453      Z       2.1745
       Tot       4.3214
    Quadrupole Moments (Debye-Ang)
        XX    -423.9223     XY      -5.3821     YY    -400.5025
        XZ     -12.4327     YZ     -13.9374     ZZ    -448.8168

 Total job time:  110.07s(wall), 1174.62s(cpu)
        *  Thank you very much for using Q-Chem.  Have a nice day.  *
