 Q-Chem 4.4, Q-Chem, Inc., Pleasanton, CA (2016)
 Q-Chem 4.4.2 for Intel X86 Linux

User input:
--------------------------------------------------------------
$comment
SP
$end

$rem
MEM_STATIC 5000
MEM_TOTAL 20000
JOBTYPE SP
EXCHANGE B3LYP
BASIS 6-31g(d,p)
$end

$molecule
0 1
C          27.523000     30.063000      0.479000
C          26.341000     29.792000      1.137000
N          27.942000     29.432000     -0.659000
C          25.454000     28.844000      0.668000
C          27.079000     28.500000     -1.140000
C          25.801000     28.158000     -0.534000
C          24.812000     27.160000     -1.150000
C          25.266000     25.863000     -1.607000
C          23.433000     27.335000     -1.336000
N          24.455000     24.959000     -2.223000
N          22.887000     28.485000     -0.926000
C          22.576000     26.430000     -1.980000
C          23.177000     25.215000     -2.419000
S          21.384000     28.352000     -1.420000
N          21.360000     26.903000     -2.176000
C          22.428000     24.216000     -3.240000
S          20.737000     24.311000     -3.586000
C          22.945000     23.119000     -3.933000
C          20.794000     23.059000     -4.830000
S          24.594000     22.679000     -4.177000
C          22.092000     22.543000     -4.818000
C          19.705000     22.572000     -5.713000
C          24.032000     21.456000     -5.288000
C          22.658000     21.447000     -5.544000
N          18.496000     23.197000     -5.578000
S          19.680000     21.073000     -6.664000
C          17.613000     22.587000     -6.386000
C          18.035000     21.491000     -7.115000
C          28.544000     31.051000      1.101000
H          26.188000     30.346000      2.059000
H          24.494000     28.728000      1.164000
H          27.414000     27.890000     -1.977000
H          26.292000     25.576000     -1.384000
H          24.707000     20.769000     -5.781000
H          22.247000     20.873000     -6.366000
H          16.682000     23.112000     -6.554000
H          17.494000     20.869000     -7.816000
H          29.142000     31.598000      0.361000
C          29.471000     30.226000      2.006000
H          28.009000     31.843000      1.639000
H          29.985000     29.409000      1.484000
H          28.791000     29.750000      2.723000
C          30.574000     31.125000      2.628000
H          31.140000     31.562000      1.797000
C          31.558000     30.376000      3.539000
H          30.084000     31.898000      3.233000
H          32.258000     29.873000      2.861000
H          31.019000     29.586000      4.078000
C          32.271000     31.343000      4.470000
H          32.812000     32.091000      3.876000
C          33.107000     30.695000      5.601000
H          31.418000     31.732000      5.039000
H          32.541000     30.029000      6.264000
H          33.724000     31.457000      6.093000
H          33.790000     29.947000      5.179000
C          20.737000     18.281000     -0.759000
C          20.687000     19.469000     -1.555000
N          19.761000     17.990000      0.085000
C          19.611000     20.337000     -1.486000
C          18.733000     18.799000      0.163000
C          18.546000     20.009000     -0.615000
C          17.319000     20.790000     -0.459000
C          16.109000     20.204000     -0.049000
C          17.307000     22.229000     -0.608000
N          14.990000     20.916000      0.073000
N          18.389000     23.031000     -0.812000
C          16.139000     22.949000     -0.389000
C          14.952000     22.303000     -0.083000
S          17.883000     24.529000     -0.893000
N          16.274000     24.273000     -0.533000
C          13.600000     22.937000     -0.091000
S          13.299000     24.655000     -0.341000
C          12.421000     22.277000      0.001000
C          11.582000     24.424000     -0.226000
S          12.138000     20.597000      0.393000
C          11.300000     23.073000     -0.022000
C          10.567000     25.420000     -0.154000
C          10.400000     21.031000      0.512000
C          10.146000     22.360000      0.309000
N          11.033000     26.662000     -0.022000
S           8.826000     25.206000     -0.393000
C           9.951000     27.508000     -0.252000
C           8.728000     26.887000     -0.479000
C          21.917000     17.358000     -0.753000
H          21.530000     19.627000     -2.222000
H          19.585000     21.275000     -2.032000
H          17.899000     18.549000      0.817000
H          15.950000     19.130000      0.032000
H           9.718000     20.251000      0.825000
H           9.134000     22.749000      0.347000
H          10.167000     28.568000     -0.241000
H           7.709000     27.244000     -0.543000
H          22.770000     18.046000     -0.793000
C          22.071000     16.353000     -1.950000
H          21.994000     16.942000      0.259000
H          23.067000     15.895000     -1.931000
H          21.873000     16.794000     -2.935000
C          21.073000     15.170000     -1.782000
H          21.048000     14.763000     -0.763000
C          21.333000     14.061000     -2.786000
H          20.065000     15.591000     -1.872000
H          22.416000     13.891000     -2.806000
H          20.999000     14.362000     -3.787000
C          20.529000     12.737000     -2.388000
H          21.175000     12.347000     -1.592000
C          20.363000     11.697000     -3.509000
H          19.576000     13.110000     -1.991000
H          21.319000     11.710000     -4.047000
H          19.611000     12.013000     -4.242000
H          20.249000     10.706000     -3.053000
$end

--------------------------------------------------------------

             Standard Nuclear Orientation (Angstroms)
    I     Atom           X                Y                Z
 ----------------------------------------------------------------
    1      C       9.7560495599     2.5231478993    -0.1213805161
    2      C       8.6557794802     3.0339992561     0.5358604160
    3      N       9.7288561103     1.4453496247    -0.9618431242
    4      C       7.3987466345     2.4874293139     0.3728766038
    5      C       8.4988736420     0.8976180287    -1.1404130727
    6      C       7.2761345983     1.3753399201    -0.5125794758
    7      C       5.8897190151     0.7855477385    -0.8016780980
    8      C       5.6811556916    -0.6472934556    -0.7763511855
    9      C       4.7122099109     1.4877492370    -1.0970547473
   10      N       4.4946490474    -1.2379124761    -1.0890237870
   11      N       4.7694482366     2.8237307177    -1.1214116218
   12      C       3.4810088670     0.9078792875    -1.4377963373
   13      C       3.4414574637    -0.5162441980    -1.4164659719
   14      S       3.3128121270     3.2254212347    -1.6088436402
   15      N       2.5774379626     1.7833135570    -1.8352576068
   16      C       2.2461086794    -1.2793961209    -1.8874048494
   17      S       0.7370289618    -0.5559538554    -2.3204541472
   18      C       2.1541802993    -2.6484703581    -2.1484257414
   19      C       0.1047801825    -2.0252811797    -3.0685368265
   20      S       3.4097001622    -3.8299686172    -2.1567165696
   21      C       1.0423176148    -3.0319918357    -2.8261296937
   22      C      -1.1791659403    -2.2284577361    -3.7847634951
   23      C       2.2516929417    -4.9564132594    -2.8170465972
   24      C       0.9909156567    -4.4326270146    -3.1163484637
   25      N      -1.9733276225    -1.1233961874    -3.9214280340
   26      S      -1.9590355780    -3.7741739536    -4.1779450345
   27      C      -3.1181191390    -1.4973780562    -4.5166111532
   28      C      -3.2985697378    -2.8347227094    -4.8160904681
   29      C      11.1674003228     3.0922173521     0.1781490851
   30      H       8.8630514117     3.8597840711     1.2107876608
   31      H       6.5460047472     2.9771068927     0.8356067005
   32      H       8.4395129694    -0.0290546337    -1.7084342759
   33      H       6.4986758052    -1.2738263151    -0.4243690270
   34      H       2.5014347142    -5.9893439509    -3.0203351453
   35      H       0.2820689118    -4.9915708834    -3.7156806286
   36      H      -3.7412299392    -0.6966872163    -4.8924264132
   37      H      -4.1308655125    -3.3371688387    -5.2912721497
   38      H      11.8562810671     3.0465078491    -0.6749435016
   39      C      11.7394561953     2.2777650462     1.3479347578
   40      H      11.0934300429     4.1648380296     0.3948199873
   41      H      11.7855996976     1.1987197784     1.1537670796
   42      H      11.0055208685     2.4120793054     2.1519021800
   43      C      13.1854648697     2.7358379637     1.6809844772
   44      H      13.7877722026     2.5833870888     0.7777289168
   45      C      13.8421356675     1.9614112314     2.8334707893
   46      H      13.1509920150     3.7938844095     1.9690874813
   47      H      14.1733275319     1.0121056913     2.3954936889
   48      H      13.0779313099     1.7134640767     3.5815723254
   49      C      15.0037663129     2.7489866959     3.4170443761
   50      H      15.7453497203     2.9433683823     2.6313658096
   51      C      15.5966987055     2.1952683248     4.7360546654
   52      H      14.4740897686     3.6364466840     3.7838529474
   53      H      14.8761147548     2.1026263019     5.5580383790
   54      H      16.5342340292     2.7141360408     4.9710031919
   55      H      15.8350824124     1.1304333910     4.6203966694
   56      C      -1.5632549292    -4.6950114884     2.3624642732
   57      C      -1.1815970784    -3.9335566179     1.2126887450
   58      N      -2.4671926904    -4.2334145068     3.2106492474
   59      C      -1.7587999195    -2.7057386011     0.9383517296
   60      C      -3.0260938526    -3.0734679136     2.9667181264
   61      C      -2.7553192591    -2.2267480845     1.8203762705
   62      C      -3.4954898495    -0.9765237537     1.6503391581
   63      C      -4.7853807036    -0.7957139326     2.1786244911
   64      C      -2.8982540196     0.1843770925     1.0268934196
   65      N      -5.4627891803     0.3377809944     2.0045670115
   66      N      -1.6058736392     0.3070316743     0.6142763989
   67      C      -3.6050955446     1.3773887148     0.9392388257
   68      C      -4.9121529992     1.4645716314     1.3908148985
   69      S      -1.4169424215     1.7593761305     0.0129432336
   70      N      -2.9258283112     2.3781502971     0.3656455197
   71      C      -5.8462825512     2.5953092479     1.1101755877
   72      S      -5.3975867665     4.0861750580     0.2851809035
   73      C      -7.1762962701     2.5989013604     1.3654315458
   74      C      -7.0196637786     4.6958245922     0.3941240648
   75      S      -8.1145487631     1.4457001433     2.2851935870
   76      C      -7.8353082261     3.7572298336     1.0266626125
   77      C      -7.4864392101     6.0044017387     0.0824005522
   78      C      -9.4662601572     2.6219864869     2.1738933401
   79      C      -9.1391478215     3.7816530135     1.5257135294
   80      N      -6.5159200746     6.8770324137    -0.1891732179
   81      S      -9.1623376201     6.5259632292    -0.1485456122
   82      C      -7.1416100988     7.9936823587    -0.7377576635
   83      C      -8.5298412810     7.9476767011    -0.7977298578
   84      C      -0.9085484595    -5.9912725061     2.7304748877
   85      H      -0.4344016361    -4.3905066006     0.5697286496
   86      H      -1.4361474190    -2.0842018153     0.1087594275
   87      H      -3.8066431767    -2.7016024704     3.6287081904
   88      H      -5.3846450217    -1.5968603908     2.6080015161
   89      H     -10.3793180438     2.3740549287     2.6995816871
   90      H      -9.8705677264     4.5705397044     1.3857431335
   91      H      -6.4871446342     8.7870618319    -1.0733183394
   92      H      -9.2928629283     8.6803701263    -1.0232610319
   93      H       0.1480702224    -5.8094033941     2.5001846640
   94      C      -1.3415915121    -7.2823633894     1.9481015461
   95      H      -0.9066816592    -6.0503686187     3.8257525532
   96      H      -0.6480265722    -8.1036041866     2.1641391059
   97      H      -1.4377273355    -7.1397596643     0.8644355085
   98      C      -2.7283304136    -7.7725334226     2.4584010243
   99      H      -2.8129414120    -7.7763610409     3.5526867860
  100      C      -3.0901040427    -9.1362575626     1.8972652909
  101      H      -3.4566559537    -6.9995391275     2.1874273588
  102      H      -2.1981295848    -9.7679753862     1.9838860604
  103      H      -3.3703737742    -9.0551333161     0.8394251640
  104      C      -4.3388240036    -9.7574467478     2.6799647578
  105      H      -3.8413337643   -10.1176295124     3.5887022545
  106      C      -5.0645535167   -10.9107645325     1.9665421892
  107      H      -4.9841428491    -8.8936556498     2.8858179259
  108      H      -4.2648169044   -11.4981811254     1.4986617587
  109      H      -5.6818404443   -10.5450456944     1.1371715962
  110      H      -5.5454563834   -11.5428809663     2.7229641924
 ----------------------------------------------------------------

   10   -5663.5303810993      2.94E-06 Convergence criterion met
 Total energy in the final basis set = -5663.5303810993

                    Orbital Energies (a.u.)
 --------------------------------------------------------------

 Alpha MOs
 -- Occupied --
-88.990 -88.986 -88.935 -88.927 -88.927 -88.919 -88.915 -88.905
-14.393 -14.388 -14.377 -14.376 -14.355 -14.346 -14.345 -14.342
-14.338 -14.321 -10.278 -10.269 -10.262 -10.260 -10.258 -10.258
-10.252 -10.247 -10.245 -10.243 -10.243 -10.237 -10.235 -10.234
-10.232 -10.232 -10.232 -10.230 -10.229 -10.229 -10.228 -10.228
-10.227 -10.226 -10.223 -10.222 -10.221 -10.220 -10.217 -10.215
-10.209 -10.208 -10.206 -10.202 -10.199 -10.198 -10.198 -10.193
-10.188 -10.186 -10.183 -10.182 -10.180 -10.178 -10.176 -10.174
-10.173 -10.173 -10.172 -10.168  -8.047  -8.041  -7.995  -7.989
 -7.985  -7.978  -7.976  -7.964  -6.012  -6.006  -6.006  -6.005
 -6.000  -5.999  -5.959  -5.955  -5.953  -5.952  -5.950  -5.950
 -5.946  -5.946  -5.942  -5.942  -5.940  -5.938  -5.936  -5.935
 -5.932  -5.928  -5.925  -5.920  -1.061  -1.036  -0.966  -0.965
 -0.964  -0.947  -0.944  -0.936  -0.928  -0.922  -0.914  -0.897
 -0.852  -0.842  -0.833  -0.828  -0.817  -0.809  -0.809  -0.806
 -0.804  -0.800  -0.799  -0.793  -0.787  -0.779  -0.769  -0.763
 -0.747  -0.742  -0.741  -0.735  -0.729  -0.722  -0.711  -0.710
 -0.695  -0.688  -0.675  -0.672  -0.657  -0.650  -0.649  -0.642
 -0.635  -0.630  -0.628  -0.621  -0.611  -0.603  -0.600  -0.596
 -0.595  -0.592  -0.583  -0.581  -0.577  -0.571  -0.571  -0.568
 -0.548  -0.546  -0.542  -0.536  -0.532  -0.523  -0.520  -0.516
 -0.508  -0.504  -0.503  -0.497  -0.495  -0.486  -0.485  -0.479
 -0.475  -0.473  -0.467  -0.467  -0.465  -0.458  -0.449  -0.444
 -0.444  -0.439  -0.437  -0.435  -0.433  -0.431  -0.431  -0.429
 -0.426  -0.426  -0.424  -0.421  -0.418  -0.417  -0.414  -0.411
 -0.408  -0.405  -0.405  -0.402  -0.402  -0.399  -0.398  -0.397
 -0.396  -0.395  -0.393  -0.389  -0.387  -0.387  -0.384  -0.381
 -0.379  -0.376  -0.374  -0.372  -0.365  -0.361  -0.360  -0.358
 -0.355  -0.355  -0.350  -0.349  -0.347  -0.346  -0.343  -0.343
 -0.341  -0.337  -0.335  -0.331  -0.329  -0.328  -0.326  -0.325
 -0.320  -0.310  -0.309  -0.308  -0.304  -0.303  -0.302  -0.299
 -0.298  -0.298  -0.292  -0.291  -0.288  -0.288  -0.287  -0.284
 -0.277  -0.270  -0.264  -0.261  -0.261  -0.254  -0.248  -0.248
 -0.244  -0.242  -0.239  -0.225  -0.196  -0.188

          Ground-State Mulliken Net Atomic Charges

     Atom                 Charge (a.u.)
  ----------------------------------------
      1 C                     0.250686
      2 C                    -0.100031
      3 N                    -0.471813
      4 C                    -0.050768
      5 C                     0.081349
      6 C                     0.009100
      7 C                     0.023696
      8 C                     0.047929
      9 C                     0.174227
     10 N                    -0.532411
     11 N                    -0.515914
     12 C                     0.255158
     13 C                     0.338472
     14 S                     0.596951
     15 N                    -0.570163
     16 C                    -0.234282
     17 S                     0.358818
     18 C                    -0.117307
     19 C                    -0.232288
     20 S                     0.300182
     21 C                     0.124704
     22 C                     0.031003
     23 C                    -0.304990
     24 C                    -0.085891
     25 N                    -0.419773
     26 S                     0.282071
     27 C                     0.130706
     28 C                    -0.316958
     29 C                    -0.221199
     30 H                     0.090150
     31 H                     0.114990
     32 H                     0.103121
     33 H                     0.118103
     34 H                     0.123659
     35 H                     0.121826
     36 H                     0.113839
     37 H                     0.139014
     38 H                     0.112716
     39 C                    -0.176430
     40 H                     0.095630
     41 H                     0.112047
     42 H                     0.089800
     43 C                    -0.175593
     44 H                     0.096898
     45 C                    -0.177795
     46 H                     0.087165
     47 H                     0.089358
     48 H                     0.088693
     49 C                    -0.168357
     50 H                     0.096452
     51 C                    -0.324084
     52 H                     0.098312
     53 H                     0.103664
     54 H                     0.103742
     55 H                     0.096798
     56 C                     0.273834
     57 C                    -0.129966
     58 N                    -0.474988
     59 C                    -0.063772
     60 C                     0.078887
     61 C                     0.026966
     62 C                     0.023355
     63 C                     0.067806
     64 C                     0.229132
     65 N                    -0.541017
     66 N                    -0.540580
     67 C                     0.217276
     68 C                     0.305606
     69 S                     0.623141
     70 N                    -0.591038
     71 C                    -0.226912
     72 S                     0.364906
     73 C                    -0.115581
     74 C                    -0.217492
     75 S                     0.283852
     76 C                     0.146474
     77 C                     0.053319
     78 C                    -0.314092
     79 C                    -0.078523
     80 N                    -0.426600
     81 S                     0.290257
     82 C                     0.110026
     83 C                    -0.316421
     84 C                    -0.237167
     85 H                     0.092727
     86 H                     0.133106
     87 H                     0.090351
     88 H                     0.122985
     89 H                     0.124270
     90 H                     0.111272
     91 H                     0.110798
     92 H                     0.138425
     93 H                     0.098119
     94 C                    -0.181320
     95 H                     0.119534
     96 H                     0.094754
     97 H                     0.099164
     98 C                    -0.176304
     99 H                     0.096699
    100 C                    -0.180392
    101 H                     0.100977
    102 H                     0.085736
    103 H                     0.085426
    104 C                    -0.181692
    105 H                     0.095785
    106 C                    -0.319903
    107 H                     0.098462
    108 H                     0.103079
    109 H                     0.106210
    110 H                     0.106063
  ----------------------------------------
  Sum of atomic charges =     0.000000

                    Cartesian Multipole Moments
 -----------------------------------------------------------------
    Charge (ESU x 10^10)
                 0.0000
    Dipole Moment (Debye)
         X      -0.8010      Y       0.4195      Z      -1.7637
       Tot       1.9820
    Quadrupole Moments (Debye-Ang)
        XX    -410.8611     XY      -8.7763     YY    -410.3046
        XZ      24.1764     YZ      13.8258     ZZ    -447.9437

 Total job time:  94.40s(wall), 1020.46s(cpu)
        *  Thank you very much for using Q-Chem.  Have a nice day.  *
