 Q-Chem 4.4, Q-Chem, Inc., Pleasanton, CA (2016)
 Q-Chem 4.4.2 for Intel X86 Linux

User input:
--------------------------------------------------------------
$comment
SP
$end

$rem
MEM_STATIC 5000
MEM_TOTAL 20000
JOBTYPE SP
EXCHANGE B3LYP
BASIS 6-31g(d,p)
$end

$molecule
0 1
C           8.643000     18.493000     -6.994000
C           7.331000     18.106000     -6.943000
N           9.607000     17.570000     -6.936000
C           6.987000     16.849000     -6.563000
C           9.333000     16.266000     -6.707000
C           7.968000     15.816000     -6.454000
C           7.544000     14.406000     -6.205000
C           6.416000     14.161000     -5.473000
C           8.211000     13.240000     -6.709000
N           5.828000     12.961000     -5.267000
N           9.352000     13.250000     -7.466000
C           7.649000     11.981000     -6.509000
C           6.455000     11.864000     -5.737000
S           9.617000     11.699000     -7.782000
N           8.353000     11.019000     -7.152000
C           5.748000     10.613000     -5.444000
S           6.288000      8.973000     -5.848000
C           4.439000     10.508000     -4.812000
C           4.932000      8.230000     -4.956000
S           3.181000     11.713000     -4.381000
C           4.037000      9.192000     -4.649000
C           4.673000      6.870000     -4.717000
C           2.038000     10.409000     -4.145000
C           2.688000      9.181000     -4.288000
N           5.346000      6.058000     -5.483000
S           3.604000      6.116000     -3.644000
C           4.946000      4.701000     -5.269000
C           4.121000      4.540000     -4.194000
C           9.065000     19.878000     -7.183000
H           6.524000     18.804000     -7.148000
H           5.939000     16.585000     -6.452000
H          10.142000     15.553000     -6.559000
H           5.855000     14.927000     -4.940000
H           0.999000     10.605000     -3.917000
H           2.273000      8.191000     -4.134000
H           5.442000      3.970000     -5.893000
H           3.705000      3.607000     -3.837000
H           9.971000     19.931000     -7.800000
C           9.387000     20.601000     -5.870000
H           8.260000     20.419000     -7.696000
H          10.038000     19.963000     -5.259000
H           8.477000     20.789000     -5.286000
C           9.972000     22.066000     -6.196000
H          10.984000     22.008000     -6.617000
C           9.875000     23.090000     -5.055000
H           9.325000     22.437000     -7.000000
H          10.485000     22.611000     -4.279000
H           8.835000     23.152000     -4.714000
C          10.413000     24.502000     -5.327000
H          11.464000     24.448000     -5.637000
C          10.090000     25.453000     -4.232000
H           9.855000     24.915000     -6.176000
H          10.348000     25.117000     -3.220000
H           9.118000     25.897000     -3.984000
H          10.628000     26.405000     -4.315000
C           0.811000     12.983000    -13.708000
C           1.826000     13.313000    -14.627000
N           1.108000     12.943000    -12.415000
C           3.150000     13.497000    -14.181000
C           2.339000     13.311000    -11.982000
C           3.485000     13.471000    -12.805000
C           4.822000     13.790000    -12.367000
C           5.896000     13.477000    -13.134000
C           5.074000     14.509000    -11.123000
N           7.179000     13.697000    -12.699000
N           4.158000     15.033000    -10.281000
C           6.382000     14.627000    -10.691000
C           7.472000     14.156000    -11.498000
S           4.990000     15.523000     -8.971000
N           6.521000     15.220000     -9.429000
C           8.916000     14.371000    -11.229000
S           9.569000     15.467000     -9.992000
C           9.970000     13.732000    -11.818000
C          11.229000     15.075000    -10.371000
S           9.979000     12.430000    -13.004000
C          11.213000     14.106000    -11.427000
C          12.368000     15.865000    -10.022000
C          11.684000     12.226000    -12.788000
C          12.220000     13.227000    -11.994000
N          13.550000     15.471000    -10.273000
S          12.164000     17.286000     -9.036000
C          14.486000     16.350000     -9.723000
C          13.860000     17.475000     -9.098000
C          -0.551000     12.485000    -14.213000
H           1.588000     13.393000    -15.684000
H           3.937000     13.731000    -14.892000
H           2.505000     13.184000    -10.913000
H           5.744000     12.892000    -14.039000
H          12.297000     11.489000    -13.289000
H          13.274000     13.254000    -11.743000
H          15.531000     16.230000     -9.977000
H          14.204000     18.441000     -8.753000
H          -0.482000     12.013000    -15.201000
C          -1.724000     13.544000    -14.195000
H          -0.746000     11.631000    -13.553000
H          -1.739000     14.020000    -13.207000
H          -2.704000     13.073000    -14.339000
C          -1.436000     14.682000    -15.213000
H          -0.455000     15.167000    -15.129000
C          -2.365000     15.938000    -15.163000
H          -1.507000     14.236000    -16.212000
H          -2.270000     16.329000    -14.142000
H          -3.437000     15.726000    -15.262000
C          -2.004000     17.015000    -16.161000
H          -1.917000     17.995000    -15.675000
C          -2.962000     17.216000    -17.377000
H          -0.988000     16.884000    -16.555000
H          -2.676000     16.418000    -18.074000
H          -2.795000     18.164000    -17.904000
H          -4.043000     17.144000    -17.204000
$end

--------------------------------------------------------------

             Standard Nuclear Orientation (Angstroms)
    I     Atom           X                Y                Z
 ----------------------------------------------------------------
    1      C      -4.8597830355     0.2862408408    -2.1527903004
    2      C      -3.6585429836     0.5247263061    -2.7642320561
    3      N      -4.9351746418    -0.6213049146    -1.1754132966
    4      C      -2.6090512696    -0.3199506995    -2.5972802714
    5      C      -3.8833087575    -1.4045828445    -0.8467997761
    6      C      -2.6289936024    -1.3322545525    -1.5892256040
    7      C      -1.3997856866    -2.1326841915    -1.3095163036
    8      C      -0.5217461114    -2.3954519289    -2.3235343609
    9      C      -1.0183760215    -2.6413758810    -0.0233512938
   10      N       0.6888697928    -2.9876585403    -2.2145368290
   11      N      -1.7426383941    -2.4933191903     1.1292775414
   12      C       0.2144278225    -3.2710551852     0.1335679724
   13      C       1.0475130720    -3.4691799365    -1.0074949311
   14      S      -0.8359524079    -3.2039505111     2.2466877831
   15      N       0.4497693110    -3.5776891643     1.4316815987
   16      C       2.3664999554    -4.1102016706    -0.9995113322
   17      S       3.1476864442    -4.9059718668     0.3792248516
   18      C       3.2936419584    -4.1540005383    -2.1230857025
   19      C       4.5062895929    -5.4763205507    -0.6284203554
   20      S       3.3216450733    -3.3491940559    -3.7267852851
   21      C       4.4550109500    -4.8467148419    -1.8207647487
   22      C       5.5840188399    -6.3033267041    -0.2701432387
   23      C       4.9986696912    -3.8141560711    -3.9110670135
   24      C       5.3845581284    -4.6210432180    -2.8382407245
   25      N       5.7567697259    -6.4241298877     1.0161664916
   26      S       6.7182900043    -7.1222286593    -1.2216864659
   27      C       6.9375085306    -7.1782551606     1.3066762986
   28      C       7.4927401098    -7.7649724350     0.2068346130
   29      C      -6.0788555255     1.0287591687    -2.4602944419
   30      H      -3.5230595110     1.3608642282    -3.4446698592
   31      H      -1.6899019842    -0.1574219760    -3.1532209204
   32      H      -4.0021613762    -2.2069491968    -0.1209648831
   33      H      -0.7117291937    -2.1668760540    -3.3710196820
   34      H       5.5825805329    -3.4909309599    -4.7622395321
   35      H       6.3350129879    -5.1237590478    -2.6969843818
   36      H       7.1631204387    -7.2952636149     2.3579428151
   37      H       8.3771222411    -8.3882835426     0.1882467392
   38      H      -6.6823687128     1.1829089225    -1.5567770452
   39      C      -6.9836507514     0.3203633417    -3.4751357850
   40      H      -5.7955534429     2.0090970984    -2.8634724095
   41      H      -7.1036262809    -0.7291777758    -3.1780914871
   42      H      -6.5364592862     0.3243321915    -4.4773852757
   43      C      -8.3555915989     1.1486632725    -3.6376889628
   44      H      -8.9871448195     1.0556820622    -2.7448037384
   45      C      -9.1392530951     0.8899334124    -4.9333739241
   46      H      -8.0303870998     2.1952590255    -3.6770000752
   47      H      -9.3605395894    -0.1810036741    -4.8448129611
   48      H      -8.4791853171     1.0554946839    -5.7928068730
   49      C     -10.4487793581     1.6662509862    -5.1324819129
   50      H     -11.1264940595     1.4777355750    -4.2905901602
   51      C     -11.0136410092     1.4861988137    -6.4949310056
   52      H     -10.2100203058     2.7364246948    -5.1111195982
   53      H     -11.1111005647     0.4476875383    -6.8349309554
   54      H     -10.6492911309     1.9052102517    -7.4410296161
   55      H     -12.0367113437     1.8691010770    -6.5916261311
   56      C       5.4555230629     5.2195131913     0.3039156263
   57      C       4.6269906880     5.7110429807     1.3313486264
   58      N       5.0899821529     4.1178456887    -0.3397974750
   59      C       3.4863483515     4.9844570380     1.7272727706
   60      C       3.8931121130     3.5363304602    -0.0797664257
   61      C       3.0724416284     3.8140883426     1.0452204696
   62      C       1.8318026853     3.1625407825     1.3879664247
   63      C       1.3766833013     3.1662697708     2.6656934852
   64      C       0.9896992691     2.5297398118     0.3787955928
   65      N       0.2426396670     2.4828969244     3.0271635232
   66      N       1.1772307808     2.5264388101    -0.9581475756
   67      C      -0.0926310596     1.7834850430     0.8066704338
   68      C      -0.4463847134     1.7247697351     2.1968505894
   69      S       0.0637174170     1.5028833328    -1.5588523063
   70      N      -0.7701845088     1.1103094257    -0.2186928734
   71      C      -1.6700875036     1.1031421953     2.7624057883
   72      S      -3.0563298760     0.5326031441     1.8081462450
   73      C      -1.9138764071     0.8024828828     4.0724931703
   74      C      -3.9336204553    -0.0159259828     3.2161171383
   75      S      -0.8716817276     0.9755664700     5.4816607692
   76      C      -3.1176641620     0.2512651020     4.3638005666
   77      C      -5.3393512370    -0.2692718265     3.2705124771
   78      C      -1.9913918576     0.0671768667     6.4389353136
   79      C      -3.1675441605    -0.1797309812     5.7494171666
   80      N      -5.8885704958    -0.7368620270     4.3169725147
   81      S      -6.2942634507    -0.1547097675     1.8185926450
   82      C      -7.2362985704    -1.0165786347     4.0790131566
   83      C      -7.6361144420    -0.6362889229     2.7585386192
   84      C       6.8450709681     5.8326279155     0.0773765476
   85      H       4.8902184255     6.6357354038     1.8372617424
   86      H       2.8585758882     5.3524315253     2.5335869222
   87      H       3.7120402488     2.6037296837    -0.6126029594
   88      H       2.0088196929     3.5810681603     3.4484449645
   89      H      -1.8630049920    -0.1888758351     7.4819563233
   90      H      -3.9800079936    -0.7455418204     6.1903328208
   91      H      -7.8725823888    -1.2809560394     4.9133922613
   92      H      -8.5880802312    -0.4943061523     2.2644545889
   93      H       7.2526605823     6.2891956483     0.9879289139
   94      C       6.9681292803     6.8354549357    -1.1379129732
   95      H       7.4746539769     4.9431454457    -0.0466684884
   96      H       6.5189138343     6.3609699818    -2.0188298318
   97      H       8.0141933776     7.0505183597    -1.3878622240
   98      C       6.1280394237     8.1140816211    -0.8664818916
   99      H       5.0800351794     7.9512818125    -0.5839481301
  100      C       5.9370028518     9.1098850137    -2.0560018080
  101      H       6.6203538293     8.6452512864    -0.0434124458
  102      H       5.4617289212     8.5231885284    -2.8523992747
  103      H       6.8671371751     9.4672175508    -2.5154499537
  104      C       5.0830019047    10.3129557321    -1.7250075045
  105      H       4.2872045716    10.4526024617    -2.4675506989
  106      C       5.8047553435    11.6911342139    -1.5964888450
  107      H       4.4944397237    10.1582956812    -0.8115920307
  108      H       6.2372939011    11.6703680145    -0.5880801177
  109      H       5.1130870700    12.5427935511    -1.6208480898
  110      H       6.6086427850    11.9245538833    -2.3056815123
 ----------------------------------------------------------------

   10   -5663.5051115792      3.40E-06 Convergence criterion met
 Total energy in the final basis set = -5663.5051115792

                    Orbital Energies (a.u.)
 --------------------------------------------------------------

 Alpha MOs
 -- Occupied --
-88.988 -88.988 -88.929 -88.927 -88.918 -88.913 -88.912 -88.899
-14.388 -14.382 -14.381 -14.377 -14.346 -14.342 -14.336 -14.334
-14.328 -14.325 -10.262 -10.262 -10.260 -10.257 -10.255 -10.254
-10.254 -10.253 -10.246 -10.236 -10.235 -10.234 -10.234 -10.234
-10.233 -10.232 -10.232 -10.231 -10.230 -10.229 -10.228 -10.227
-10.224 -10.223 -10.222 -10.220 -10.219 -10.217 -10.213 -10.210
-10.209 -10.208 -10.201 -10.199 -10.198 -10.196 -10.193 -10.189
-10.189 -10.188 -10.187 -10.184 -10.183 -10.183 -10.180 -10.178
-10.177 -10.175 -10.172 -10.171  -8.044  -8.043  -7.991  -7.984
 -7.977  -7.974  -7.972  -7.960  -6.009  -6.008  -6.004  -6.003
 -6.003  -6.001  -5.955  -5.951  -5.949  -5.947  -5.945  -5.942
 -5.941  -5.938  -5.937  -5.936  -5.934  -5.934  -5.932  -5.931
 -5.928  -5.924  -5.921  -5.916  -1.050  -1.034  -0.971  -0.971
 -0.958  -0.956  -0.941  -0.936  -0.911  -0.908  -0.904  -0.897
 -0.844  -0.841  -0.836  -0.833  -0.811  -0.809  -0.807  -0.806
 -0.803  -0.800  -0.800  -0.792  -0.788  -0.778  -0.775  -0.764
 -0.752  -0.744  -0.744  -0.730  -0.721  -0.721  -0.714  -0.706
 -0.698  -0.689  -0.677  -0.666  -0.655  -0.655  -0.647  -0.643
 -0.636  -0.634  -0.625  -0.620  -0.612  -0.610  -0.603  -0.596
 -0.595  -0.592  -0.587  -0.578  -0.576  -0.574  -0.569  -0.568
 -0.546  -0.542  -0.540  -0.538  -0.521  -0.521  -0.518  -0.511
 -0.506  -0.505  -0.497  -0.496  -0.490  -0.481  -0.481  -0.477
 -0.477  -0.472  -0.471  -0.468  -0.465  -0.456  -0.452  -0.445
 -0.444  -0.442  -0.440  -0.439  -0.434  -0.433  -0.433  -0.432
 -0.429  -0.426  -0.423  -0.421  -0.418  -0.416  -0.415  -0.413
 -0.409  -0.409  -0.405  -0.404  -0.403  -0.400  -0.398  -0.396
 -0.394  -0.393  -0.390  -0.387  -0.387  -0.383  -0.382  -0.379
 -0.376  -0.371  -0.370  -0.369  -0.368  -0.363  -0.357  -0.353
 -0.352  -0.350  -0.347  -0.344  -0.343  -0.342  -0.341  -0.340
 -0.337  -0.335  -0.332  -0.332  -0.331  -0.329  -0.328  -0.321
 -0.313  -0.311  -0.311  -0.309  -0.305  -0.303  -0.300  -0.297
 -0.296  -0.293  -0.290  -0.287  -0.284  -0.280  -0.278  -0.278
 -0.276  -0.271  -0.266  -0.264  -0.258  -0.246  -0.246  -0.244
 -0.242  -0.239  -0.230  -0.229  -0.192  -0.185

          Ground-State Mulliken Net Atomic Charges

     Atom                 Charge (a.u.)
  ----------------------------------------
      1 C                     0.295294
      2 C                    -0.110952
      3 N                    -0.500809
      4 C                    -0.083670
      5 C                     0.089246
      6 C                     0.041379
      7 C                     0.078298
      8 C                     0.019907
      9 C                     0.207691
     10 N                    -0.530602
     11 N                    -0.549637
     12 C                     0.202802
     13 C                     0.324146
     14 S                     0.628510
     15 N                    -0.541493
     16 C                    -0.247103
     17 S                     0.361566
     18 C                    -0.138503
     19 C                    -0.188811
     20 S                     0.285103
     21 C                     0.168684
     22 C                     0.051402
     23 C                    -0.316989
     24 C                    -0.073963
     25 N                    -0.437343
     26 S                     0.275312
     27 C                     0.106545
     28 C                    -0.303266
     29 C                    -0.224967
     30 H                     0.085893
     31 H                     0.094502
     32 H                     0.123810
     33 H                     0.111598
     34 H                     0.140259
     35 H                     0.086489
     36 H                     0.119847
     37 H                     0.139287
     38 H                     0.121751
     39 C                    -0.182929
     40 H                     0.095879
     41 H                     0.111191
     42 H                     0.093567
     43 C                    -0.185957
     44 H                     0.090871
     45 C                    -0.172418
     46 H                     0.090006
     47 H                     0.094039
     48 H                     0.091078
     49 C                    -0.166128
     50 H                     0.099551
     51 C                    -0.330582
     52 H                     0.097283
     53 H                     0.098182
     54 H                     0.105944
     55 H                     0.096797
     56 C                     0.284529
     57 C                    -0.120365
     58 N                    -0.482053
     59 C                    -0.087125
     60 C                     0.074082
     61 C                     0.036149
     62 C                     0.067155
     63 C                     0.044885
     64 C                     0.250738
     65 N                    -0.528173
     66 N                    -0.559036
     67 C                     0.142652
     68 C                     0.314273
     69 S                     0.609964
     70 N                    -0.551056
     71 C                    -0.229885
     72 S                     0.363892
     73 C                    -0.111375
     74 C                    -0.240646
     75 S                     0.266896
     76 C                     0.132810
     77 C                     0.081447
     78 C                    -0.299602
     79 C                    -0.075148
     80 N                    -0.429457
     81 S                     0.307953
     82 C                     0.096140
     83 C                    -0.323765
     84 C                    -0.233294
     85 H                     0.089043
     86 H                     0.095779
     87 H                     0.107215
     88 H                     0.121267
     89 H                     0.127565
     90 H                     0.118984
     91 H                     0.114004
     92 H                     0.137550
     93 H                     0.099845
     94 C                    -0.182551
     95 H                     0.117778
     96 H                     0.111558
     97 H                     0.099170
     98 C                    -0.178120
     99 H                     0.101116
    100 C                    -0.178508
    101 H                     0.087667
    102 H                     0.094698
    103 H                     0.089545
    104 C                    -0.182915
    105 H                     0.093777
    106 C                    -0.323497
    107 H                     0.091008
    108 H                     0.103277
    109 H                     0.100966
    110 H                     0.103608
  ----------------------------------------
  Sum of atomic charges =     0.000000

                    Cartesian Multipole Moments
 -----------------------------------------------------------------
    Charge (ESU x 10^10)
                 0.0000
    Dipole Moment (Debye)
         X       0.4543      Y      -0.1066      Z      -1.6295
       Tot       1.6950
    Quadrupole Moments (Debye-Ang)
        XX    -397.1742     XY     -16.6573     YY    -425.1144
        XZ       6.5397     YZ      -3.4957     ZZ    -431.1533

 Total job time:  101.72s(wall), 1086.94s(cpu)
        *  Thank you very much for using Q-Chem.  Have a nice day.  *
