 Q-Chem 4.4, Q-Chem, Inc., Pleasanton, CA (2016)
 Q-Chem 4.4.2 for Intel X86 Linux

User input:
--------------------------------------------------------------
$comment
SP
$end

$rem
MEM_STATIC 5000
MEM_TOTAL 20000
JOBTYPE SP
EXCHANGE B3LYP
BASIS 6-31g(d,p)
$end

$molecule
0 1
C          24.591000     21.665000     -0.159000
C          24.856000     22.980000      0.315000
N          23.371000     21.117000     -0.173000
C          23.728000     23.720000      0.782000
C          22.300000     21.836000      0.274000
C          22.409000     23.140000      0.809000
C          21.222000     23.975000      1.213000
C          21.132000     25.374000      0.937000
C          20.114000     23.427000      1.869000
N          20.106000     26.159000      1.205000
N          19.955000     22.067000      2.118000
C          19.023000     24.213000      2.194000
C          19.064000     25.614000      1.908000
S          18.391000     21.908000      2.787000
N          18.023000     23.544000      2.714000
C          17.870000     26.475000      2.149000
S          16.261000     25.905000      2.552000
C          17.872000     27.845000      2.044000
C          15.635000     27.498000      2.559000
S          19.154000     28.960000      1.613000
C          16.624000     28.388000      2.335000
C          14.301000     27.862000      2.803000
C          17.971000     30.263000      1.776000
C          16.710000     29.870000      2.199000
N          13.872000     29.095000      2.546000
S          13.173000     26.676000      3.125000
C          12.451000     29.104000      2.689000
C          11.940000     27.876000      2.926000
C          25.725000     20.713000     -0.613000
H          25.875000     23.349000      0.245000
H          23.869000     24.759000      1.064000
H          21.333000     21.338000      0.240000
H          22.024000     25.785000      0.466000
H          18.332000     31.201000      1.376000
H          15.905000     30.593000      2.132000
H          11.865000     29.984000      2.458000
H          10.897000     27.625000      3.072000
H          26.308000     21.313000     -1.323000
C          25.202000     19.464000     -1.357000
H          26.402000     20.451000      0.210000
H          24.417000     19.766000     -2.062000
H          24.801000     18.670000     -0.716000
C          26.313000     18.811000     -2.153000
H          26.841000     19.600000     -2.703000
C          25.828000     17.651000     -3.085000
H          27.035000     18.392000     -1.442000
H          25.272000     16.884000     -2.531000
H          26.718000     17.109000     -3.426000
C          25.041000     18.157000     -4.339000
H          24.234000     18.851000     -4.075000
C          24.414000     16.998000     -5.096000
H          25.722000     18.757000     -4.955000
H          23.703000     17.301000     -5.875000
H          23.815000     16.261000     -4.548000
H          25.208000     16.390000     -5.548000
C          20.737000     18.281000     -0.759000
C          20.687000     19.469000     -1.555000
N          19.761000     17.990000      0.085000
C          19.611000     20.337000     -1.486000
C          18.733000     18.799000      0.163000
C          18.546000     20.009000     -0.615000
C          17.319000     20.790000     -0.459000
C          16.109000     20.204000     -0.049000
C          17.307000     22.229000     -0.608000
N          14.990000     20.916000      0.073000
N          18.389000     23.031000     -0.812000
C          16.139000     22.949000     -0.389000
C          14.952000     22.303000     -0.083000
S          17.883000     24.529000     -0.893000
N          16.274000     24.273000     -0.533000
C          13.600000     22.937000     -0.091000
S          13.299000     24.655000     -0.341000
C          12.421000     22.277000      0.001000
C          11.582000     24.424000     -0.226000
S          12.138000     20.597000      0.393000
C          11.300000     23.073000     -0.022000
C          10.567000     25.420000     -0.154000
C          10.400000     21.031000      0.512000
C          10.146000     22.360000      0.309000
N          11.033000     26.662000     -0.022000
S           8.826000     25.206000     -0.393000
C           9.951000     27.508000     -0.252000
C           8.728000     26.887000     -0.479000
C          21.917000     17.358000     -0.753000
H          21.530000     19.627000     -2.222000
H          19.585000     21.275000     -2.032000
H          17.899000     18.549000      0.817000
H          15.950000     19.130000      0.032000
H           9.718000     20.251000      0.825000
H           9.134000     22.749000      0.347000
H          10.167000     28.568000     -0.241000
H           7.709000     27.244000     -0.543000
H          22.770000     18.046000     -0.793000
C          22.071000     16.353000     -1.950000
H          21.994000     16.942000      0.259000
H          23.067000     15.895000     -1.931000
H          21.873000     16.794000     -2.935000
C          21.073000     15.170000     -1.782000
H          21.048000     14.763000     -0.763000
C          21.333000     14.061000     -2.786000
H          20.065000     15.591000     -1.872000
H          22.416000     13.891000     -2.806000
H          20.999000     14.362000     -3.787000
C          20.529000     12.737000     -2.388000
H          21.175000     12.347000     -1.592000
C          20.363000     11.697000     -3.509000
H          19.576000     13.110000     -1.991000
H          21.319000     11.710000     -4.047000
H          19.611000     12.013000     -4.242000
H          20.249000     10.706000     -3.053000
$end

--------------------------------------------------------------

             Standard Nuclear Orientation (Angstroms)
    I     Atom           X                Y                Z
 ----------------------------------------------------------------
    1      C       6.0054647897     3.7280341744     0.0009338628
    2      C       5.2793777107     4.9515220324    -0.0000736280
    3      N       5.4358260608     2.5314703724     0.1816180798
    4      C       3.8692506697     4.8467895127     0.1965117929
    5      C       4.0859328315     2.4445008436     0.3661053980
    6      C       3.2363682158     3.5727823686     0.4272835333
    7      C       1.7365035710     3.4796388202     0.5328312795
    8      C       0.8561654393     4.3338121150    -0.1998826867
    9      C       1.1040007727     2.5301143163     1.3431691266
   10      N      -0.4619544219     4.2768769862    -0.2064722847
   11      N       1.7792004212     1.5316947296     2.0389749642
   12      C      -0.2759757519     2.4455931487     1.3903174450
   13      C      -1.0571417815     3.3852609730     0.6466226056
   14      S       0.5590833860     0.5577160990     2.7329620299
   15      N      -0.7221525310     1.4472259203     2.1129170291
   16      C      -2.5427609182     3.2637175841     0.5900453551
   17      S      -3.4817484031     1.9019450521     1.1731989151
   18      C      -3.3734888462     4.2024783057     0.0274189984
   19      C      -4.9471332885     2.6111417581     0.6447472429
   20      S      -3.0137853613     5.7243890728    -0.7643581294
   21      C      -4.7120421975     3.8342294055     0.1259160704
   22      C      -6.2281285072     2.0478409084     0.7602089358
   23      C      -4.7499851630     5.9011770783    -1.0440423261
   24      C      -5.5429067839     4.8994144364    -0.5043702846
   25      N      -7.2631986034     2.5657698235     0.1038869608
   26      S      -6.4041442261     0.5496918339     1.4724110259
   27      C      -8.3656798273     1.6689050952     0.2450953530
   28      C      -8.0341961588     0.5274438687     0.8873249427
   29      C       7.5495854430     3.6908344507    -0.1116875768
   30      H       5.8284525052     5.8674010717    -0.1978220932
   31      H       3.2645615001     5.7443652163     0.1091340805
   32      H       3.6791736426     1.4453578607     0.5093159489
   33      H       1.3716800748     5.0917327528    -0.7882932298
   34      H      -4.9771830688     6.6971538568    -1.7404381041
   35      H      -6.5831849048     4.8585680282    -0.8066880018
   36      H      -9.3038081723     1.8411487524    -0.2661818036
   37      H      -8.6915873237    -0.3016187425     1.1167983464
   38      H       7.7677964714     4.3156984247    -0.9868549671
   39      C       8.1001894596     2.2734315721    -0.3853119480
   40      H       8.0404038589     4.1667025143     0.7467696840
   41      H       7.4775554728     1.7847324677    -1.1455448753
   42      H       8.1546791516     1.6145811377     0.4893679812
   43      C       9.5153663023     2.3432468311    -0.9207989539
   44      H       9.5392827096     3.1060874701    -1.7090293548
   45      C      10.0801093163     0.9651171714    -1.4017074369
   46      H      10.1624842107     2.7094416447    -0.1148797451
   47      H      10.0205869331     0.2002736041    -0.6169702813
   48      H      11.1605547336     1.0843165116    -1.5451445923
   49      C       9.4489520015     0.4770108945    -2.7475579882
   50      H       8.3527315189     0.4998624276    -2.7285985284
   51      C       9.8682383214    -0.9491884661    -3.0631738398
   52      H       9.7200449645     1.1909736886    -3.5349478116
   53      H       9.3166869655    -1.4073272511    -3.8938789352
   54      H       9.7590600037    -1.7229076075    -2.2939451447
   55      H      10.9422288069    -0.9686197580    -3.2880535006
   56      C       5.3595967149    -1.3590735160     0.6083561015
   57      C       4.7549417573    -0.7612135618    -0.5424765785
   58      N       4.6244324147    -1.9918025091     1.5076783313
   59      C       3.3911315545    -0.8441585762    -0.7640682196
   60      C       3.3314734586    -2.0822069351     1.3142017755
   61      C       2.6064116596    -1.5548489881     0.1737930842
   62      C       1.1646186268    -1.7764885855     0.0645468517
   63      C       0.5332708680    -2.8837464721     0.6569791095
   64      C       0.2899624027    -0.8097683855    -0.5627445834
   65      N      -0.7770135036    -3.0912900566     0.5383640762
   66      N       0.6453402235     0.4180532489    -1.0335998037
   67      C      -1.0833179802    -1.0190594563    -0.5924638978
   68      C      -1.6371696329    -2.1801882172    -0.0777315913
   69      S      -0.6514717353     1.1170412555    -1.6135097194
   70      N      -1.7770534654    -0.0347606883    -1.1771210726
   71      C      -3.0449814162    -2.6303524538    -0.2906685369
   72      S      -4.2883740689    -1.6844724090    -1.1054756624
   73      C      -3.5371916112    -3.8512832629     0.0273913370
   74      C      -5.4568475571    -2.9533643488    -0.9073394656
   75      S      -2.7865494796    -5.1201220651     0.9669324400
   76      C      -4.8696336716    -4.0384380100    -0.2560822179
   77      C      -6.8554808147    -2.9050606599    -1.1698594921
   78      C      -4.3867814051    -5.9336855055     0.9438388708
   79      C      -5.3623943252    -5.2184523607     0.3046307837
   80      N      -7.3103218226    -1.6882671243    -1.4693209240
   81      S      -7.9749756096    -4.2692370917    -1.3104015396
   82      C      -8.5993644858    -1.8678491041    -1.9647594419
   83      C      -9.0789976206    -3.1727728690    -1.9597570722
   84      C       6.8192866603    -1.2266869121     0.9184271423
   85      H       5.4346108561    -0.2644256629    -1.2293198646
   86      H       2.9057452744    -0.3419010868    -1.5951961119
   87      H       2.7188343894    -2.6411682071     2.0198983586
   88      H       1.0667522919    -3.7241739572     1.0978841024
   89      H      -4.4798473320    -6.8532487887     1.5070751458
   90      H      -6.3723983249    -5.6042948100     0.2155997497
   91      H      -9.1015293371    -0.9758206532    -2.3147490202
   92      H     -10.0519184015    -3.6121042710    -2.1338808017
   93      H       7.0381729921    -0.1882973004     0.6420419253
   94      C       7.8244968093    -2.1413391334     0.1313351082
   95      H       6.9149145566    -1.2074076937     2.0109529394
   96      H       8.8530846866    -1.7999481322     0.2974680763
   97      H       7.6166141456    -2.2160997653    -0.9434233047
   98      C       7.7778400275    -3.5911207908     0.6967316862
   99      H       7.7898317727    -3.6311800125     1.7934934912
  100      C       8.8851560665    -4.4590480125     0.1257233434
  101      H       6.7789131227    -3.9848271083     0.4764015374
  102      H       9.8077398379    -3.8674011680     0.1570633503
  103      H       8.6661989508    -4.7264803530    -0.9157639224
  104      C       9.0215793350    -5.8203842878     0.9539432643
  105      H       9.5749761293    -5.4621123000     1.8305419015
  106      C       9.7920330891    -6.9517680427     0.2523958232
  107      H       7.9871208747    -6.0857921089     1.2077175390
  108      H      10.6186788307    -6.4490096636    -0.2647500267
  109      H       9.1915409483    -7.4160056351    -0.5391480143
  110      H      10.2252534652    -7.6071927779     1.0177398779
 ----------------------------------------------------------------

   10   -5663.5325194136      4.80E-06 Convergence criterion met
 Total energy in the final basis set = -5663.5325194136

                    Orbital Energies (a.u.)
 --------------------------------------------------------------

 Alpha MOs
 -- Occupied --
-88.989 -88.985 -88.932 -88.923 -88.920 -88.917 -88.908 -88.904
-14.381 -14.380 -14.379 -14.379 -14.353 -14.349 -14.347 -14.336
-14.326 -14.321 -10.267 -10.266 -10.262 -10.256 -10.254 -10.249
-10.248 -10.247 -10.239 -10.239 -10.238 -10.236 -10.234 -10.234
-10.231 -10.230 -10.227 -10.225 -10.225 -10.224 -10.223 -10.223
-10.222 -10.222 -10.221 -10.221 -10.221 -10.218 -10.217 -10.217
-10.210 -10.204 -10.203 -10.203 -10.203 -10.202 -10.196 -10.192
-10.188 -10.183 -10.180 -10.178 -10.175 -10.175 -10.173 -10.171
-10.171 -10.171 -10.169 -10.166  -8.043  -8.039  -7.994  -7.982
 -7.981  -7.980  -7.968  -7.964  -6.009  -6.004  -6.003  -6.001
 -5.999  -5.996  -5.958  -5.954  -5.951  -5.946  -5.944  -5.944
 -5.942  -5.941  -5.941  -5.939  -5.937  -5.937  -5.932  -5.929
 -5.928  -5.925  -5.924  -5.920  -1.040  -1.018  -0.970  -0.962
 -0.957  -0.951  -0.945  -0.930  -0.918  -0.914  -0.901  -0.887
 -0.846  -0.842  -0.831  -0.826  -0.822  -0.808  -0.805  -0.804
 -0.801  -0.798  -0.796  -0.791  -0.780  -0.777  -0.764  -0.764
 -0.748  -0.743  -0.738  -0.734  -0.726  -0.725  -0.711  -0.706
 -0.692  -0.689  -0.677  -0.675  -0.651  -0.651  -0.644  -0.642
 -0.631  -0.629  -0.623  -0.622  -0.606  -0.605  -0.600  -0.594
 -0.593  -0.591  -0.580  -0.580  -0.576  -0.571  -0.567  -0.562
 -0.547  -0.541  -0.540  -0.537  -0.526  -0.521  -0.516  -0.505
 -0.503  -0.502  -0.500  -0.496  -0.489  -0.482  -0.475  -0.473
 -0.473  -0.470  -0.467  -0.460  -0.458  -0.454  -0.448  -0.447
 -0.445  -0.438  -0.437  -0.436  -0.434  -0.430  -0.430  -0.426
 -0.425  -0.425  -0.422  -0.418  -0.415  -0.413  -0.412  -0.411
 -0.410  -0.406  -0.403  -0.401  -0.400  -0.398  -0.397  -0.397
 -0.395  -0.392  -0.389  -0.387  -0.384  -0.383  -0.382  -0.380
 -0.379  -0.377  -0.374  -0.368  -0.364  -0.359  -0.355  -0.353
 -0.351  -0.349  -0.348  -0.348  -0.344  -0.342  -0.342  -0.339
 -0.336  -0.333  -0.332  -0.330  -0.329  -0.325  -0.322  -0.318
 -0.311  -0.308  -0.307  -0.305  -0.304  -0.302  -0.300  -0.297
 -0.295  -0.294  -0.293  -0.289  -0.284  -0.282  -0.280  -0.277
 -0.275  -0.266  -0.263  -0.261  -0.252  -0.249  -0.248  -0.245
 -0.243  -0.243  -0.228  -0.227  -0.192  -0.191

          Ground-State Mulliken Net Atomic Charges

     Atom                 Charge (a.u.)
  ----------------------------------------
      1 C                     0.269314
      2 C                    -0.111929
      3 N                    -0.497560
      4 C                    -0.102487
      5 C                     0.092836
      6 C                     0.036158
      7 C                     0.024206
      8 C                     0.069122
      9 C                     0.243701
     10 N                    -0.504196
     11 N                    -0.575744
     12 C                     0.264484
     13 C                     0.265518
     14 S                     0.596428
     15 N                    -0.604351
     16 C                    -0.236194
     17 S                     0.354550
     18 C                    -0.106458
     19 C                    -0.235678
     20 S                     0.274307
     21 C                     0.137894
     22 C                     0.095599
     23 C                    -0.303452
     24 C                    -0.057485
     25 N                    -0.459032
     26 S                     0.285001
     27 C                     0.110623
     28 C                    -0.280586
     29 C                    -0.240070
     30 H                     0.093374
     31 H                     0.097618
     32 H                     0.140872
     33 H                     0.102558
     34 H                     0.129512
     35 H                     0.129354
     36 H                     0.111914
     37 H                     0.126955
     38 H                     0.102726
     39 C                    -0.153643
     40 H                     0.117781
     41 H                     0.107178
     42 H                     0.109258
     43 C                    -0.187903
     44 H                     0.081381
     45 C                    -0.181845
     46 H                     0.082701
     47 H                     0.094955
     48 H                     0.088575
     49 C                    -0.169562
     50 H                     0.094144
     51 C                    -0.327535
     52 H                     0.096893
     53 H                     0.094806
     54 H                     0.108076
     55 H                     0.099580
     56 C                     0.282159
     57 C                    -0.112960
     58 N                    -0.473677
     59 C                    -0.080067
     60 C                     0.077466
     61 C                     0.039624
     62 C                     0.014047
     63 C                     0.066147
     64 C                     0.223480
     65 N                    -0.541511
     66 N                    -0.555040
     67 C                     0.227666
     68 C                     0.305950
     69 S                     0.633561
     70 N                    -0.591375
     71 C                    -0.226723
     72 S                     0.376804
     73 C                    -0.116136
     74 C                    -0.221502
     75 S                     0.286130
     76 C                     0.145571
     77 C                     0.050328
     78 C                    -0.312269
     79 C                    -0.080911
     80 N                    -0.424171
     81 S                     0.291756
     82 C                     0.104463
     83 C                    -0.315785
     84 C                    -0.259510
     85 H                     0.097940
     86 H                     0.117752
     87 H                     0.086995
     88 H                     0.125184
     89 H                     0.125456
     90 H                     0.111360
     91 H                     0.110919
     92 H                     0.139393
     93 H                     0.128969
     94 C                    -0.186282
     95 H                     0.116759
     96 H                     0.098876
     97 H                     0.102741
     98 C                    -0.176789
     99 H                     0.095769
    100 C                    -0.182054
    101 H                     0.099227
    102 H                     0.086158
    103 H                     0.086322
    104 C                    -0.181453
    105 H                     0.095459
    106 C                    -0.320028
    107 H                     0.098064
    108 H                     0.103399
    109 H                     0.106546
    110 H                     0.105560
  ----------------------------------------
  Sum of atomic charges =     0.000000

                    Cartesian Multipole Moments
 -----------------------------------------------------------------
    Charge (ESU x 10^10)
                 0.0000
    Dipole Moment (Debye)
         X      -2.5904      Y      -0.7476      Z      -1.6021
       Tot       3.1362
    Quadrupole Moments (Debye-Ang)
        XX    -388.5871     XY      36.7763     YY    -425.6994
        XZ      -1.1900     YZ      -8.7469     ZZ    -447.7217

 Total job time:  116.44s(wall), 1269.60s(cpu)
        *  Thank you very much for using Q-Chem.  Have a nice day.  *
